Title
82263
    1SAPS     N    1   0.878   4.220  11.006  0.7918 -0.5658  0.0780
    1SAPS   HN1    2   0.965   4.183  11.049  0.1621 -1.6546  0.4620
    1SAPS   HN2    3   0.884   4.319  10.973 -2.0944 -0.7845 -1.4552
    1SAPS   HN3    4   0.804   4.211  11.078  0.3472 -0.6618 -0.3807
    1SAPS   C12    5   0.827   4.139  10.893  0.1636  0.9634 -0.3590
    1SAPS  H12A    6   0.784   4.047  10.931  0.3020 -0.0890 -2.6132
    1SAPS   C13    7   0.722   4.197  10.792  0.5809 -0.2479  0.4808
    1SAPS  O13A    8   0.679   4.310  10.817  0.4902 -0.0668 -0.0144
    1SAPS  O13B    9   0.671   4.122  10.704 -0.3456  0.3285 -0.2158
    1SAPS   C11   10   0.950   4.088  10.811 -0.0782  0.1655 -0.1536
    1SAPS  H11A   11   0.998   4.175  10.761  2.5899 -0.1105  1.7054
    1SAPS  H11B   12   0.927   4.011  10.734  0.7970  2.0471 -2.4324
    1SAPS     P   13   1.200   4.020  10.887 -0.6990  0.2104 -0.0111
    1SAPS   O13   14   1.250   4.161  10.916 -0.1255 -0.0929  0.0189
    1SAPS   O14   15   1.257   3.909  10.968 -0.1217 -0.4453 -0.4681
    1SAPS   O12   16   1.041   4.028  10.907  0.2526  0.4947 -0.2115
    1SAPS   O11   17   1.207   3.986  10.731 -0.4392 -0.0136  0.2849
    1SAPS    C1   18   1.226   3.847  10.697 -0.3709  0.2209  0.2149
    1SAPS    HA   19   1.336   3.830  10.690 -0.2336  1.4906 -1.1863
    1SAPS    HB   20   1.175   3.775  10.764 -0.1677 -0.7567 -0.6461
    1SAPS    C2   21   1.170   3.800  10.556 -0.3366  0.0292  0.4218
    1SAPS    HS   22   1.207   3.696  10.547 -0.7979 -0.1073  0.1126
    1SAPS   O21   23   1.233   3.869  10.442 -0.1537 -0.4762  0.2841
    1SAPS   C21   24   1.346   3.823  10.384  0.0982  0.0616  0.1505
    1SAPS   O22   25   1.411   3.729  10.422  0.0700  0.0518  0.0144
    1SAPS   C22   26   1.393   3.917  10.265 -0.1161  0.4903 -0.4149
    1SAPS   H2R   27   1.397   4.021  10.304 -2.2995  1.1114 -1.7296
    1SAPS   H2S   28   1.493   3.877  10.237 -0.1564  0.6830 -0.8249
    1SAPS    C3   29   1.018   3.814  10.535 -0.7125  0.4874  0.3035
    1SAPS    HX   30   0.998   3.923  10.524 -1.0594  0.2273 -2.3127
    1SAPS    HY   31   0.974   3.758  10.620  0.8095 -0.4903  0.4879
    1SAPS   O31   32   0.987   3.744  10.418 -0.1748  0.1761  0.3797
    1SAPS   C31   33   0.868   3.771  10.365  0.1006 -0.2193  0.5178
    1SAPS   O32   34   0.781   3.843  10.417  0.7386 -0.0440 -0.2274
    1SAPS   C32   35   0.857   3.703  10.232 -0.1177  1.2295  0.4876
    1SAPS   H2X   36   0.818   3.601  10.254  0.7849  0.4464 -1.3344
    1SAPS   H2Y   37   0.959   3.692  10.189 -0.0152  4.9092 -0.5530
    1SAPS   C23   38   1.299   3.908  10.149  0.0052  0.2321 -1.0916
    1SAPS   H3R   39   1.337   3.972  10.066  1.4642 -0.8516 -1.3098
    1SAPS   H3S   40   1.203   3.951  10.184  1.2442  1.3629  1.1408
    1SAPS   C24   41   1.265   3.773  10.087 -0.3535  0.1941 -0.2550
    1SAPS   H4R   42   1.166   3.771  10.035  0.1777  1.0185 -1.3334
    1SAPS   H4S   43   1.253   3.699  10.169 -1.3184 -0.4969 -0.9830
    1SAPS   C25   44   1.364   3.723   9.984 -0.3912  0.7170  0.5868
    1SAPS   H5R   45   1.467   3.709  10.020 -0.5291 -0.9158  0.4436
    1SAPS   C26   46   1.330   3.681   9.860  0.8906 -0.4176 -0.1848
    1SAPS   H6R   47   1.407   3.652   9.786 -1.3674 -1.0619 -2.4254
    1SAPS   C27   48   1.195   3.675   9.798  0.1197 -0.2538  0.0609
    1SAPS   H7R   49   1.120   3.660   9.878 -0.4477 -1.1738 -0.6168
    1SAPS   H7S   50   1.194   3.587   9.730  1.4949  1.9601 -3.0876
    1SAPS   C28   51   1.164   3.805   9.728 -0.7813  0.5719 -0.2113
    1SAPS   H8R   52   1.150   3.889   9.797 -3.1612  1.6604 -1.8617
    1SAPS   C29   53   1.179   3.830   9.592  1.2325  0.1282 -0.8909
    1SAPS   H9R   54   1.158   3.934   9.565 -0.0919  0.7526  2.1765
    1SAPS  C210   55   1.233   3.733   9.489  0.3687  0.2982  0.0598
    1SAPS  H10R   56   1.309   3.665   9.533  2.1186 -1.4832 -4.9101
    1SAPS  H10S   57   1.288   3.777   9.403  1.4369 -1.5427 -0.2439
    1SAPS  C211   58   1.122   3.644   9.433  0.1177  0.2839  1.0918
    1SAPS  H11R   59   1.045   3.611   9.503 -1.5458  1.1454 -0.2548
    1SAPS  C212   60   1.121   3.587   9.307  0.0937 -0.0319  0.7039
    1SAPS  H12R   61   1.043   3.511   9.291 -1.5510  1.2051  2.3621
    1SAPS  C213   62   1.218   3.613   9.192 -1.1041  0.0429  0.2302
    1SAPS  H13R   63   1.251   3.519   9.142  0.6977 -0.3757  2.0630
    1SAPS  H13S   64   1.312   3.657   9.230 -0.5929  1.0130 -2.0283
    1SAPS  C214   65   1.160   3.709   9.086  0.4120  0.2313 -0.3174
    1SAPS  H14R   66   1.058   3.739   9.113 -0.3916 -2.0777 -0.5585
    1SAPS  C215   67   1.203   3.744   8.965 -0.3727 -0.1596 -0.8280
    1SAPS  H15R   68   1.155   3.829   8.913  2.8354  1.6700 -1.1083
    1SAPS  C216   69   1.325   3.703   8.888 -1.1161  0.3337 -0.1907
    1SAPS  H16R   70   1.303   3.663   8.787 -1.6119 -0.4121  0.2002
    1SAPS  H16S   71   1.365   3.619   8.950 -3.0520 -2.4285 -2.4068
    1SAPS  C217   72   1.423   3.824   8.879  0.0750 -0.3097 -0.3311
    1SAPS  H17R   73   1.521   3.775   8.854 -0.0711 -0.1824 -1.2043
    1SAPS  H17S   74   1.420   3.877   8.976  0.7670  0.5610 -0.7692
    1SAPS  C218   75   1.395   3.928   8.766 -0.8366  0.2480  0.2606
    1SAPS  H18R   76   1.320   4.004   8.796 -0.3582  1.9262 -2.4573
    1SAPS  H18S   77   1.360   3.880   8.673  0.7810  1.7294 -1.1801
    1SAPS  C219   78   1.524   4.001   8.727  0.7303  0.2391  0.0502
    1SAPS  H19R   79   1.562   4.052   8.818  1.9750  0.5978 -0.6495
    1SAPS  H19S   80   1.493   4.076   8.651 -0.8044 -0.3795  0.0317
    1SAPS  C220   81   1.634   3.922   8.673 -0.3928  0.0434 -0.0611
    1SAPS  H20R   82   1.716   3.989   8.639  0.6924 -0.1503  1.9842
    1SAPS  H20S   83   1.616   3.857   8.585 -0.3705  0.4983 -0.4024
    1SAPS  H20T   84   1.676   3.857   8.753  0.7346  0.8977  0.0585
    1SAPS   C33   85   0.759   3.759  10.130  0.2331 -0.4189 -0.1512
    1SAPS   H3X   86   0.659   3.777  10.176 -0.3607  0.1821 -1.5930
    1SAPS   H3Y   87   0.745   3.689  10.045 -1.8634  1.1227 -1.1688
    1SAPS   C34   88   0.819   3.882  10.060 -0.4089 -0.1952 -0.1553
    1SAPS   H4X   89   0.910   3.852  10.004  0.8148  2.9242 -0.0293
    1SAPS   H4Y   90   0.859   3.952  10.136  0.0010 -0.3394 -0.2324
    1SAPS   C35   91   0.722   3.960   9.971  0.1683  0.4565  0.6850
    1SAPS   H5X   92   0.744   4.069   9.963  2.6767 -0.1316 -2.0384
    1SAPS   H5Y   93   0.617   3.965  10.009  0.0468  0.3255  0.3714
    1SAPS   C36   94   0.725   3.909   9.820  1.0327 -0.1554 -0.1913
    1SAPS   H6X   95   0.720   3.798   9.818 -4.3942 -0.2167  1.3017
    1SAPS   H6Y   96   0.822   3.937   9.774  0.0930 -0.2067 -2.3048
    1SAPS   C37   97   0.613   3.977   9.740 -0.0663 -0.0363 -0.8117
    1SAPS   H7X   98   0.588   4.082   9.768 -2.3806 -0.9996  1.0261
    1SAPS   H7Y   99   0.518   3.927   9.770 -1.2303  1.5153 -1.7521
    1SAPS   C38  100   0.624   3.958   9.592  0.3392  0.0886  0.1469
    1SAPS   H8X  101   0.684   4.043   9.552 -2.1041  1.1667 -1.5006
    1SAPS   H8Y  102   0.520   3.974   9.555  1.6892 -0.8467 -4.8903
    1SAPS   C39  103   0.683   3.828   9.541  0.0868  0.5077  0.0927
    1SAPS   H9X  104   0.624   3.745   9.585 -1.1011  1.0258 -0.4824
    1SAPS   H9Y  105   0.782   3.820   9.590 -0.7105  0.6268  1.7877
    1SAPS  C310  106   0.693   3.828   9.388 -0.4209 -0.6109  0.3385
    1SAPS  H10X  107   0.586   3.812   9.364 -1.2169 -1.4440  3.9022
    1SAPS  H10Y  108   0.748   3.742   9.344 -0.2795  0.4339 -1.6696
    1SAPS  C311  109   0.762   3.952   9.330  0.3062 -0.1357 -0.0519
    1SAPS  H11X  110   0.861   3.964   9.379  1.6748 -2.1729 -2.1151
    1SAPS  H11Y  111   0.696   4.039   9.352  0.1468 -0.3448  0.3220
    1SAPS  C312  112   0.782   3.937   9.178 -0.6376  0.4296  0.3805
    1SAPS  H12X  113   0.734   3.844   9.140  0.7691 -0.1219 -0.1010
    1SAPS  H12Y  114   0.891   3.919   9.177 -0.9458 -2.4816  3.3700
    1SAPS  C313  115   0.746   4.053   9.093  0.2622  0.1605 -0.3762
    1SAPS  H13X  116   0.815   4.135   9.122  2.3904 -2.6185  3.3340
    1SAPS  H13Y  117   0.643   4.075   9.130  0.3868  0.1691 -0.0354
    1SAPS  C314  118   0.756   4.028   8.934 -0.7354  0.1037 -1.1963
    1SAPS  H14X  119   0.759   4.128   8.887  4.1070  0.7806 -0.0261
    1SAPS  H14Y  120   0.663   3.977   8.901 -1.5193  0.7436 -0.0532
    1SAPS  C315  121   0.875   3.946   8.885  0.2215  0.0338 -0.6220
    1SAPS  H15X  122   0.867   3.847   8.935  1.1046 -0.7296 -1.9295
    1SAPS  H15Y  123   0.970   3.995   8.914 -0.5012  0.4790  1.1359
    1SAPS  C316  124   0.876   3.922   8.734  0.1356 -0.4172  0.5327
    1SAPS  H16X  125   0.865   4.021   8.686  0.4397 -0.4008  0.4978
    1SAPS  H16Y  126   0.792   3.859   8.697  0.9470 -0.2616 -1.7686
    1SAPS  C317  127   1.010   3.853   8.689  0.0004  0.8650 -0.0874
    1SAPS  H17X  128   1.008   3.745   8.715  1.7293  1.0299  0.8188
    1SAPS  H17Y  129   1.101   3.892   8.738 -0.9099  0.2960  2.1686
    1SAPS  C318  130   1.036   3.855   8.536  0.1120  0.1232  0.0520
    1SAPS  H18X  131   1.141   3.835   8.505 -0.6708 -1.8324 -1.6077
    1SAPS  H18Y  132   1.012   3.957   8.498 -1.0049  0.2080  0.9647
    1SAPS  H18Z  133   0.984   3.772   8.484  0.9748 -0.1931 -0.3395
    2SAPS     N  134   5.199   2.878  10.747 -0.1023 -0.1485  0.0397
    2SAPS   HN1  135   5.120   2.868  10.680 -1.0068 -0.2741  1.0874
    2SAPS   HN2  136   5.273   2.806  10.744 -1.0831 -1.3276  2.1928
    2SAPS   HN3  137   5.156   2.863  10.841 -2.1782  1.3012 -0.6049
    2SAPS   C12  138   5.254   3.023  10.764  0.2265  0.1731 -0.1961
    2SAPS  H12A  139   5.312   3.042  10.675  1.2328 -1.4016  0.0890
    2SAPS   C13  140   5.139   3.136  10.782 -0.3248  0.1694  0.4783
    2SAPS  O13A  141   5.022   3.098  10.801 -0.7632  0.1070 -0.5554
    2SAPS  O13B  142   5.161   3.253  10.749  0.3218  0.2431  0.2255
    2SAPS   C11  143   5.353   3.028  10.879 -0.9323 -0.1734 -0.8563
    2SAPS  H11A  144   5.290   3.032  10.971  1.3148 -0.2361  0.7750
    2SAPS  H11B  145   5.405   3.126  10.872  0.0304 -0.4513  1.2922
    2SAPS     P  146   5.595   2.928  10.851  0.1573  0.2886 -0.1754
    2SAPS   O13  147   5.673   3.013  10.947 -0.2108 -0.5797  0.3665
    2SAPS   O14  148   5.645   2.790  10.843  0.1270  0.2064 -0.0202
    2SAPS   O12  149   5.446   2.918  10.888 -0.2681 -0.3118 -0.2853
    2SAPS   O11  150   5.591   2.993  10.711  0.1768 -0.2018  0.0445
    2SAPS    C1  151   5.644   2.922  10.599 -0.1962 -0.6848 -0.0544
    2SAPS    HA  152   5.755   2.921  10.596 -0.1056  1.6410  0.1679
    2SAPS    HB  153   5.617   2.815  10.599 -2.5086 -0.2238  2.4914
    2SAPS    C2  154   5.593   2.992  10.465 -0.6749  0.2826  0.2119
    2SAPS    HS  155   5.487   2.961  10.446 -0.6977  0.1460  0.5391
    2SAPS   O21  156   5.684   2.951  10.361  0.3592 -0.6825 -0.2964
    2SAPS   C21  157   5.673   2.829  10.323  0.1743  1.1583 -0.0814
    2SAPS   O22  158   5.592   2.744  10.359  0.6621 -0.7008 -0.9004
    2SAPS   C22  159   5.771   2.805  10.205 -0.2159  0.3649 -0.2820
    2SAPS   H2R  160   5.869   2.831  10.250  0.1278  0.5797 -1.1431
    2SAPS   H2S  161   5.774   2.696  10.183 -1.4073  0.2784 -0.1102
    2SAPS    C3  162   5.588   3.151  10.469 -0.0031  1.1493  0.9934
    2SAPS    HX  163   5.690   3.192  10.485  0.0934  0.6744  1.6664
    2SAPS    HY  164   5.521   3.182  10.552  0.0765  2.6534  0.5234
    2SAPS   O31  165   5.539   3.195  10.338 -0.2852  0.0351 -0.4394
    2SAPS   C31  166   5.620   3.263  10.258  0.2090  0.5082 -0.3025
    2SAPS   O32  167   5.719   3.327  10.284  0.1515  0.2231  0.0734
    2SAPS   C32  168   5.551   3.274  10.129  0.4920  0.6738  0.1565
    2SAPS   H2X  169   5.458   3.333  10.150 -1.3218 -1.4052 -1.5537
    2SAPS   H2Y  170   5.523   3.175  10.088 -1.0516  1.1503 -0.0257
    2SAPS   C23  171   5.737   2.895  10.086 -0.1660  0.1391 -0.0088
    2SAPS   H3R  172   5.817   2.887  10.009 -1.8927  0.5482 -1.9381
    2SAPS   H3S  173   5.730   2.999  10.124  0.7488 -0.1780  1.1131
    2SAPS   C24  174   5.610   2.856  10.017  0.0613  0.0724 -0.1029
    2SAPS   H4R  175   5.586   2.952   9.968 -0.7971  1.1720  2.3091
    2SAPS   H4S  176   5.523   2.829  10.080  0.6259 -1.1794  0.1789
    2SAPS   C25  177   5.620   2.735   9.923  0.0868  0.3812 -0.2996
    2SAPS   H5R  178   5.628   2.637   9.972 -0.9061  0.2457 -0.3889
    2SAPS   C26  179   5.627   2.736   9.794  0.0170  0.1001 -0.1899
    2SAPS   H6R  180   5.640   2.639   9.744 -1.0995  0.2392 -0.7862
    2SAPS   C27  181   5.631   2.845   9.693  0.2285 -0.4973 -0.9914
    2SAPS   H7R  182   5.575   2.928   9.742 -0.5807 -0.2865 -2.2200
    2SAPS   H7S  183   5.572   2.798   9.611 -0.4058 -1.6254  0.0702
    2SAPS   C28  184   5.775   2.888   9.655  0.4457 -0.3312 -0.3608
    2SAPS   H8R  185   5.832   2.905   9.747  0.2023  0.9120 -0.4205
    2SAPS   C29  186   5.835   2.889   9.539  0.1543  0.2579 -0.7233
    2SAPS   H9R  187   5.931   2.944   9.544  2.1995 -2.9504 -1.4917
    2SAPS  C210  188   5.778   2.865   9.404 -0.5235 -0.3953  0.0968
    2SAPS  H10R  189   5.670   2.887   9.417 -0.8107 -0.2224 -2.2315
    2SAPS  H10S  190   5.780   2.759   9.373  0.1486 -0.8085  1.4519
    2SAPS  C211  191   5.822   2.963   9.298 -0.5326 -0.8517 -0.1034
    2SAPS  H11R  192   5.824   3.067   9.333 -1.5635 -0.3275 -1.5463
    2SAPS  C212  193   5.851   2.952   9.169  0.3626 -0.1056  0.5244
    2SAPS  H12R  194   5.877   3.043   9.112  0.6004  0.8376  2.1002
    2SAPS  C213  195   5.846   2.830   9.079  0.7528 -0.1298  0.2717
    2SAPS  H13R  196   5.812   2.742   9.137  2.5981 -1.2153 -0.2194
    2SAPS  H13S  197   5.946   2.799   9.044  0.3076 -2.6184  1.0211
    2SAPS  C214  198   5.759   2.835   8.950 -0.1699 -0.3824  0.2379
    2SAPS  H14R  199   5.658   2.867   8.982 -0.2692  0.2107 -0.6395
    2SAPS  C215  200   5.799   2.815   8.823  0.0078 -0.2874  0.3905
    2SAPS  H15R  201   5.722   2.817   8.745  0.2716  1.7829  0.1340
    2SAPS  C216  202   5.931   2.776   8.768  0.1636  0.0937  0.1160
    2SAPS  H16R  203   5.916   2.680   8.715  0.3236  2.1324 -3.9792
    2SAPS  H16S  204   5.999   2.764   8.855 -0.5662  0.8255  0.8100
    2SAPS  C217  205   5.985   2.872   8.670 -1.0551  0.0647 -0.5734
    2SAPS  H17R  206   6.016   2.957   8.735  1.0198 -1.3413  0.3647
    2SAPS  H17S  207   5.905   2.919   8.608 -1.8690  1.7899  1.6295
    2SAPS  C218  208   6.103   2.820   8.586 -0.1267 -0.1506 -0.8488
    2SAPS  H18R  209   6.071   2.721   8.547 -1.1066  0.1253 -0.7599
    2SAPS  H18S  210   6.184   2.818   8.663 -0.3836  2.4490 -0.4010
    2SAPS  C219  211   6.159   2.922   8.493  0.2185 -0.3192  0.2176
    2SAPS  H19R  212   6.140   3.021   8.538  1.3150  0.0564 -0.1045
    2SAPS  H19S  213   6.106   2.929   8.395 -0.8543  1.2066  0.8809
    2SAPS  C220  214   6.304   2.896   8.444  0.9212  0.4881  0.5403
    2SAPS  H20R  215   6.344   2.984   8.389 -0.3899  0.1955 -0.9669
    2SAPS  H20S  216   6.318   2.806   8.380  2.0639  1.7927 -1.1332
    2SAPS  H20T  217   6.375   2.874   8.526  0.0350  0.0803  1.2116
    2SAPS   C33  218   5.634   3.365  10.027  0.0169  0.5073 -0.2256
    2SAPS   H3X  219   5.636   3.467  10.072  0.8216  0.6535 -0.5819
    2SAPS   H3Y  220   5.570   3.363   9.936  0.4467  0.9413 -0.5418
    2SAPS   C34  221   5.773   3.323   9.976  0.4791 -0.1883 -0.4441
    2SAPS   H4X  222   5.757   3.218   9.943 -2.2395  0.3814 -1.1785
    2SAPS   H4Y  223   5.850   3.325  10.056 -0.1544 -0.0221  0.1659
    2SAPS   C35  224   5.825   3.393   9.848  0.0620 -0.1345 -0.2607
    2SAPS   H5X  225   5.936   3.395   9.842  0.0228  1.4654 -1.1781
    2SAPS   H5Y  226   5.801   3.502   9.856  2.9704  0.7206 -1.6771
    2SAPS   C36  227   5.758   3.335   9.716 -0.1266 -0.0669  0.0012
    2SAPS   H6X  228   5.648   3.353   9.707  0.1098  1.9660  0.6547
    2SAPS   H6Y  229   5.776   3.226   9.731  1.2319 -0.1347 -1.8538
    2SAPS   C37  230   5.826   3.378   9.587 -0.4921 -0.6692 -0.6037
    2SAPS   H7X  231   5.937   3.371   9.596 -0.5166 -0.3732 -0.0146
    2SAPS   H7Y  232   5.807   3.486   9.569 -1.3502 -1.0697 -2.3552
    2SAPS   C38  233   5.773   3.321   9.452 -0.2900  0.8478 -0.8461
    2SAPS   H8X  234   5.671   3.363   9.439 -1.7643 -2.4436 -0.8896
    2SAPS   H8Y  235   5.769   3.210   9.453  1.9475  0.7270  0.9917
    2SAPS   C39  236   5.853   3.373   9.331  0.7036 -0.8183 -0.4040
    2SAPS   H9X  237   5.954   3.327   9.326 -0.1034 -2.6046 -1.3997
    2SAPS   H9Y  238   5.877   3.480   9.314 -0.2594 -0.9042 -2.6896
    2SAPS  C310  239   5.781   3.337   9.195 -0.4858 -0.2131  1.1111
    2SAPS  H10X  240   5.675   3.369   9.188 -0.3542 -0.1506 -1.4421
    2SAPS  H10Y  241   5.779   3.230   9.167 -2.1887  0.0258  0.2272
    2SAPS  C311  242   5.846   3.420   9.083 -0.3975  0.0905 -0.4913
    2SAPS  H11X  243   5.957   3.416   9.095 -0.4315  0.9829  0.2240
    2SAPS  H11Y  244   5.814   3.526   9.084  0.1766  0.2724  1.0435
    2SAPS  C312  245   5.818   3.360   8.943  0.2682 -0.5342  0.2311
    2SAPS  H12X  246   5.711   3.385   8.927  0.3564  0.3689  0.9703
    2SAPS  H12Y  247   5.839   3.251   8.956 -0.3060 -0.7484 -0.6118
    2SAPS  C313  248   5.917   3.401   8.836 -0.3598 -0.4278  0.7012
    2SAPS  H13X  249   6.026   3.396   8.859  0.7950  0.9299 -3.4786
    2SAPS  H13Y  250   5.887   3.507   8.819 -0.3563 -0.6665 -1.0075
    2SAPS  C314  251   5.908   3.320   8.706  0.1108 -0.1895 -0.2158
    2SAPS  H14X  252   5.901   3.211   8.722 -0.0143 -0.1735 -0.1573
    2SAPS  H14Y  253   6.001   3.321   8.646  0.1166  0.1066 -0.2070
    2SAPS  C315  254   5.796   3.363   8.614  0.1124  0.3706  0.3371
    2SAPS  H15X  255   5.810   3.472   8.602 -3.5314  0.9041 -0.2208
    2SAPS  H15Y  256   5.692   3.356   8.652  0.2859  1.4356  1.0506
    2SAPS  C316  257   5.804   3.291   8.488  0.0888 -0.2110 -0.0438
    2SAPS  H16X  258   5.810   3.181   8.505 -0.1575 -0.6224 -2.3728
    2SAPS  H16Y  259   5.896   3.319   8.432 -1.1079  1.6742 -1.1735
    2SAPS  C317  260   5.690   3.319   8.393  1.2420  0.4573 -0.0799
    2SAPS  H17X  261   5.700   3.287   8.288 -3.4123  0.9332 -0.8925
    2SAPS  H17Y  262   5.690   3.430   8.399 -0.6784  0.5401 -0.8863
    2SAPS  C318  263   5.551   3.275   8.438  0.7576 -0.2745 -0.0154
    2SAPS  H18X  264   5.469   3.316   8.375 -0.4177  0.6561  1.9893
    2SAPS  H18Y  265   5.536   3.314   8.541  0.6450  0.7630 -0.4080
    2SAPS  H18Z  266   5.550   3.164   8.440  2.3254 -0.3168  1.7430
    3SAPS     N  267   5.890   5.445  11.131  0.2028 -0.8956 -0.3053
    3SAPS   HN1  268   5.798   5.427  11.175  1.2869 -1.7745  1.7340
    3SAPS   HN2  269   5.875   5.484  11.035  1.3078 -3.8208 -1.8135
    3SAPS   HN3  270   5.939   5.356  11.109  1.5273  0.0129 -1.1892
    3SAPS   C12  271   5.983   5.524  11.213  0.0480  0.1286 -0.2433
    3SAPS  H12A  272   5.912   5.591  11.261 -2.0296 -2.1614  0.1051
    3SAPS   C13  273   6.041   5.429  11.325  0.4209 -0.0023  0.2885
    3SAPS  O13A  274   6.018   5.303  11.336  0.0025 -0.1733  0.0250
    3SAPS  O13B  275   6.127   5.481  11.393  0.1537  0.2180 -0.0459
    3SAPS   C11  276   6.095   5.601  11.134  0.1383  0.5385  0.7468
    3SAPS  H11A  277   6.142   5.670  11.208 -1.0973  0.9930  1.1249
    3SAPS  H11B  278   6.032   5.656  11.061 -0.1111 -0.7452 -0.0344
    3SAPS     P  279   6.293   5.561  10.950  0.8450  0.1925  0.5530
    3SAPS   O13  280   6.393   5.632  11.030 -0.2473 -0.5322 -0.4521
    3SAPS   O14  281   6.333   5.447  10.870  0.0635  0.1370  0.0053
    3SAPS   O12  282   6.180   5.516  11.053 -0.0183  0.5136 -0.0695
    3SAPS   O11  283   6.225   5.664  10.860 -0.2363 -0.1718 -0.2283
    3SAPS    C1  284   6.101   5.647  10.788  0.5951 -0.4502  0.7213
    3SAPS    HA  285   6.051   5.549  10.807 -0.8848  0.1565  0.0595
    3SAPS    HB  286   6.022   5.719  10.818  1.3905  0.5516  0.4694
    3SAPS    C2  287   6.109   5.662  10.635  0.5455 -0.6784 -0.3847
    3SAPS    HS  288   6.154   5.568  10.596 -0.0154 -1.5235  0.9101
    3SAPS   O21  289   6.203   5.762  10.597  0.3609 -0.0893  0.4046
    3SAPS   C21  290   6.282   5.739  10.491  0.8854 -0.0979 -0.2693
    3SAPS   O22  291   6.289   5.640  10.419  0.3683  0.2704  0.1065
    3SAPS   C22  292   6.355   5.873  10.452  0.0185  0.6992 -0.4047
    3SAPS   H2R  293   6.277   5.952  10.450  0.4399  1.1444  0.2456
    3SAPS   H2S  294   6.413   5.898  10.544 -2.3857  0.6148  1.2028
    3SAPS    C3  295   5.972   5.686  10.564  0.6883 -0.8824 -0.4558
    3SAPS    HX  296   5.938   5.788  10.594 -0.2145 -1.4249  0.4459
    3SAPS    HY  297   5.897   5.617  10.609  2.7781 -1.6106  2.1298
    3SAPS   O31  298   5.976   5.680  10.420  0.1952  0.2804  0.2894
    3SAPS   C31  299   6.007   5.789  10.349 -0.9805  0.5535 -0.5858
    3SAPS   O32  300   6.030   5.902  10.392  0.7082 -0.0295  0.3397
    3SAPS   C32  301   6.012   5.752  10.203 -0.8400 -0.3711 -0.3358
    3SAPS   H2X  302   5.919   5.697  10.177 -0.0650 -2.0766  0.3311
    3SAPS   H2Y  303   6.104   5.689  10.203 -0.6942 -0.1576 -0.4390
    3SAPS   C23  304   6.433   5.856  10.323 -0.2462  0.0781 -0.1219
    3SAPS   H3R  305   6.365   5.845  10.236  2.8497  1.5850 -2.9232
    3SAPS   H3S  306   6.497   5.766  10.314 -0.9797 -0.3274 -1.4660
    3SAPS   C24  307   6.516   5.985  10.303 -0.1874 -0.3593 -0.8010
    3SAPS   H4R  308   6.583   5.997  10.390  0.4567  0.3890 -1.3875
    3SAPS   H4S  309   6.445   6.069  10.311  0.8439  0.9625 -3.9747
    3SAPS   C25  310   6.592   5.998  10.170  0.4995 -0.0759 -0.4302
    3SAPS   H5R  311   6.646   5.907  10.139 -1.9692 -1.9770  0.4423
    3SAPS   C26  312   6.602   6.097  10.079  0.0746 -0.1037  1.0343
    3SAPS   H6R  313   6.680   6.083  10.003 -2.1093 -6.8072 -0.6817
    3SAPS   C27  314   6.549   6.239  10.083  0.2770 -0.0195 -0.5077
    3SAPS   H7R  315   6.615   6.304  10.022 -0.3464 -1.1242 -2.4336
    3SAPS   H7S  316   6.573   6.269  10.188 -0.4981  1.2638 -0.6792
    3SAPS   C28  317   6.399   6.260  10.055 -0.8663  0.9192  0.3081
    3SAPS   H8R  318   6.324   6.193  10.098 -1.6073  1.4429 -0.1354
    3SAPS   C29  319   6.344   6.356   9.985  0.3378 -0.4580  0.9068
    3SAPS   H9R  320   6.235   6.348   9.974  0.0617 -1.1250  3.6002
    3SAPS  C210  321   6.408   6.475   9.920 -0.1755  0.1601 -0.2630
    3SAPS  H10R  322   6.511   6.465   9.960 -0.4892 -3.2196  0.0011
    3SAPS  H10S  323   6.359   6.570   9.950 -0.3842 -0.9966  3.6193
    3SAPS  C211  324   6.428   6.454   9.767  0.3410 -0.4263  0.6729
    3SAPS  H11R  325   6.506   6.383   9.736 -0.1268 -0.2987 -0.9082
    3SAPS  C212  326   6.348   6.509   9.671  0.4605  0.1516  0.9268
    3SAPS  H12R  327   6.372   6.487   9.566 -1.5974 -0.0518  0.4656
    3SAPS  C213  328   6.225   6.603   9.681 -0.1038 -0.3041  0.0133
    3SAPS  H13R  329   6.164   6.571   9.769 -0.7078  0.2939 -0.1839
    3SAPS  H13S  330   6.164   6.585   9.590 -1.2055 -0.8257  0.8374
    3SAPS  C214  331   6.258   6.752   9.697  0.2739  0.2733  0.2355
    3SAPS  H14R  332   6.345   6.786   9.754  0.1782  1.7719 -0.4495
    3SAPS  C215  333   6.174   6.855   9.665  0.2244  1.0447 -0.7337
    3SAPS  H15R  334   6.216   6.953   9.689  0.5747  0.5671  0.6625
    3SAPS  C216  335   6.039   6.844   9.600  0.5613  0.2801 -0.3288
    3SAPS  H16R  336   5.982   6.929   9.643  0.7274  0.3543 -0.2553
    3SAPS  H16S  337   5.996   6.745   9.624 -0.6957  1.1031  0.9941
    3SAPS  C217  338   6.032   6.851   9.448 -0.0820  0.4543  0.3306
    3SAPS  H17R  339   6.089   6.763   9.409  1.6021  1.3886  0.6040
    3SAPS  H17S  340   6.084   6.942   9.414  2.0029 -0.2932  1.3563
    3SAPS  C218  341   5.889   6.861   9.396  0.0812  0.2367  0.6829
    3SAPS  H18R  342   5.827   6.909   9.474 -1.9700  0.9376 -1.2378
    3SAPS  H18S  343   5.842   6.762   9.379 -0.2891  0.0816  2.4406
    3SAPS  C219  344   5.896   6.946   9.261  0.5649 -0.5258 -0.0789
    3SAPS  H19R  345   5.972   6.893   9.199 -0.5757 -2.0935 -0.1949
    3SAPS  H19S  346   5.921   7.051   9.288 -4.7587  0.9704  0.0510
    3SAPS  C220  347   5.758   6.946   9.194  0.1848 -0.6881 -0.3182
    3SAPS  H20R  348   5.769   7.025   9.116  0.4145 -0.4184 -0.0114
    3SAPS  H20S  349   5.679   6.984   9.262  1.7837  2.7119 -0.1698
    3SAPS  H20T  350   5.728   6.856   9.136 -0.9658  0.6189 -1.8842
    3SAPS   C33  351   6.047   5.864  10.105 -0.3637 -0.1285  0.5397
    3SAPS   H3X  352   6.122   5.926  10.158 -1.0547 -0.1744  1.6070
    3SAPS   H3Y  353   5.971   5.943  10.088  0.3466  0.4965  0.2277
    3SAPS   C34  354   6.108   5.826   9.971  0.6683  0.9879  0.3770
    3SAPS   H4X  355   6.023   5.776   9.921  0.8709  1.2455 -0.2363
    3SAPS   H4Y  356   6.195   5.759   9.992 -1.1328 -1.1643  1.3719
    3SAPS   C35  357   6.148   5.948   9.888 -0.4108 -0.3040 -0.1595
    3SAPS   H5X  358   6.231   6.002   9.938 -0.7169  0.5317 -0.5357
    3SAPS   H5Y  359   6.055   6.009   9.880 -0.5291 -0.4514  0.0571
    3SAPS   C36  360   6.187   5.930   9.737 -0.9964  0.4573 -0.7435
    3SAPS   H6X  361   6.277   5.868   9.717 -0.1805  1.6321 -0.8185
    3SAPS   H6Y  362   6.220   6.030   9.701  2.5244 -1.0552 -2.2289
    3SAPS   C37  363   6.061   5.881   9.654 -0.1247  0.0308  0.3124
    3SAPS   H7X  364   5.971   5.912   9.711  1.5567  2.3346  1.8503
    3SAPS   H7Y  365   6.064   5.770   9.648 -2.8746 -0.1499  1.1006
    3SAPS   C38  366   6.064   5.926   9.510  0.5031 -0.4289  0.8130
    3SAPS   H8X  367   6.122   5.850   9.453 -0.3304 -0.2996 -0.2447
    3SAPS   H8Y  368   6.106   6.029   9.505 -1.4754  0.3627 -1.0550
    3SAPS   C39  369   5.931   5.944   9.437  0.9971 -0.1884  0.5400
    3SAPS   H9X  370   5.957   5.966   9.331  0.1222 -0.8870  0.1644
    3SAPS   H9Y  371   5.870   6.025   9.481  1.6436 -0.2167  1.5266
    3SAPS  C310  372   5.839   5.818   9.436 -0.0390 -0.7322  0.4048
    3SAPS  H10X  373   5.743   5.857   9.396  0.4619 -0.5467 -0.6327
    3SAPS  H10Y  374   5.821   5.784   9.540  0.1852  0.6714  0.9266
    3SAPS  C311  375   5.891   5.695   9.359 -0.0859 -0.3164 -0.5491
    3SAPS  H11X  376   5.969   5.645   9.419 -2.3578 -3.7104 -0.1442
    3SAPS  H11Y  377   5.940   5.738   9.269  1.3351 -1.1154 -0.1829
    3SAPS  C312  378   5.785   5.585   9.338  0.1876 -0.1971  0.1203
    3SAPS  H12X  379   5.696   5.640   9.302  0.9124  1.5127  0.8623
    3SAPS  H12Y  380   5.750   5.542   9.434  0.9219  1.5975  1.2362
    3SAPS  C313  381   5.816   5.474   9.242 -0.6067  0.5066 -0.6348
    3SAPS  H13X  382   5.731   5.405   9.257 -0.1084  0.0343  0.1365
    3SAPS  H13Y  383   5.916   5.428   9.258 -0.6079 -0.0340 -2.0577
    3SAPS  C314  384   5.829   5.526   9.098  0.9125 -0.6513 -0.2519
    3SAPS  H14X  385   5.897   5.614   9.100  1.8086 -1.3283  2.3363
    3SAPS  H14Y  386   5.726   5.559   9.072  0.3684 -1.1152  1.2254
    3SAPS  C315  387   5.890   5.424   8.998 -0.4048  0.5974 -0.1502
    3SAPS  H15X  388   5.824   5.336   8.998  1.6096 -1.0381 -2.3345
    3SAPS  H15Y  389   5.986   5.389   9.042 -0.2838 -0.3963 -1.1717
    3SAPS  C316  390   5.918   5.485   8.863  0.1247 -0.2326 -0.2782
    3SAPS  H16X  391   6.005   5.554   8.861  1.5283 -1.9610 -1.4767
    3SAPS  H16Y  392   5.836   5.552   8.828  0.5179 -0.0886 -0.9476
    3SAPS  C317  393   5.947   5.376   8.756 -0.5915 -0.5217 -0.5923
    3SAPS  H17X  394   5.983   5.424   8.662 -4.1241 -0.2590 -1.9787
    3SAPS  H17Y  395   5.855   5.320   8.730  1.8006 -4.3724 -1.7112
    3SAPS  C318  396   6.041   5.266   8.811  0.0372 -0.0106 -0.1157
    3SAPS  H18X  397   5.987   5.211   8.891 -1.5458  2.4307  0.6385
    3SAPS  H18Y  398   6.135   5.308   8.854 -0.9890  0.3993  1.8531
    3SAPS  H18Z  399   6.066   5.194   8.731  0.3689  0.1899 -0.1945
    4SAPS     N  400   2.215   0.258  10.949 -0.2116  0.1167 -0.3484
    4SAPS   HN1  401   2.252   0.299  11.037 -1.4946 -1.0615  0.7992
    4SAPS   HN2  402   2.266   0.303  10.871  0.4136 -0.2023 -0.1233
    4SAPS   HN3  403   2.116   0.292  10.947 -0.6136 -0.8392  1.3434
    4SAPS   C12  404   2.235   0.113  10.953  0.5328 -0.1449  0.0263
    4SAPS  H12A  405   2.330   0.096  11.000 -0.1123 -1.4757  0.9072
    4SAPS   C13  406   2.147   0.029  11.053 -0.1845 -0.0493  0.3291
    4SAPS  O13A  407   2.086   0.099  11.140  0.0403  0.1823  0.2129
    4SAPS  O13B  408   2.172  -0.094  11.071 -0.5653 -0.6845 -0.5941
    4SAPS   C11  409   2.226   0.060  10.813 -0.6067 -1.0722 -0.2815
    4SAPS  H11A  410   2.236  -0.051  10.815 -0.9239 -1.1066 -0.4898
    4SAPS  H11B  411   2.305   0.102  10.747 -1.9915 -0.4402 -1.6016
    4SAPS     P  412   2.049   0.006  10.619 -0.1277  0.2200 -0.0542
    4SAPS   O13  413   2.096  -0.137  10.635 -0.6268  0.0285  0.4053
    4SAPS   O14  414   1.903   0.013  10.595  0.4934  0.3112 -0.8003
    4SAPS   O12  415   2.093   0.090  10.750  0.5594  0.1074  0.4451
    4SAPS   O11  416   2.130   0.072  10.499  0.3787  0.6387  0.5982
    4SAPS    C1  417   2.104   0.207  10.458 -0.3406  1.3623 -0.3142
    4SAPS    HA  418   2.025   0.260  10.516 -1.5786  2.0901 -2.5536
    4SAPS    HB  419   2.196   0.268  10.470  1.6948 -0.5911 -4.2609
    4SAPS    C2  420   2.061   0.220  10.314  0.1479  0.2458 -0.6598
    4SAPS    HS  421   2.011   0.319  10.305 -3.0629 -1.0854  1.1023
    4SAPS   O21  422   1.975   0.112  10.279 -0.0571 -0.6522 -0.4993
    4SAPS   C21  423   1.847   0.139  10.320 -0.1860  0.5866  0.3116
    4SAPS   O22  424   1.806   0.249  10.354 -0.3724 -0.0557 -0.1461
    4SAPS   C22  425   1.756   0.015  10.311  0.5134  0.0461  0.4345
    4SAPS   H2R  426   1.805  -0.064  10.372 -0.3118 -0.3207  0.6369
    4SAPS   H2S  427   1.660   0.041  10.359  0.2463  0.7339 -0.4314
    4SAPS    C3  428   2.171   0.225  10.207  0.4162  0.4915 -0.2281
    4SAPS    HX  429   2.241   0.150  10.249 -1.9853 -0.3099  2.7025
    4SAPS    HY  430   2.232   0.317  10.210 -0.7735  1.3412 -1.0503
    4SAPS   O31  431   2.119   0.196  10.073 -0.1795 -0.0193 -0.0769
    4SAPS   C31  432   2.076   0.307  10.017 -0.3237  0.4873 -0.0513
    4SAPS   O32  433   2.059   0.414  10.075 -0.3446  0.3052  0.4205
    4SAPS   C32  434   2.034   0.271   9.872 -0.4338  0.7291 -0.8282
    4SAPS   H2X  435   1.946   0.205   9.889  0.3884 -0.0102  0.8063
    4SAPS   H2Y  436   2.118   0.209   9.833 -0.2691 -0.2450  0.9670
    4SAPS   C23  437   1.737  -0.038  10.165 -0.6743  0.5323 -0.9670
    4SAPS   H3R  438   1.837  -0.038  10.118  0.3944  2.8530  1.0770
    4SAPS   H3S  439   1.678   0.025  10.095 -2.0657 -0.0922 -0.3981
    4SAPS   C24  440   1.669  -0.182  10.161 -0.1008  0.1349  0.3035
    4SAPS   H4R  441   1.731  -0.249  10.224 -0.5573 -2.7207 -2.0968
    4SAPS   H4S  442   1.677  -0.229  10.061 -1.2162 -0.3686  0.4412
    4SAPS   C25  443   1.530  -0.179  10.213  0.2042 -0.0455  0.3990
    4SAPS   H5R  444   1.508  -0.162  10.320 -1.0461 -2.7805  0.6633
    4SAPS   C26  445   1.417  -0.182  10.134  0.2535  0.1392  0.2590
    4SAPS   H6R  446   1.313  -0.171  10.167 -1.1552 -1.9513 -3.0349
    4SAPS   C27  447   1.411  -0.200   9.983  0.0603  0.3369  0.5132
    4SAPS   H7R  448   1.339  -0.271   9.937  1.0993  0.4361 -1.3605
    4SAPS   H7S  449   1.507  -0.239   9.942 -0.8666 -0.3365 -1.1078
    4SAPS   C28  450   1.365  -0.074   9.909 -1.5953  0.3142 -0.3946
    4SAPS   H8R  451   1.334   0.005   9.980  0.3598 -0.0423  0.9443
    4SAPS   C29  452   1.351  -0.051   9.777  1.3104 -0.4289 -0.1861
    4SAPS   H9R  453   1.323   0.052   9.749 -0.7966 -0.7794  0.3932
    4SAPS  C210  454   1.364  -0.141   9.651 -0.1402  0.1573  0.2648
    4SAPS  H10R  455   1.407  -0.239   9.680  0.1760 -0.1570 -1.1958
    4SAPS  H10S  456   1.442  -0.097   9.585 -1.6891  0.5930 -1.3544
    4SAPS  C211  457   1.229  -0.150   9.594  0.1894 -0.2093 -0.4195
    4SAPS  H11R  458   1.152  -0.144   9.672  1.3374 -2.2988  0.9746
    4SAPS  C212  459   1.195  -0.164   9.462  0.6421  0.2685  0.7430
    4SAPS  H12R  460   1.093  -0.171   9.424  0.6604 -1.9224  0.9460
    4SAPS  C213  461   1.300  -0.158   9.359 -0.6019 -0.1110  0.3488
    4SAPS  H13R  462   1.378  -0.232   9.384  0.7708  1.1078 -0.2242
    4SAPS  H13S  463   1.339  -0.054   9.355 -0.2704 -0.2316  0.4081
    4SAPS  C214  464   1.241  -0.190   9.226  0.6144  0.5412 -0.4124
    4SAPS  H14R  465   1.194  -0.290   9.217 -2.3012  1.7897 -0.1461
    4SAPS  C215  466   1.237  -0.113   9.116 -0.6354  0.1211  0.6366
    4SAPS  H15R  467   1.201  -0.157   9.022  0.7704 -0.3004  0.2718
    4SAPS  C216  468   1.292   0.027   9.104  0.2231  0.0268  0.4483
    4SAPS  H16R  469   1.353   0.057   9.191  1.8101 -1.4408 -0.0974
    4SAPS  H16S  470   1.210   0.102   9.096  1.7530  1.6336 -1.0573
    4SAPS  C217  471   1.370   0.064   8.977  0.3411 -0.2797  0.1208
    4SAPS  H17R  472   1.477   0.032   8.984  0.3305 -0.1837  0.7994
    4SAPS  H17S  473   1.376   0.175   8.982  1.5206 -0.2744 -0.7706
    4SAPS  C218  474   1.317   0.022   8.843 -0.4938  0.3055  0.0346
    4SAPS  H18R  475   1.210   0.044   8.820 -1.2618  0.2197  3.1466
    4SAPS  H18S  476   1.327  -0.088   8.852  1.0641  0.3062 -1.3129
    4SAPS  C219  477   1.404   0.070   8.727 -0.0576  0.6530  0.6766
    4SAPS  H19R  478   1.424   0.179   8.729 -0.7952  0.8418 -0.9240
    4SAPS  H19S  479   1.350   0.059   8.630  0.7796 -1.0600  0.3592
    4SAPS  C220  480   1.535  -0.016   8.705 -0.2151  0.0127 -0.0157
    4SAPS  H20R  481   1.505  -0.122   8.719  1.1309 -0.3624  0.1735
    4SAPS  H20S  482   1.612   0.012   8.781 -0.4264  2.4890 -0.6208
    4SAPS  H20T  483   1.579  -0.008   8.603 -2.1572 -3.2147 -1.2732
    4SAPS   C33  484   2.005   0.394   9.781 -0.2674 -0.0974  0.0229
    4SAPS   H3X  485   2.097   0.456   9.777  1.8209 -2.9960 -0.1577
    4SAPS   H3Y  486   1.927   0.460   9.824 -0.1350 -0.1977  0.4184
    4SAPS   C34  487   1.957   0.346   9.639  0.2148 -0.3927  0.5526
    4SAPS   H4X  488   1.870   0.280   9.657  1.1610 -1.5548  0.9807
    4SAPS   H4Y  489   2.033   0.278   9.595  0.6345  1.0466 -1.1109
    4SAPS   C35  490   1.935   0.461   9.541 -0.0264 -0.0996 -0.6431
    4SAPS   H5X  491   2.034   0.509   9.526 -0.3684  1.1163  0.6752
    4SAPS   H5Y  492   1.863   0.539   9.576 -0.5094 -1.1512  0.7974
    4SAPS   C36  493   1.875   0.402   9.409 -0.1322  0.0146 -0.1481
    4SAPS   H6X  494   1.772   0.363   9.426 -0.3963 -0.1273 -1.8298
    4SAPS   H6Y  495   1.948   0.321   9.389 -1.5077 -1.0810 -0.9654
    4SAPS   C37  496   1.867   0.498   9.293  0.0337 -0.3648  0.1809
    4SAPS   H7X  497   1.966   0.547   9.282  0.4548 -1.2727 -0.1912
    4SAPS   H7Y  498   1.791   0.577   9.310 -0.2042 -0.4602 -0.4140
    4SAPS   C38  499   1.837   0.427   9.150  0.4896  0.1959 -0.1464
    4SAPS   H8X  500   1.730   0.399   9.153  0.5501 -0.0322 -0.0904
    4SAPS   H8Y  501   1.890   0.330   9.136 -1.6516 -0.9000 -1.0602
    4SAPS   C39  502   1.860   0.526   9.039  0.0998 -0.2154 -0.2954
    4SAPS   H9X  503   1.956   0.578   9.061  0.6342 -1.0888 -0.4856
    4SAPS   H9Y  504   1.781   0.603   9.032 -0.5976 -0.8404  0.3948
    4SAPS  C310  505   1.877   0.459   8.904 -0.0494 -0.0983  0.2549
    4SAPS  H10X  506   1.798   0.382   8.889  0.4714 -0.4952 -0.5137
    4SAPS  H10Y  507   1.974   0.405   8.905 -0.5781 -1.0748  0.1146
    4SAPS  C311  508   1.875   0.550   8.786  0.3809 -0.0662 -0.6880
    4SAPS  H11X  509   1.974   0.600   8.779  0.4621  0.0022  0.6431
    4SAPS  H11Y  510   1.798   0.628   8.806  0.2006 -0.6095  0.8590
    4SAPS  C312  511   1.842   0.473   8.654 -0.2872  0.1828  0.0386
    4SAPS  H12X  512   1.910   0.385   8.648  0.4502  0.7566 -0.1228
    4SAPS  H12Y  513   1.882   0.532   8.569  2.7975 -0.9028  0.6207
    4SAPS  C313  514   1.700   0.436   8.629 -0.6339  0.1804  0.0092
    4SAPS  H13X  515   1.629   0.520   8.646 -1.5141 -0.3963 -0.7082
    4SAPS  H13Y  516   1.662   0.363   8.704 -0.2663 -0.8881 -0.8385
    4SAPS  C314  517   1.679   0.371   8.491  0.6551  0.0917  0.3949
    4SAPS  H14X  518   1.569   0.355   8.487  0.5628  0.2456  1.7840
    4SAPS  H14Y  519   1.722   0.269   8.482 -1.3524 -0.9499  1.7351
    4SAPS  C315  520   1.717   0.443   8.364 -0.1255 -0.3434  0.7824
    4SAPS  H15X  521   1.821   0.483   8.369 -0.4790  1.0311 -1.3794
    4SAPS  H15Y  522   1.662   0.539   8.361 -0.4504 -0.5564 -0.3370
    4SAPS  C316  523   1.690   0.372   8.231 -0.2469  0.1269  0.0113
    4SAPS  H16X  524   1.700   0.435   8.140 -0.4302 -0.5642 -0.4960
    4SAPS  H16Y  525   1.582   0.348   8.218 -0.2027  0.4007 -1.0115
    4SAPS  C317  526   1.786   0.255   8.211  0.0059  0.1515  0.1799
    4SAPS  H17X  527   1.778   0.169   8.282 -1.8097 -1.8924 -2.3002
    4SAPS  H17Y  528   1.888   0.299   8.216  0.2280 -0.3385  0.0592
    4SAPS  C318  529   1.760   0.193   8.075 -0.4545 -0.2223  0.2948
    4SAPS  H18X  530   1.653   0.165   8.062 -0.7534  0.6672  0.7703
    4SAPS  H18Y  531   1.828   0.106   8.061  2.1455  1.8978 -1.1870
    4SAPS  H18Z  532   1.780   0.265   7.993  0.3621  1.2133  1.7258
    5SAPS     N  533   0.067   6.333  11.158  0.0796 -0.3192 -0.3139
    5SAPS   HN1  534   0.138   6.297  11.225  0.7907 -2.6311 -2.1530
    5SAPS   HN2  535   0.100   6.419  11.111 -0.9166  0.4893  0.4325
    5SAPS   HN3  536  -0.021   6.356  11.207  0.1716  0.3183 -0.4455
    5SAPS   C12  537   0.048   6.231  11.049  0.0376  0.1316  0.2846
    5SAPS  H12A  538   0.063   6.281  10.954  0.6009  0.4130  0.5140
    5SAPS   C13  539   0.139   6.102  11.044 -0.1743 -0.4955  0.5477
    5SAPS  O13A  540   0.210   6.079  11.142  0.0795  0.3353 -0.3934
    5SAPS  O13B  541   0.129   6.025  10.948 -0.1813  0.3541 -0.0261
    5SAPS   C11  542  -0.109   6.198  11.041  0.0584  0.2412  1.2071
    5SAPS  H11A  543  -0.126   6.147  11.138 -0.1309 -2.3572 -0.1282
    5SAPS  H11B  544  -0.138   6.128  10.960 -1.5156  0.6549  1.3712
    5SAPS     P  545  -0.237   6.395  10.894 -0.0866  0.0275 -0.1251
    5SAPS   O13  546  -0.335   6.498  10.934 -0.0750 -0.0694  0.6124
    5SAPS   O14  547  -0.114   6.441  10.826 -0.4778  0.3176 -0.0897
    5SAPS   O12  548  -0.182   6.324  11.031 -0.1256 -0.1158  0.5072
    5SAPS   O11  549  -0.308   6.281  10.822 -0.5115  0.3961 -0.0556
    5SAPS    C1  550  -0.253   6.204  10.717 -0.0184  0.0356  0.0936
    5SAPS    HA  551  -0.142   6.204  10.709  0.1360 -3.1227  0.8745
    5SAPS    HB  552  -0.275   6.100  10.749 -0.7106 -0.0542 -0.6325
    5SAPS    C2  553  -0.323   6.229  10.584 -0.0574  0.2085 -0.1575
    5SAPS    HS  554  -0.302   6.141  10.519 -2.4656 -1.0624  0.6356
    5SAPS   O21  555  -0.277   6.353  10.524 -0.3712 -0.1216 -0.0169
    5SAPS   C21  556  -0.152   6.363  10.474  0.4829 -0.1742 -0.0206
    5SAPS   O22  557  -0.070   6.275  10.458  0.6140  0.1832 -0.1745
    5SAPS   C22  558  -0.129   6.509  10.428 -0.2408 -0.0024 -0.5059
    5SAPS   H2R  559  -0.227   6.540  10.387 -1.8641 -3.5209  0.3584
    5SAPS   H2S  560  -0.107   6.570  10.518 -0.9402 -1.3242  0.6068
    5SAPS    C3  561  -0.478   6.239  10.601  0.5532 -0.4926  0.4741
    5SAPS    HX  562  -0.493   6.304  10.689  5.3224 -0.5790  1.6035
    5SAPS    HY  563  -0.511   6.140  10.642 -1.7787  0.1496  0.3248
    5SAPS   O31  564  -0.538   6.283  10.478 -0.1713 -0.0684 -0.3732
    5SAPS   C31  565  -0.567   6.408  10.471  0.6366 -0.2356  0.0399
    5SAPS   O32  566  -0.546   6.494  10.557 -0.0101 -0.0507  0.7013
    5SAPS   C32  567  -0.649   6.435  10.340 -0.3391 -0.1095 -0.2723
    5SAPS   H2X  568  -0.632   6.366  10.254 -0.0479  0.0876 -0.3738
    5SAPS   H2Y  569  -0.614   6.535  10.307 -1.5411  0.4794  0.1973
    5SAPS   C23  570  -0.007   6.522  10.330 -0.9471  0.5738 -0.3310
    5SAPS   H3R  571   0.086   6.481  10.372 -0.3528 -0.0802 -2.1740
    5SAPS   H3S  572   0.019   6.630  10.320  0.3410  0.1512 -2.1952
    5SAPS   C24  573  -0.023   6.459  10.190  0.1923 -0.6080 -0.2228
    5SAPS   H4R  574  -0.110   6.514  10.150  0.7804 -0.2453 -1.0265
    5SAPS   H4S  575  -0.051   6.351  10.192  0.2396 -0.6297  2.0947
    5SAPS   C25  576   0.103   6.501  10.116 -0.5918  0.2998 -0.6990
    5SAPS   H5R  577   0.194   6.458  10.161 -0.2691 -2.4637 -3.6794
    5SAPS   C26  578   0.115   6.571  10.003  0.7362  0.0470  0.6990
    5SAPS   H6R  579   0.212   6.595   9.958  0.4282 -0.8592 -0.5052
    5SAPS   C27  580  -0.000   6.629   9.917  0.3339 -0.4332  0.1145
    5SAPS   H7R  581  -0.093   6.569   9.932 -0.8128  0.2960 -3.2650
    5SAPS   H7S  582   0.019   6.619   9.808  1.6576  1.7615  0.0966
    5SAPS   C28  583  -0.035   6.776   9.942 -0.2574 -0.3811  0.0582
    5SAPS   H8R  584  -0.005   6.810  10.042  0.2338 -0.4677 -0.0557
    5SAPS   C29  585  -0.091   6.862   9.848  0.0964  0.6984 -0.2168
    5SAPS   H9R  586  -0.106   6.963   9.891  0.6556  0.7274 -0.0940
    5SAPS  C210  587  -0.141   6.833   9.707  0.0490 -0.3509 -0.2980
    5SAPS  H10R  588  -0.248   6.803   9.705  0.6163 -2.7107  0.6868
    5SAPS  H10S  589  -0.085   6.754   9.654  0.8925  1.1329 -1.6969
    5SAPS  C211  590  -0.119   6.954   9.621 -0.1584  0.0155 -0.1289
    5SAPS  H11R  591  -0.072   7.039   9.672 -0.9986 -1.1770  2.8741
    5SAPS  C212  592  -0.170   6.962   9.497 -0.1470 -0.1865  0.2266
    5SAPS  H12R  593  -0.136   7.040   9.426  1.9209 -0.2913  1.0404
    5SAPS  C213  594  -0.251   6.856   9.434 -0.1269  0.3571 -0.0445
    5SAPS  H13R  595  -0.331   6.900   9.372  0.4109 -0.2203 -1.1717
    5SAPS  H13S  596  -0.301   6.798   9.515 -1.7069 -0.0274 -1.2438
    5SAPS  C214  597  -0.166   6.770   9.353 -0.9784  0.2576  0.1971
    5SAPS  H14R  598  -0.146   6.674   9.403 -2.0196 -0.2049 -0.2420
    5SAPS  C215  599  -0.125   6.790   9.227 -0.4686  0.1414  0.8027
    5SAPS  H15R  600  -0.050   6.719   9.190 -0.6517 -0.7321  2.0404
    5SAPS  C216  601  -0.161   6.904   9.134  0.8475 -0.0181 -0.4294
    5SAPS  H16R  602  -0.255   6.963   9.144  1.3617  1.1253 -1.9931
    5SAPS  H16S  603  -0.160   6.870   9.029  0.4394 -1.1322 -0.0815
    5SAPS  C217  604  -0.045   7.009   9.130  0.2983 -0.1222  0.3439
    5SAPS  H17R  605   0.054   6.960   9.124  0.9025  1.2399 -1.8329
    5SAPS  H17S  606  -0.056   7.066   9.224  1.9353  0.2960  0.2935
    5SAPS  C218  607  -0.052   7.112   9.023 -0.3398  0.4957  0.3233
    5SAPS  H18R  608  -0.155   7.132   8.985  0.6140 -0.2198 -3.0321
    5SAPS  H18S  609  -0.030   7.206   9.077 -0.1924 -0.2957  1.6629
    5SAPS  C219  610   0.042   7.091   8.910 -0.3268 -0.2018  0.8395
    5SAPS  H19R  611   0.031   6.988   8.870 -0.4382  0.2610 -0.3561
    5SAPS  H19S  612   0.149   7.103   8.940  0.2607 -1.4972 -0.5989
    5SAPS  C220  613   0.022   7.187   8.786 -0.1862 -0.9576  0.2012
    5SAPS  H20R  614   0.109   7.163   8.721  1.1772  1.3073  1.0927
    5SAPS  H20S  615   0.023   7.294   8.814  0.6288 -0.4160 -1.7341
    5SAPS  H20T  616  -0.069   7.164   8.727 -0.0195  1.3064 -1.0458
    5SAPS   C33  617  -0.801   6.460  10.359  0.3291 -0.2665 -0.4321
    5SAPS   H3X  618  -0.843   6.535  10.288 -0.6925 -0.2590  0.1722
    5SAPS   H3Y  619  -0.815   6.500  10.461 -0.1366  1.7961 -1.2403
    5SAPS   C34  620  -0.884   6.334  10.343  0.3960  0.3948  0.3322
    5SAPS   H4X  621  -0.992   6.350  10.363  0.7963  0.6107  2.5819
    5SAPS   H4Y  622  -0.864   6.263  10.426 -1.5932  0.2226  0.7033
    5SAPS   C35  623  -0.866   6.258  10.212 -0.5065 -0.0856  0.6472
    5SAPS   H5X  624  -0.930   6.167  10.215 -1.0808  0.1802 -1.7289
    5SAPS   H5Y  625  -0.761   6.225  10.202 -0.3174  0.6934  0.0142
    5SAPS   C36  626  -0.900   6.340  10.087  0.2111  0.4819  0.3378
    5SAPS   H6X  627  -0.840   6.434  10.094 -0.7505  1.0613  1.1541
    5SAPS   H6Y  628  -1.008   6.368  10.078  0.0900 -0.2979 -0.7910
    5SAPS   C37  629  -0.867   6.262   9.951  0.5280 -0.5471  0.2992
    5SAPS   H7X  630  -0.920   6.166   9.967  0.1047 -0.6947 -1.7151
    5SAPS   H7Y  631  -0.759   6.238   9.948  1.1537  1.4732  2.6729
    5SAPS   C38  632  -0.903   6.340   9.824 -0.5034  0.5394  0.0262
    5SAPS   H8X  633  -0.861   6.440   9.845  0.8173 -0.5788  3.5604
    5SAPS   H8Y  634  -1.012   6.345   9.804 -0.3765  0.6209 -0.6623
    5SAPS   C39  635  -0.835   6.269   9.708 -0.0438  0.3272 -0.4329
    5SAPS   H9X  636  -0.865   6.170   9.667  0.1417  0.7767 -1.6826
    5SAPS   H9Y  637  -0.728   6.258   9.735 -0.2523  0.5835  0.5286
    5SAPS  C310  638  -0.855   6.363   9.590 -0.4212 -0.2568  0.8612
    5SAPS  H10X  639  -0.834   6.468   9.620 -0.7646  0.5601 -1.5247
    5SAPS  H10Y  640  -0.957   6.355   9.548 -1.6535 -1.4555  3.8412
    5SAPS  C311  641  -0.767   6.330   9.467 -0.4718  0.0926 -0.8412
    5SAPS  H11X  642  -0.793   6.232   9.420 -2.6238  0.9547 -1.5704
    5SAPS  H11Y  643  -0.666   6.323   9.513 -0.7840 -0.1463 -0.1826
    5SAPS  C312  644  -0.789   6.434   9.354  0.2166  0.2803 -0.1340
    5SAPS  H12X  645  -0.780   6.531   9.408  0.8123  0.8650 -1.2493
    5SAPS  H12Y  646  -0.893   6.415   9.319  0.1988  0.7103 -0.3186
    5SAPS  C313  647  -0.697   6.439   9.227  0.0318  0.0034  0.7624
    5SAPS  H13X  648  -0.593   6.470   9.254  0.0253  1.8492 -1.1178
    5SAPS  H13Y  649  -0.739   6.514   9.157 -2.9061 -1.1755  1.1212
    5SAPS  C314  650  -0.698   6.307   9.141  0.6724 -0.4273 -0.2375
    5SAPS  H14X  651  -0.795   6.299   9.088  1.2894 -0.9788 -1.3020
    5SAPS  H14Y  652  -0.686   6.216   9.203 -0.2086 -0.1317  0.4065
    5SAPS  C315  653  -0.597   6.304   9.030 -0.8903 -0.3675  0.6622
    5SAPS  H15X  654  -0.627   6.213   8.974  1.2687  1.1892 -3.4743
    5SAPS  H15Y  655  -0.498   6.299   9.079  0.2899  0.3184 -1.5009
    5SAPS  C316  656  -0.609   6.432   8.938  0.7652 -0.4692  0.0186
    5SAPS  H16X  657  -0.590   6.525   8.996 -2.0145  0.0878  0.1552
    5SAPS  H16Y  658  -0.706   6.451   8.886  0.6663  1.1206  0.7262
    5SAPS  C317  659  -0.499   6.439   8.835 -0.2323  0.5240 -0.2718
    5SAPS  H17X  660  -0.511   6.516   8.755  1.8806  0.5585 -0.6326
    5SAPS  H17Y  661  -0.487   6.345   8.777 -0.8288  0.8973 -1.0171
    5SAPS  C318  662  -0.364   6.474   8.895  0.3463 -0.2245  0.3092
    5SAPS  H18X  663  -0.283   6.477   8.819  0.5953  2.0544  0.5954
    5SAPS  H18Y  664  -0.345   6.387   8.963 -1.4783 -1.0923 -0.2174
    5SAPS  H18Z  665  -0.361   6.575   8.941  2.6033 -0.3841  0.6407
    6SAPS     N  666   4.472   4.608  11.002 -0.3563  0.1954  0.4243
    6SAPS   HN1  667   4.460   4.532  11.072 -1.5397  2.1284  2.4368
    6SAPS   HN2  668   4.386   4.665  11.016 -1.9595 -2.5201  2.8027
    6SAPS   HN3  669   4.473   4.564  10.908  1.6271  0.0183  0.4815
    6SAPS   C12  670   4.601   4.682  11.017  0.0642  0.3403  0.1360
    6SAPS  H12A  671   4.580   4.738  11.107  2.4227 -1.5808  2.0356
    6SAPS   C13  672   4.719   4.589  11.048  0.4671 -0.1872 -0.0733
    6SAPS  O13A  673   4.705   4.464  11.052 -0.0893  0.1087  0.3050
    6SAPS  O13B  674   4.827   4.644  11.072 -0.5813  0.8005 -0.5205
    6SAPS   C11  675   4.633   4.761  10.890  0.3680 -0.0274  0.0442
    6SAPS  H11A  676   4.627   4.695  10.801 -0.2363  1.7635 -1.2951
    6SAPS  H11B  677   4.735   4.805  10.893  0.1550  1.0216 -3.5445
    6SAPS     P  678   4.577   4.995  10.779  0.1932 -0.5528 -0.3930
    6SAPS   O13  679   4.468   5.014  10.686  0.0911 -0.0211  0.3363
    6SAPS   O14  680   4.616   5.106  10.875  0.2763  0.3958  0.2513
    6SAPS   O12  681   4.542   4.867  10.866 -0.1569 -0.2635 -0.0678
    6SAPS   O11  682   4.702   4.951  10.696  0.0709 -0.1564 -0.4899
    6SAPS    C1  683   4.837   4.986  10.711 -0.7590 -0.0059  0.1290
    6SAPS    HA  684   4.853   5.095  10.704 -0.5688 -0.1160 -1.2864
    6SAPS    HB  685   4.878   4.954  10.809 -1.0362 -0.1165  0.2107
    6SAPS    C2  686   4.928   4.931  10.594  0.1815 -0.5683  0.2325
    6SAPS    HS  687   5.028   4.978  10.598 -0.2246  0.2777  0.6911
    6SAPS   O21  688   4.868   4.963  10.465  0.3536  0.1394  0.6090
    6SAPS   C21  689   4.827   5.085  10.431  0.0747  0.1794 -0.2967
    6SAPS   O22  690   4.859   5.185  10.491 -0.6596 -0.2126 -0.3454
    6SAPS   C22  691   4.741   5.088  10.305 -0.3596  0.3711 -1.0988
    6SAPS   H2R  692   4.671   5.003  10.313 -0.3357  0.4820  0.7118
    6SAPS   H2S  693   4.674   5.176  10.296 -1.6332 -0.3087  1.0065
    6SAPS    C3  694   4.938   4.775  10.600  0.2069  0.3563 -0.8330
    6SAPS    HX  695   4.836   4.731  10.606  0.0151  0.8996  0.0599
    6SAPS    HY  696   4.986   4.734  10.691 -2.2554 -2.2435 -0.5509
    6SAPS   O31  697   5.010   4.736  10.483  0.2252  0.5275 -0.3851
    6SAPS   C31  698   4.944   4.685  10.380  0.5751  0.4503  0.2824
    6SAPS   O32  699   4.821   4.672  10.373 -0.3358 -0.3781 -0.5329
    6SAPS   C32  700   5.037   4.650  10.256  0.3552  0.6813 -0.5604
    6SAPS   H2X  701   4.999   4.551  10.223  2.8264 -0.6277  0.3146
    6SAPS   H2Y  702   5.144   4.648  10.284  0.2324  0.8332 -0.0715
    6SAPS   C23  703   4.828   5.073  10.178  0.4546  0.7164  0.4371
    6SAPS   H3R  704   4.894   4.985  10.192  0.2256  0.7217  1.5846
    6SAPS   H3S  705   4.890   5.164  10.163 -0.0183  0.7875 -1.3445
    6SAPS   C24  706   4.740   5.061  10.049  0.2283 -0.0129 -0.0671
    6SAPS   H4R  707   4.727   5.168  10.024  0.4931  0.4209  1.5222
    6SAPS   H4S  708   4.646   5.011  10.082 -0.2832  0.4533 -0.7747
    6SAPS   C25  709   4.814   5.000   9.932 -0.2667  0.2414 -0.7102
    6SAPS   H5R  710   4.912   4.970   9.972 -0.2967  2.0607  0.8625
    6SAPS   C26  711   4.788   4.980   9.805  0.2077  0.8225 -0.4896
    6SAPS   H6R  712   4.867   4.942   9.739 -1.6526 -1.6755 -1.4842
    6SAPS   C27  713   4.656   5.004   9.735 -0.6383 -0.1931 -0.6733
    6SAPS   H7R  714   4.688   5.087   9.669  2.1718 -1.5311 -1.1553
    6SAPS   H7S  715   4.582   5.043   9.808  1.5063  0.2159  1.4254
    6SAPS   C28  716   4.595   4.888   9.661 -0.0061  0.5059 -0.3096
    6SAPS   H8R  717   4.565   4.802   9.724  3.2542  1.0762  2.3560
    6SAPS   C29  718   4.593   4.866   9.530 -0.9332  0.0934 -0.0643
    6SAPS   H9R  719   4.540   4.772   9.508  0.0133 -0.1197 -1.5362
    6SAPS  C210  720   4.645   4.954   9.417 -0.1662 -0.3365 -0.7557
    6SAPS  H10R  721   4.679   5.051   9.458 -0.7071 -0.4377 -0.0502
    6SAPS  H10S  722   4.563   4.971   9.345 -0.0597  0.2474 -0.7391
    6SAPS  C211  723   4.766   4.887   9.354  0.0632 -0.3554  0.2077
    6SAPS  H11R  724   4.762   4.779   9.332  1.5785 -0.5604  0.7635
    6SAPS  C212  725   4.861   4.953   9.290 -0.5841  0.3699 -0.2930
    6SAPS  H12R  726   4.941   4.893   9.244 -1.2654 -0.6515 -0.1789
    6SAPS  C213  727   4.877   5.105   9.274 -0.4154  0.1150 -0.3621
    6SAPS  H13R  728   4.948   5.123   9.358 -1.6509 -0.1043  0.7529
    6SAPS  H13S  729   4.782   5.162   9.285 -0.1942  0.5500 -0.6447
    6SAPS  C214  730   4.948   5.131   9.144 -0.1838  0.4812 -0.3409
    6SAPS  H14R  731   5.055   5.153   9.157 -0.5750  2.0910  0.3073
    6SAPS  C215  732   4.897   5.115   9.019 -0.4219  0.3939 -0.1174
    6SAPS  H15R  733   4.961   5.138   8.933  0.8190  3.0573  1.3828
    6SAPS  C216  734   4.747   5.089   8.988  0.3005 -0.2560  0.1888
    6SAPS  H16R  735   4.694   5.114   9.082  0.3823  0.5672  0.0180
    6SAPS  H16S  736   4.731   4.983   8.957  0.1822  0.7820 -3.9396
    6SAPS  C217  737   4.690   5.162   8.861  0.9379 -0.4605  0.1862
    6SAPS  H17R  738   4.580   5.143   8.859  0.7826  0.3505 -2.2547
    6SAPS  H17S  739   4.723   5.119   8.765 -0.5894  0.6984 -0.9024
    6SAPS  C218  740   4.710   5.309   8.867 -0.2350 -1.1418  0.5604
    6SAPS  H18R  741   4.815   5.328   8.838 -0.9130 -1.1565 -2.1334
    6SAPS  H18S  742   4.689   5.357   8.966  0.8387  1.6243 -0.4631
    6SAPS  C219  743   4.626   5.383   8.760 -0.9021  0.1992 -0.2462
    6SAPS  H19R  744   4.671   5.363   8.661 -0.0737 -0.0283  0.1708
    6SAPS  H19S  745   4.638   5.492   8.775  1.7578  0.2641 -2.2056
    6SAPS  C220  746   4.474   5.367   8.755 -0.1875 -0.3494  0.5071
    6SAPS  H20R  747   4.419   5.426   8.678 -0.8845  2.2602  2.8078
    6SAPS  H20S  748   4.435   5.394   8.855  1.5521 -1.4888  1.5334
    6SAPS  H20T  749   4.442   5.263   8.735  0.1944 -0.5495  0.9358
    6SAPS   C33  750   5.028   4.739  10.131  0.4713  0.1936  0.1912
    6SAPS   H3X  751   5.054   4.843  10.160  1.0333 -0.3044  1.5429
    6SAPS   H3Y  752   4.926   4.738  10.086  0.8225  0.1907 -0.6313
    6SAPS   C34  753   5.134   4.697  10.023 -0.2174 -0.1246 -0.2107
    6SAPS   H4X  754   5.136   4.587  10.013 -1.7816 -0.0896 -1.2292
    6SAPS   H4Y  755   5.239   4.730  10.038 -0.1941 -0.8753  1.4673
    6SAPS   C35  756   5.088   4.766   9.886 -0.0947 -0.2456 -0.5136
    6SAPS   H5X  757   5.114   4.874   9.889  1.0571 -0.5330  1.1764
    6SAPS   H5Y  758   4.979   4.758   9.866 -0.1937  0.3918 -0.2416
    6SAPS   C36  759   5.156   4.687   9.774  0.0936 -0.8582 -0.1308
    6SAPS   H6X  760   5.132   4.578   9.780  0.7549 -0.9304  3.6782
    6SAPS   H6Y  761   5.267   4.690   9.775  0.0846  1.5542  1.0958
    6SAPS   C37  762   5.117   4.747   9.636  1.1768  0.2025  0.2036
    6SAPS   H7X  763   5.109   4.858   9.644  1.6276  0.6052 -3.2547
    6SAPS   H7Y  764   5.016   4.708   9.612  0.2962  1.1311  2.1619
    6SAPS   C38  765   5.207   4.689   9.523 -0.5679 -0.1785  0.0085
    6SAPS   H8X  766   5.218   4.579   9.536  1.6471  0.0830  0.8823
    6SAPS   H8Y  767   5.308   4.734   9.531 -0.6631  0.4609 -1.7957
    6SAPS   C39  768   5.176   4.738   9.379  1.2771  0.5603 -0.6141
    6SAPS   H9X  769   5.164   4.848   9.384  1.8460  0.6205 -0.4868
    6SAPS   H9Y  770   5.083   4.694   9.337  1.4492 -1.2936  0.7810
    6SAPS  C310  771   5.286   4.699   9.285 -0.0786  0.1086 -0.3534
    6SAPS  H10X  772   5.325   4.596   9.297  0.4899  0.4692  1.0774
    6SAPS  H10Y  773   5.369   4.758   9.330  0.0007 -0.5934  0.4543
    6SAPS  C311  774   5.263   4.742   9.141  0.4317  0.2363  0.3449
    6SAPS  H11X  775   5.224   4.843   9.120 -0.9363 -0.4941 -0.8573
    6SAPS  H11Y  776   5.189   4.673   9.095 -0.5979  2.1117 -0.9383
    6SAPS  C312  777   5.398   4.725   9.060  0.3295  0.3763  0.0898
    6SAPS  H12X  778   5.415   4.617   9.041 -1.4156  0.0543  0.2313
    6SAPS  H12Y  779   5.487   4.771   9.110  0.6021  0.0842 -0.1239
    6SAPS  C313  780   5.390   4.786   8.915  0.2502  0.4804 -0.0408
    6SAPS  H13X  781   5.478   4.750   8.858 -0.2046  2.0374 -1.8029
    6SAPS  H13Y  782   5.399   4.895   8.933 -1.2067  0.7478 -0.7564
    6SAPS  C314  783   5.264   4.760   8.832 -0.2468 -0.2023 -0.0680
    6SAPS  H14X  784   5.230   4.667   8.882  0.2385  0.0592  0.7731
    6SAPS  H14Y  785   5.279   4.740   8.723  0.2344 -0.4048  0.0300
    6SAPS  C315  786   5.165   4.887   8.823  0.1807  0.1851  0.0439
    6SAPS  H15X  787   5.224   4.979   8.803  2.1795 -1.0928 -0.2413
    6SAPS  H15Y  788   5.107   4.899   8.917  0.6316  0.0538  0.3424
    6SAPS  C316  789   5.062   4.886   8.706  0.2522  0.0315  0.4942
    6SAPS  H16X  790   5.113   4.917   8.612 -1.9514  1.3519 -0.3133
    6SAPS  H16Y  791   4.992   4.969   8.728  1.2919  0.9664  0.4030
    6SAPS  C317  792   4.985   4.756   8.694 -0.5908 -0.0800  0.7070
    6SAPS  H17X  793   4.963   4.708   8.792 -1.1703 -0.6870  0.2886
    6SAPS  H17Y  794   5.037   4.679   8.634  1.4900  0.9272  1.1338
    6SAPS  C318  795   4.854   4.775   8.637  0.3405 -0.4708 -0.1695
    6SAPS  H18X  796   4.788   4.842   8.696  1.4231  0.3388  0.1469
    6SAPS  H18Y  797   4.797   4.680   8.629 -0.4094 -0.0491  0.0896
    6SAPS  H18Z  798   4.857   4.816   8.534 -1.3148  0.9231  0.2861
    7SAPS     N  799   6.243   5.224  10.735 -0.4972  0.4830 -0.0767
    7SAPS   HN1  800   6.146   5.196  10.758 -0.6642  2.3203  1.8476
    7SAPS   HN2  801   6.273   5.298  10.803  0.1040  1.6063 -1.5174
    7SAPS   HN3  802   6.245   5.254  10.636 -3.2052  0.0164 -0.3472
    7SAPS   C12  803   6.340   5.116  10.760 -0.0686  0.0038  0.4703
    7SAPS  H12A  804   6.435   5.167  10.757 -0.6156  1.0976  1.1231
    7SAPS   C13  805   6.320   5.044  10.903 -1.0306  0.0477  0.3785
    7SAPS  O13A  806   6.259   5.112  10.989 -0.1907 -0.3638 -0.4594
    7SAPS  O13B  807   6.397   4.949  10.930  0.3127 -0.0081  0.0379
    7SAPS   C11  808   6.338   5.008  10.648 -0.1318 -1.2389  0.2206
    7SAPS  H11A  809   6.433   4.956  10.673 -0.2530 -0.7011  1.8833
    7SAPS  H11B  810   6.347   5.056  10.548  0.3059  1.1687  1.3231
    7SAPS     P  811   6.222   4.787  10.574 -0.2960  0.3520 -0.1609
    7SAPS   O13  812   6.349   4.720  10.605 -0.0688 -0.0077 -0.0364
    7SAPS   O14  813   6.092   4.723  10.594  0.3520  0.3331  0.3298
    7SAPS   O12  814   6.226   4.924  10.657 -0.4088  1.0968 -0.4914
    7SAPS   O11  815   6.246   4.840  10.425  0.4979 -0.0054  0.5848
    7SAPS    C1  816   6.338   4.774  10.334  0.1250 -0.5021  0.2308
    7SAPS    HA  817   6.332   4.664  10.346 -0.2292 -0.3201  2.0302
    7SAPS    HB  818   6.304   4.796  10.230  2.0874 -0.2731 -0.4136
    7SAPS    C2  819   6.478   4.837  10.332 -0.8766 -0.7323 -0.6963
    7SAPS    HS  820   6.501   4.850  10.440 -0.5646  1.3204 -0.9881
    7SAPS   O21  821   6.473   4.963  10.270 -0.5552  0.2439  0.9225
    7SAPS   C21  822   6.563   5.047  10.313  0.6062 -0.1258  0.0803
    7SAPS   O22  823   6.637   5.034  10.406 -0.2805 -0.3470  0.0920
    7SAPS   C22  824   6.555   5.169  10.217 -0.0417  0.2424  0.7636
    7SAPS   H2R  825   6.461   5.163  10.158  0.1453  1.0307  0.3728
    7SAPS   H2S  826   6.541   5.267  10.266  1.0287  1.8327 -1.9088
    7SAPS    C3  827   6.584   4.745  10.274  0.0765  0.1495 -0.1714
    7SAPS    HX  828   6.577   4.655  10.339  0.4728  1.2570  1.4705
    7SAPS    HY  829   6.686   4.779  10.301 -0.5637 -0.6259  3.8508
    7SAPS   O31  830   6.563   4.721  10.138  0.1016 -0.4874  0.0910
    7SAPS   C31  831   6.635   4.625  10.097  0.1431  0.8707  0.4186
    7SAPS   O32  832   6.722   4.566  10.153  0.0644 -0.0249  0.0921
    7SAPS   C32  833   6.594   4.567   9.966  1.6231 -0.1401 -0.7470
    7SAPS   H2X  834   6.484   4.575   9.975  1.5051  0.7172 -2.5080
    7SAPS   H2Y  835   6.622   4.460   9.958  0.6961 -0.2447 -3.9436
    7SAPS   C23  836   6.694   5.183  10.148  0.1602  0.3824  0.5561
    7SAPS   H3R  837   6.721   5.094  10.088 -1.3170 -0.4760  1.1199
    7SAPS   H3S  838   6.779   5.197  10.218 -0.6129 -0.1730  1.6281
    7SAPS   C24  839   6.706   5.307  10.050 -0.1557  0.9259  0.2626
    7SAPS   H4R  840   6.625   5.301   9.974  0.0798  2.3590 -0.1290
    7SAPS   H4S  841   6.804   5.291  10.001  0.7842 -1.5360  2.7038
    7SAPS   C25  842   6.714   5.439  10.119  0.3629 -0.4907 -0.2902
    7SAPS   H5R  843   6.809   5.462  10.170  0.4687 -2.0024  0.2238
    7SAPS   C26  844   6.618   5.530  10.118 -0.0750  0.5634 -0.0753
    7SAPS   H6R  845   6.631   5.625  10.173  0.4386 -1.2049  3.0692
    7SAPS   C27  846   6.480   5.524  10.041 -0.1575 -0.1099 -0.4724
    7SAPS   H7R  847   6.403   5.551  10.117  0.4219 -0.7191  0.3536
    7SAPS   H7S  848   6.460   5.428   9.989 -0.4387  0.0501 -0.6659
    7SAPS   C28  849   6.479   5.639   9.943  0.1957 -0.7633  0.7920
    7SAPS   H8R  850   6.437   5.735   9.974 -1.5056 -0.2374 -2.6395
    7SAPS   C29  851   6.523   5.636   9.821  0.2867 -0.0066 -0.0759
    7SAPS   H9R  852   6.509   5.728   9.763 -0.3793  0.5430  0.9267
    7SAPS  C210  853   6.586   5.515   9.753  0.4991 -0.0982 -0.4231
    7SAPS  H10R  854   6.527   5.490   9.662  1.9504  0.3721 -1.5403
    7SAPS  H10S  855   6.580   5.424   9.815  1.2750 -0.2329 -0.5339
    7SAPS  C211  856   6.727   5.528   9.704  0.2635 -0.0803  0.1589
    7SAPS  H11R  857   6.796   5.556   9.785  0.2295  0.5151 -0.0115
    7SAPS  C212  858   6.774   5.515   9.577 -0.0830  0.4828  0.1982
    7SAPS  H12R  859   6.884   5.513   9.567  0.1626 -1.3103  2.5185
    7SAPS  C213  860   6.701   5.476   9.451  0.1096  0.2310  0.0673
    7SAPS  H13R  861   6.616   5.407   9.470  1.1413 -1.3419 -0.8059
    7SAPS  H13S  862   6.766   5.420   9.380 -0.4570  1.4853 -1.5183
    7SAPS  C214  863   6.634   5.587   9.383 -0.2204 -1.0867  0.3173
    7SAPS  H14R  864   6.534   5.625   9.410 -0.2343 -0.8425 -0.0655
    7SAPS  C215  865   6.691   5.654   9.270 -1.0242 -0.0777 -0.6622
    7SAPS  H15R  866   6.620   5.722   9.221 -0.2911  2.3491  1.4305
    7SAPS  C216  867   6.823   5.621   9.204 -0.3507 -0.0360  0.4023
    7SAPS  H16R  868   6.891   5.565   9.273 -0.4498 -1.6629 -0.7603
    7SAPS  H16S  869   6.869   5.719   9.178  1.3370 -1.2431 -1.4987
    7SAPS  C217  870   6.822   5.531   9.082 -0.5796 -0.2158  0.3829
    7SAPS  H17R  871   6.771   5.437   9.111  1.2652 -1.4585 -0.1852
    7SAPS  H17S  872   6.926   5.497   9.064 -1.1544 -0.6883 -2.4668
    7SAPS  C218  873   6.759   5.582   8.954  0.0916  0.0852 -0.0528
    7SAPS  H18R  874   6.802   5.681   8.925 -1.9756  1.7739  2.2332
    7SAPS  H18S  875   6.652   5.589   8.983 -0.0888 -0.0048 -0.6867
    7SAPS  C219  876   6.775   5.476   8.845  0.6298  0.2788 -0.1910
    7SAPS  H19R  877   6.691   5.489   8.773 -0.8670 -0.6041  1.3154
    7SAPS  H19S  878   6.768   5.371   8.882 -2.7928  0.0029 -1.2338
    7SAPS  C220  879   6.903   5.484   8.763  0.2325 -0.8478 -0.2748
    7SAPS  H20R  880   6.924   5.588   8.730  0.9912 -0.9444 -0.1205
    7SAPS  H20S  881   6.901   5.412   8.678  0.2207  0.9018 -1.8093
    7SAPS  H20T  882   6.989   5.448   8.825  1.5729  0.3205 -1.3804
    7SAPS   C33  883   6.630   4.652   9.841 -0.1192  0.4630 -0.2610
    7SAPS   H3X  884   6.621   4.762   9.855 -0.6450  0.4748 -0.6913
    7SAPS   H3Y  885   6.563   4.615   9.760 -0.8962 -2.0031  1.3802
    7SAPS   C34  886   6.772   4.617   9.794  0.1203  0.6739 -0.8145
    7SAPS   H4X  887   6.786   4.507   9.796 -2.2499  0.1790  3.8671
    7SAPS   H4Y  888   6.846   4.658   9.866 -0.0337 -2.3669  1.2674
    7SAPS   C35  889   6.797   4.667   9.646  0.1254  0.3257 -0.3488
    7SAPS   H5X  890   6.757   4.771   9.640 -0.2403  0.1974 -0.1858
    7SAPS   H5Y  891   6.723   4.607   9.589  0.8790 -0.1050 -0.8837
    7SAPS   C36  892   6.941   4.641   9.593  0.8104  0.7648  0.4063
    7SAPS   H6X  893   6.983   4.541   9.618  1.2811  0.8498 -0.0189
    7SAPS   H6Y  894   7.013   4.716   9.632  0.2075  2.1260 -1.0118
    7SAPS   C37  895   6.958   4.667   9.443 -0.5126 -0.0213  0.1803
    7SAPS   H7X  896   6.948   4.778   9.436  0.5279 -0.0120 -2.0694
    7SAPS   H7Y  897   6.879   4.612   9.386 -1.0595  2.1114 -1.2706
    7SAPS   C38  898   7.099   4.628   9.391 -0.7131  0.4910 -0.3218
    7SAPS   H8X  899   7.116   4.520   9.408 -1.1108  0.1102 -2.1274
    7SAPS   H8Y  900   7.168   4.698   9.443  0.2385  0.1673 -1.1337
    7SAPS   C39  901   7.134   4.645   9.244  0.6329 -0.0667  0.8016
    7SAPS   H9X  902   7.085   4.734   9.199 -0.9132  0.4754  3.3586
    7SAPS   H9Y  903   7.102   4.555   9.187 -1.1687 -0.2524  2.0208
    7SAPS  C310  904   7.290   4.655   9.216  0.0046 -0.5297 -0.0770
    7SAPS  H10X  905   7.334   4.559   9.180  0.3715 -0.5810  0.4868
    7SAPS  H10Y  906   7.352   4.670   9.307  0.0636 -0.0203 -0.2000
    7SAPS  C311  907   7.326   4.766   9.121 -0.0682 -0.1513  0.4607
    7SAPS  H11X  908   7.434   4.787   9.136  0.6492 -2.2018 -1.3038
    7SAPS  H11Y  909   7.262   4.854   9.141 -0.1017 -0.1447  0.3280
    7SAPS  C312  910   7.292   4.722   8.973 -0.1787 -0.4681 -0.7556
    7SAPS  H12X  911   7.191   4.676   8.964 -0.8093  0.9673 -1.4698
    7SAPS  H12Y  912   7.348   4.629   8.951  1.8689  0.9466 -1.9309
    7SAPS  C313  913   7.303   4.835   8.870  0.2337  0.0313  0.0067
    7SAPS  H13X  914   7.278   4.934   8.913  0.2520 -0.3212  0.8539
    7SAPS  H13Y  915   7.231   4.825   8.786  0.3796 -2.7846  0.1176
    7SAPS  C314  916   7.438   4.850   8.796 -0.2635 -0.2337  0.4147
    7SAPS  H14X  917   7.454   4.762   8.729  0.6341 -1.1651  1.8132
    7SAPS  H14Y  918   7.526   4.843   8.863  1.1008  1.2259 -1.1461
    7SAPS  C315  919   7.445   4.981   8.711 -0.1678  0.3335 -0.3356
    7SAPS  H15X  920   7.429   5.063   8.784 -0.2008  0.2332 -0.2294
    7SAPS  H15Y  921   7.367   4.980   8.631 -1.8159  0.4928  1.2182
    7SAPS  C316  922   7.582   4.991   8.643 -0.2248 -0.3969 -0.3503
    7SAPS  H16X  923   7.670   4.973   8.708  0.4517 -0.1897 -1.1799
    7SAPS  H16Y  924   7.589   5.093   8.600 -1.0646  0.6819  1.9213
    7SAPS  C317  925   7.616   4.887   8.529  0.2397 -0.9358 -0.6940
    7SAPS  H17X  926   7.611   4.784   8.571 -0.5662 -1.4518 -1.9971
    7SAPS  H17Y  927   7.720   4.890   8.491  0.6365 -1.5438  0.2928
    7SAPS  C318  928   7.525   4.885   8.406 -0.0372  0.0307  0.3875
    7SAPS  H18X  929   7.515   4.985   8.359 -1.3871 -0.1070  0.3302
    7SAPS  H18Y  930   7.420   4.865   8.439  0.2739 -0.7628  0.9305
    7SAPS  H18Z  931   7.566   4.810   8.335 -1.5172 -1.6223  1.1788
    8SAPS     N  932   5.179   6.171  11.066  0.1056 -0.3215  0.5999
    8SAPS   HN1  933   5.197   6.264  11.108  0.8736  0.4495 -1.3058
    8SAPS   HN2  934   5.268   6.116  11.068 -0.7392 -1.7410  0.2678
    8SAPS   HN3  935   5.160   6.190  10.965 -1.8526  0.1720  1.0202
    8SAPS   C12  936   5.073   6.108  11.152  0.4818  0.1660 -0.8822
    8SAPS  H12A  937   5.004   6.059  11.084 -0.3397  0.0507  0.0187
    8SAPS   C13  938   5.142   6.007  11.255  0.1958 -0.3838 -0.6497
    8SAPS  O13A  939   5.261   5.973  11.238 -0.6393 -0.1752 -0.0673
    8SAPS  O13B  940   5.070   5.950  11.342 -0.0988  0.3533  0.1411
    8SAPS   C11  941   4.992   6.209  11.236  0.1994  0.3827 -0.5003
    8SAPS  H11A  942   5.056   6.242  11.320 -1.0864  0.7451  0.3661
    8SAPS  H11B  943   4.907   6.148  11.273 -0.0764  0.1359 -1.5167
    8SAPS     P  944   4.915   6.455  11.196  0.2936 -0.1898 -0.1314
    8SAPS   O13  945   4.786   6.478  11.268  0.2566 -0.2298  0.0309
    8SAPS   O14  946   5.043   6.513  11.241  0.1716 -0.6526 -0.1960
    8SAPS   O12  947   4.935   6.310  11.156 -0.5982  0.2230  0.2390
    8SAPS   O11  948   4.895   6.506  11.048  0.2160  0.0621  0.8628
    8SAPS    C1  949   4.812   6.448  10.949  0.0295  0.3033  0.1432
    8SAPS    HA  950   4.862   6.362  10.900 -0.8627 -0.3750  0.4198
    8SAPS    HB  951   4.710   6.422  10.982 -0.3123 -2.2325 -2.5315
    8SAPS    C2  952   4.791   6.550  10.828 -0.2963 -0.5295 -0.8174
    8SAPS    HS  953   4.757   6.491  10.740  3.4705 -0.6712 -2.3640
    8SAPS   O21  954   4.916   6.617  10.805  0.0897 -0.6011  0.5553
    8SAPS   C21  955   5.012   6.538  10.757  0.6587 -0.7454  1.0243
    8SAPS   O22  956   4.995   6.422  10.716 -0.1648 -0.5531  0.2353
    8SAPS   C22  957   5.132   6.626  10.722 -0.3046 -0.2199 -0.2399
    8SAPS   H2R  958   5.180   6.652  10.819  0.1256 -1.2302 -0.1731
    8SAPS   H2S  959   5.207   6.578  10.656  3.3687  1.3194  2.4735
    8SAPS    C3  960   4.683   6.654  10.865 -0.3329 -0.5549 -0.2420
    8SAPS    HX  961   4.713   6.719  10.950  0.2966 -0.3591 -0.6002
    8SAPS    HY  962   4.593   6.596  10.894 -0.3952  0.9451  3.0311
    8SAPS   O31  963   4.663   6.733  10.745  0.4071  0.2937  0.2296
    8SAPS   C31  964   4.573   6.827  10.756 -0.7672  0.4770  0.3659
    8SAPS   O32  965   4.508   6.860  10.851  0.2136 -0.0829  0.0525
    8SAPS   C32  966   4.566   6.882  10.612 -0.3628 -0.6139  0.3010
    8SAPS   H2X  967   4.545   6.797  10.543 -0.8990 -1.1502  1.0981
    8SAPS   H2Y  968   4.671   6.904  10.582  0.0441  1.9024  3.1384
    8SAPS   C23  969   5.102   6.760  10.645  0.0090  0.1265 -0.0920
    8SAPS   H3R  970   5.199   6.811  10.627  0.0405  0.6121  1.3180
    8SAPS   H3S  971   5.041   6.832  10.704  0.6931  0.1517  0.6024
    8SAPS   C24  972   5.029   6.724  10.514 -0.0494  0.7796  0.3472
    8SAPS   H4R  973   4.923   6.692  10.529 -0.1160  0.0513 -1.4325
    8SAPS   H4S  974   5.084   6.641  10.467 -3.7998  0.3759 -4.1179
    8SAPS   C25  975   5.040   6.845  10.423 -0.2462  0.6458 -0.3462
    8SAPS   H5R  976   5.011   6.941  10.470  1.2391  0.1891  1.5919
    8SAPS   C26  977   5.079   6.842  10.296 -0.3115  0.0408  0.3146
    8SAPS   H6R  978   5.071   6.938  10.244  0.0830 -0.3581 -0.5064
    8SAPS   C27  979   5.134   6.735  10.211  0.4364  0.2611  0.3079
    8SAPS   H7R  980   5.132   6.779  10.109  0.8897  0.0995  0.2277
    8SAPS   H7S  981   5.070   6.644  10.213 -0.4841  0.8570 -0.8979
    8SAPS   C28  982   5.276   6.693  10.242 -0.0547 -0.3655 -0.7311
    8SAPS   H8R  983   5.326   6.734  10.330 -2.4342 -0.0286  0.5456
    8SAPS   C29  984   5.340   6.601  10.168 -0.4477 -0.4814  0.2136
    8SAPS   H9R  985   5.445   6.581  10.194  0.1144  0.1457 -1.4483
    8SAPS  C210  986   5.280   6.538  10.044  0.0467 -0.0892  0.0387
    8SAPS  H10R  987   5.201   6.601   9.996 -0.0260 -0.4881 -0.3645
    8SAPS  H10S  988   5.232   6.442  10.072  2.6111 -1.1062  1.2200
    8SAPS  C211  989   5.394   6.509   9.953  0.9699 -0.4013  0.1792
    8SAPS  H11R  990   5.444   6.416   9.982  1.5864 -0.1372 -0.0090
    8SAPS  C212  991   5.439   6.574   9.840  0.2740  0.0367  0.4797
    8SAPS  H12R  992   5.516   6.511   9.793 -0.0738 -0.8949  1.1034
    8SAPS  C213  993   5.391   6.707   9.779 -0.5735  0.0689 -0.0593
    8SAPS  H13R  994   5.377   6.782   9.859  1.8086 -0.4331  0.8927
    8SAPS  H13S  995   5.301   6.691   9.715 -1.1108  1.0854  0.4157
    8SAPS  C214  996   5.505   6.764   9.693 -0.3729  0.1585  0.0422
    8SAPS  H14R  997   5.587   6.809   9.749 -0.3416 -0.1625  0.2565
    8SAPS  C215  998   5.517   6.747   9.561  0.4598  0.4473  0.2436
    8SAPS  H15R  999   5.604   6.788   9.508 -0.1078 -0.7150 -1.7079
    8SAPS  C216 1000   5.433   6.663   9.462  0.6220  0.2000  0.7118
    8SAPS  H16R 1001   5.384   6.724   9.383 -0.4407 -1.8256 -0.2850
    8SAPS  H16S 1002   5.352   6.610   9.516 -1.2748  1.4516 -0.7663
    8SAPS  C217 1003   5.512   6.546   9.405  0.8062  0.4887  0.0055
    8SAPS  H17R 1004   5.452   6.462   9.363  0.9393 -0.6926  2.0310
    8SAPS  H17S 1005   5.568   6.493   9.485  1.4747 -0.0011 -0.7752
    8SAPS  C218 1006   5.620   6.591   9.297  0.1500  0.0580  0.2457
    8SAPS  H18R 1007   5.697   6.512   9.310 -0.2696 -0.2436  0.9975
    8SAPS  H18S 1008   5.657   6.693   9.317  0.1868  0.0636  0.1490
    8SAPS  C219 1009   5.566   6.578   9.152 -0.0833 -0.0314 -0.8171
    8SAPS  H19R 1010   5.499   6.663   9.126  0.1994  0.1275 -1.0402
    8SAPS  H19S 1011   5.510   6.486   9.128  1.9334 -0.9398 -2.3590
    8SAPS  C220 1012   5.679   6.571   9.052 -0.0900  0.4888  0.4913
    8SAPS  H20R 1013   5.732   6.474   9.043 -0.2519  0.5670 -2.3167
    8SAPS  H20S 1014   5.763   6.641   9.073  1.2463 -0.5437 -1.1718
    8SAPS  H20T 1015   5.639   6.587   8.949 -1.1934 -0.6162  0.7272
    8SAPS   C33 1016   4.464   6.995  10.593 -0.0964 -1.0444 -0.2193
    8SAPS   H3X 1017   4.511   7.093  10.618 -1.3983 -0.0720 -1.4206
    8SAPS   H3Y 1018   4.381   6.972  10.663 -0.1147 -1.8873 -0.5068
    8SAPS   C34 1019   4.416   7.010  10.453 -0.0863 -0.5571  0.9086
    8SAPS   H4X 1020   4.337   7.088  10.445 -0.1263 -0.4395  2.3089
    8SAPS   H4Y 1021   4.371   6.916  10.412 -0.2278 -1.0345  2.1150
    8SAPS   C35 1022   4.529   7.060  10.361  0.0435 -0.0355 -0.9663
    8SAPS   H5X 1023   4.615   6.993  10.381 -0.2005 -0.3301 -0.8995
    8SAPS   H5Y 1024   4.567   7.158  10.398  0.7858 -1.8944  3.9585
    8SAPS   C36 1025   4.498   7.031  10.214 -0.4242 -0.0759 -1.1467
    8SAPS   H6X 1026   4.398   7.076  10.195 -0.4538 -0.2887 -1.4894
    8SAPS   H6Y 1027   4.485   6.921  10.218 -0.7702 -0.0200  1.8443
    8SAPS   C37 1028   4.606   7.075  10.113 -0.0802  0.3670  0.3813
    8SAPS   H7X 1029   4.689   7.004  10.132 -0.0505  0.3858  0.3216
    8SAPS   H7Y 1030   4.640   7.179  10.131  0.6095  0.3825 -0.8460
    8SAPS   C38 1031   4.561   7.066   9.961  0.0129  0.4343 -0.5808
    8SAPS   H8X 1032   4.471   7.130   9.951  2.3250  3.7303 -1.8242
    8SAPS   H8Y 1033   4.526   6.962   9.940 -0.2807  0.7337 -1.5846
    8SAPS   C39 1034   4.667   7.099   9.859 -0.0035 -0.4877 -0.5367
    8SAPS   H9X 1035   4.746   7.022   9.872 -1.2041 -1.6677 -0.0036
    8SAPS   H9Y 1036   4.708   7.199   9.887 -0.7101 -0.5679  0.9282
    8SAPS  C310 1037   4.626   7.092   9.704 -0.2352  0.4449 -1.1765
    8SAPS  H10X 1038   4.727   7.118   9.667  0.5017 -0.8207 -0.1295
    8SAPS  H10Y 1039   4.547   7.168   9.687 -2.0068 -0.9843  0.2370
    8SAPS  C311 1040   4.571   6.956   9.658 -0.0615 -0.0203 -0.0314
    8SAPS  H11X 1041   4.475   6.930   9.708 -1.0477 -0.2486 -1.9497
    8SAPS  H11Y 1042   4.644   6.882   9.698 -0.8024 -1.0461 -0.5403
    8SAPS  C312 1043   4.542   6.947   9.509 -0.3543  0.3039 -0.3282
    8SAPS  H12X 1044   4.448   6.999   9.479  0.4092  0.5730 -2.4732
    8SAPS  H12Y 1045   4.522   6.840   9.488  0.3319  0.3113 -1.0789
    8SAPS  C313 1046   4.656   6.991   9.414  0.4347 -0.2041 -0.2954
    8SAPS  H13X 1047   4.753   6.940   9.431 -0.1048 -0.8692  0.9285
    8SAPS  H13Y 1048   4.667   7.101   9.423 -1.1430  0.0404 -0.9685
    8SAPS  C314 1049   4.620   6.977   9.266 -0.4069 -0.5645 -1.2887
    8SAPS  H14X 1050   4.531   7.041   9.250 -0.3809 -0.5415 -1.3416
    8SAPS  H14Y 1051   4.600   6.874   9.230 -1.6467 -0.4013 -1.0986
    8SAPS  C315 1052   4.724   7.030   9.162 -0.0890  0.2461  0.0302
    8SAPS  H15X 1053   4.815   6.966   9.163 -0.6310 -0.5513 -0.2491
    8SAPS  H15Y 1054   4.754   7.128   9.205 -2.3256  1.1362 -0.3055
    8SAPS  C316 1055   4.657   7.027   9.023  0.3853  0.7086 -0.1907
    8SAPS  H16X 1056   4.578   6.951   9.004 -1.7698  2.5085  1.1459
    8SAPS  H16Y 1057   4.740   7.004   8.952  0.1976  1.0010 -0.5088
    8SAPS  C317 1058   4.589   7.162   8.987 -1.4314 -0.2418 -0.2256
    8SAPS  H17X 1059   4.532   7.207   9.071 -0.6585  0.5844 -0.1253
    8SAPS  H17Y 1060   4.518   7.147   8.903  0.6221  1.8174 -2.4951
    8SAPS  C318 1061   4.699   7.267   8.947  0.6916  0.3213 -0.1978
    8SAPS  H18X 1062   4.751   7.318   9.031 -0.2218  3.2035 -1.2498
    8SAPS  H18Y 1063   4.647   7.341   8.882 -0.0453 -0.0785 -0.0735
    8SAPS  H18Z 1064   4.776   7.219   8.883 -1.2354 -2.8998 -0.3079
    9SAPS     N 1065   1.795   3.658   6.599  0.3506  0.7776 -0.3555
    9SAPS   HN1 1066   1.721   3.625   6.664  1.2408  0.2506  0.4137
    9SAPS   HN2 1067   1.838   3.577   6.551  0.6593 -0.0809  1.3043
    9SAPS   HN3 1068   1.869   3.702   6.657 -1.1330  1.4292  1.1453
    9SAPS   C12 1069   1.739   3.757   6.502 -0.0637  0.7280 -0.1512
    9SAPS  H12A 1070   1.668   3.817   6.556 -2.3564 -2.9047  1.2580
    9SAPS   C13 1071   1.842   3.842   6.424  0.8791 -0.1451 -0.3190
    9SAPS  O13A 1072   1.965   3.824   6.453 -0.5259  0.7764  0.4951
    9SAPS  O13B 1073   1.807   3.924   6.344 -0.9590 -0.4136  0.0254
    9SAPS   C11 1074   1.641   3.680   6.405  0.3171  0.1176  0.0044
    9SAPS  H11A 1075   1.693   3.616   6.331  0.4614 -0.0691  0.2655
    9SAPS  H11B 1076   1.592   3.767   6.356 -0.0984 -0.0904  0.0434
    9SAPS     P 1077   1.408   3.638   6.522  0.1423 -0.0536  0.1141
    9SAPS   O13 1078   1.330   3.672   6.404  0.4223 -0.2811  0.0850
    9SAPS   O14 1079   1.351   3.534   6.605  0.0872 -0.4882  0.3504
    9SAPS   O12 1080   1.548   3.595   6.474 -0.0906 -0.4276 -0.1816
    9SAPS   O11 1081   1.443   3.765   6.606 -0.5024  0.4705 -0.0702
    9SAPS    C1 1082   1.342   3.856   6.643  1.0898  0.0230 -0.5672
    9SAPS    HA 1083   1.361   3.960   6.608 -0.9974  0.7511  0.2502
    9SAPS    HB 1084   1.241   3.824   6.608  0.0812  1.1572  1.1860
    9SAPS    C2 1085   1.317   3.864   6.796  0.3663  0.2135 -1.2179
    9SAPS    HS 1086   1.258   3.957   6.806 -0.7362 -0.5909  0.0501
    9SAPS   O21 1087   1.440   3.869   6.866 -0.4449 -0.8788 -0.4055
    9SAPS   C21 1088   1.505   3.981   6.853 -0.1383 -0.5132  0.4537
    9SAPS   O22 1089   1.460   4.084   6.811 -0.0812  0.7327  0.2879
    9SAPS   C22 1090   1.656   3.962   6.894  0.0808  0.7118  0.1216
    9SAPS   H2R 1091   1.679   3.870   6.837  1.5262  0.7170  0.6589
    9SAPS   H2S 1092   1.712   4.049   6.851 -1.2378  0.9272 -1.2793
    9SAPS    C3 1093   1.245   3.738   6.843  0.0149  0.7813 -0.4216
    9SAPS    HX 1094   1.311   3.649   6.834  0.1381  0.7929  0.3090
    9SAPS    HY 1095   1.156   3.733   6.777  0.1536  0.2148 -0.5735
    9SAPS   O31 1096   1.212   3.749   6.982  0.9125  0.0000  0.2749
    9SAPS   C31 1097   1.134   3.648   7.021  0.5061 -0.0645 -0.2644
    9SAPS   O32 1098   1.108   3.553   6.948  0.1039  0.0437 -0.4705
    9SAPS   C32 1099   1.093   3.677   7.163 -0.4772 -0.4626 -0.1844
    9SAPS   H2X 1100   1.014   3.601   7.182 -1.6191  0.0872 -2.3824
    9SAPS   H2Y 1101   1.041   3.775   7.163  0.7083  0.1821  0.3245
    9SAPS   C23 1102   1.683   3.956   7.044 -0.0714  0.0651 -0.4422
    9SAPS   H3R 1103   1.618   3.885   7.100 -0.3129  2.0495  1.9779
    9SAPS   H3S 1104   1.680   4.056   7.092  2.6285 -1.2746  2.9300
    9SAPS   C24 1105   1.825   3.903   7.075  0.1310 -0.2264  0.2427
    9SAPS   H4R 1106   1.842   3.806   7.023 -0.3429 -0.9929  1.4603
    9SAPS   H4S 1107   1.831   3.887   7.185  1.4762 -1.9336 -0.0336
    9SAPS   C25 1108   1.943   3.983   7.029  0.3190 -0.4637 -1.2262
    9SAPS   H5R 1109   1.943   4.003   6.921 -2.5533  1.3814 -0.9794
    9SAPS   C26 1110   2.038   4.044   7.095 -0.4721  0.0828 -0.3622
    9SAPS   H6R 1111   2.108   4.103   7.034 -0.1307  0.2331  0.1702
    9SAPS   C27 1112   2.060   4.057   7.246 -0.2908  0.0887 -0.3985
    9SAPS   H7R 1113   1.972   4.023   7.304 -0.6772  0.6208 -0.6616
    9SAPS   H7S 1114   2.081   4.160   7.283 -0.4946  0.3465 -0.9853
    9SAPS   C28 1115   2.187   3.984   7.297  0.7197 -0.4816  0.7104
    9SAPS   H8R 1116   2.227   3.902   7.235 -2.4919 -2.6453  1.2556
    9SAPS   C29 1117   2.231   4.000   7.419  0.2430  0.4682 -0.2208
    9SAPS   H9R 1118   2.320   3.940   7.440  0.1283  0.2009 -0.4758
    9SAPS  C210 1119   2.179   4.086   7.533  0.1212 -0.6840  0.0611
    9SAPS  H10R 1120   2.086   4.141   7.508  1.5884  1.7845 -0.2886
    9SAPS  H10S 1121   2.258   4.159   7.561  0.7771 -0.1991 -2.7320
    9SAPS  C211 1122   2.144   4.001   7.656 -0.2454  0.4896  0.9856
    9SAPS  H11R 1123   2.129   3.895   7.631 -0.8631  0.3180  2.0386
    9SAPS  C212 1124   2.111   4.052   7.773 -1.1462 -0.3544  0.4438
    9SAPS  H12R 1125   2.092   3.991   7.863  1.5000  1.4037  2.3528
    9SAPS  C213 1126   2.105   4.194   7.794 -0.3108 -0.3158  0.1082
    9SAPS  H13R 1127   2.091   4.258   7.704 -0.5855  2.0394  1.7257
    9SAPS  H13S 1128   2.203   4.223   7.838 -0.6551 -0.8635  1.2518
    9SAPS  C214 1129   1.998   4.229   7.890  0.1702  0.7098 -0.9309
    9SAPS  H14R 1130   1.897   4.240   7.848  0.1322  1.2590 -0.7106
    9SAPS  C215 1131   2.022   4.246   8.020  0.0971 -0.6544  0.2952
    9SAPS  H15R 1132   1.941   4.279   8.086 -0.2966  0.4305 -0.6968
    9SAPS  C216 1133   2.156   4.225   8.086  0.8881  0.4437  0.0880
    9SAPS  H16R 1134   2.147   4.268   8.188  0.7886 -2.6117  1.4524
    9SAPS  H16S 1135   2.232   4.293   8.041  1.0964  1.1938  1.5385
    9SAPS  C217 1136   2.214   4.088   8.118 -0.1672 -0.5301  0.1451
    9SAPS  H17R 1137   2.223   4.031   8.022  2.3821  0.9865 -0.6148
    9SAPS  H17S 1138   2.145   4.029   8.181 -1.8795  0.9352 -0.2992
    9SAPS  C218 1139   2.359   4.097   8.170 -0.1372 -0.8381  0.1726
    9SAPS  H18R 1140   2.370   4.162   8.259 -1.5671  0.5883 -0.6297
    9SAPS  H18S 1141   2.419   4.141   8.087 -1.1727  2.3735  0.9755
    9SAPS  C219 1142   2.420   3.961   8.195  0.0333 -0.2762  0.1106
    9SAPS  H19R 1143   2.359   3.910   8.273 -1.6106 -1.6228 -1.9731
    9SAPS  H19S 1144   2.521   3.972   8.241 -0.2321 -1.0524  0.9187
    9SAPS  C220 1145   2.444   3.877   8.064 -0.1481  0.3239 -0.1654
    9SAPS  H20R 1146   2.524   3.927   8.005  0.1449 -0.2615 -0.2777
    9SAPS  H20S 1147   2.348   3.871   8.010  0.8340  0.4026 -2.0048
    9SAPS  H20T 1148   2.473   3.775   8.098 -0.8980 -0.6614 -2.3324
    9SAPS   C33 1149   1.217   3.674   7.255 -0.4882  0.2992 -0.2814
    9SAPS   H3X 1150   1.288   3.758   7.238 -1.8552  0.9028 -3.5614
    9SAPS   H3Y 1151   1.267   3.576   7.246  2.8198  1.7275  0.7962
    9SAPS   C34 1152   1.158   3.697   7.394 -0.3842 -0.0541  0.5583
    9SAPS   H4X 1153   1.090   3.611   7.412 -0.3053 -0.8624 -2.4004
    9SAPS   H4Y 1154   1.098   3.789   7.401  0.4623  0.4845  0.8843
    9SAPS   C35 1155   1.263   3.688   7.503  0.1394 -0.6215  0.5516
    9SAPS   H5X 1156   1.341   3.760   7.471 -0.4796  0.7593  2.0179
    9SAPS   H5Y 1157   1.298   3.583   7.518 -1.0124 -0.9237  1.2642
    9SAPS   C36 1158   1.216   3.731   7.644 -0.3357 -0.5452 -0.2780
    9SAPS   H6X 1159   1.130   3.668   7.675 -1.2486  0.8899  0.1886
    9SAPS   H6Y 1160   1.199   3.841   7.645  3.2591  0.2238 -3.1446
    9SAPS   C37 1161   1.329   3.708   7.749  0.7284 -1.4739  0.1517
    9SAPS   H7X 1162   1.418   3.767   7.717 -0.0254  0.8833  2.0852
    9SAPS   H7Y 1163   1.363   3.604   7.734  1.3145 -0.9491 -2.9614
    9SAPS   C38 1164   1.297   3.749   7.891 -0.4115  0.5970  0.1906
    9SAPS   H8X 1165   1.226   3.668   7.922  1.7467 -1.2843  0.4622
    9SAPS   H8Y 1166   1.241   3.845   7.894 -1.0633  0.2732 -0.9638
    9SAPS   C39 1167   1.421   3.747   7.979  0.8954 -0.4633 -0.1520
    9SAPS   H9X 1168   1.507   3.795   7.926  0.9361  0.4366  0.6995
    9SAPS   H9Y 1169   1.456   3.642   7.971  0.3122 -0.5819 -1.3885
    9SAPS  C310 1170   1.399   3.816   8.112 -0.6249  0.1987  0.3483
    9SAPS  H10X 1171   1.355   3.916   8.092  0.2982  0.0805 -2.9310
    9SAPS  H10Y 1172   1.496   3.835   8.163  0.8998 -0.6637 -2.0666
    9SAPS  C311 1173   1.299   3.757   8.197 -0.2221  0.9465 -0.4531
    9SAPS  H11X 1174   1.211   3.718   8.142 -2.1909 -1.3460  3.8335
    9SAPS  H11Y 1175   1.258   3.829   8.271  1.5782  0.8707  0.6878
    9SAPS  C312 1176   1.356   3.636   8.281  0.4651 -0.0980  0.1139
    9SAPS  H12X 1177   1.451   3.664   8.331  0.7096  0.5392 -0.6814
    9SAPS  H12Y 1178   1.383   3.566   8.199 -0.1080 -1.4157  1.0108
    9SAPS  C313 1179   1.259   3.570   8.381 -0.0688  0.0709 -0.3600
    9SAPS  H13X 1180   1.157   3.595   8.346  0.7511  1.3413 -1.9640
    9SAPS  H13Y 1181   1.276   3.616   8.481  2.8290  1.0378 -1.2033
    9SAPS  C314 1182   1.267   3.410   8.381  0.0367  0.0711  0.5147
    9SAPS  H14X 1183   1.355   3.368   8.434  0.2241 -0.5980 -0.3043
    9SAPS  H14Y 1184   1.262   3.386   8.273  0.4586  0.0105  0.5064
    9SAPS  C315 1185   1.140   3.355   8.461 -0.4143  0.0111 -0.0790
    9SAPS  H15X 1186   1.155   3.246   8.448  0.1886 -0.1693  1.8301
    9SAPS  H15Y 1187   1.049   3.371   8.399  1.1001 -1.0723 -2.7372
    9SAPS  C316 1188   1.124   3.390   8.613 -0.3628  0.0364  0.4355
    9SAPS  H16X 1189   1.095   3.496   8.625 -0.2310  0.4278 -2.1412
    9SAPS  H16Y 1190   1.215   3.373   8.674 -0.3601  0.1461  0.4629
    9SAPS  C317 1191   1.020   3.303   8.677  0.2772 -0.2549 -0.3630
    9SAPS  H17X 1192   1.060   3.199   8.674 -1.0740 -0.7893 -1.0619
    9SAPS  H17Y 1193   0.931   3.312   8.611 -0.1737  1.7606  0.4616
    9SAPS  C318 1194   0.970   3.333   8.816 -0.7834  0.1141 -1.2260
    9SAPS  H18X 1195   0.933   3.241   8.867  0.2977 -0.4095 -1.3687
    9SAPS  H18Y 1196   0.899   3.418   8.810 -1.3970 -0.3058 -0.2015
    9SAPS  H18Z 1197   1.060   3.358   8.875 -0.8518 -0.1661 -0.9959
   10SAPS     N 1198   2.200   3.024   6.391  0.2203  0.0460  0.2022
   10SAPS   HN1 1199   2.262   2.956   6.438 -0.4761 -2.3311 -2.0519
   10SAPS   HN2 1200   2.103   3.022   6.428  0.2881 -2.0433  0.4220
   10SAPS   HN3 1201   2.187   3.008   6.289 -2.9229  0.2588  0.4480
   10SAPS   C12 1202   2.241   3.162   6.420 -0.0904 -0.3262 -0.0356
   10SAPS  H12A 1203   2.253   3.163   6.527  0.2146 -0.3710 -0.0670
   10SAPS   C13 1204   2.371   3.208   6.358 -0.1536 -0.8274 -0.0810
   10SAPS  O13A 1205   2.412   3.162   6.250 -0.0982  0.3489 -0.1891
   10SAPS  O13B 1206   2.422   3.321   6.396  0.2590  0.1366 -0.2659
   10SAPS   C11 1207   2.123   3.251   6.377 -0.0507  0.3853 -1.1508
   10SAPS  H11A 1208   2.098   3.239   6.269 -0.4214 -1.4399 -0.8983
   10SAPS  H11B 1209   2.156   3.355   6.397 -1.3970  0.4538  1.0517
   10SAPS     P 1210   1.886   3.328   6.435  0.0262 -0.3471 -0.2573
   10SAPS   O13 1211   1.925   3.462   6.488  0.0630 -0.0902  0.0807
   10SAPS   O14 1212   1.838   3.312   6.294  0.0728  0.1172  0.1732
   10SAPS   O12 1213   2.013   3.232   6.457  0.5600  0.0152 -0.4385
   10SAPS   O11 1214   1.780   3.267   6.533  0.2288 -0.5277 -0.5125
   10SAPS    C1 1215   1.804   3.206   6.663  0.2677 -0.0976  0.4250
   10SAPS    HA 1216   1.758   3.105   6.674  1.6394 -1.0963 -2.0818
   10SAPS    HB 1217   1.912   3.198   6.686 -0.0450 -1.9396  1.4698
   10SAPS    C2 1218   1.748   3.300   6.773 -0.0140  0.0706 -0.1250
   10SAPS    HS 1219   1.808   3.393   6.785  0.5162 -0.4163  1.1927
   10SAPS   O21 1220   1.753   3.225   6.892  0.0851 -0.5188 -0.1916
   10SAPS   C21 1221   1.867   3.208   6.953 -1.1417  0.1022 -0.4668
   10SAPS   O22 1222   1.969   3.274   6.925 -0.0551 -0.1374  0.0188
   10SAPS   C22 1223   1.863   3.086   7.049 -0.4429 -0.7498 -0.5438
   10SAPS   H2R 1224   1.758   3.061   7.077  0.1959 -0.9054  1.9811
   10SAPS   H2S 1225   1.908   2.993   7.007  1.6143  0.2659 -0.7323
   10SAPS    C3 1226   1.604   3.340   6.733  0.4305  0.3397 -0.3168
   10SAPS    HX 1227   1.565   3.236   6.723 -1.7159  1.1776 -1.1002
   10SAPS    HY 1228   1.592   3.394   6.637  1.9360  0.7892 -0.2775
   10SAPS   O31 1229   1.526   3.399   6.836  0.2363 -0.2638  0.3354
   10SAPS   C31 1230   1.554   3.527   6.864  0.0363  0.4733 -0.0143
   10SAPS   O32 1231   1.628   3.601   6.807  0.3824  0.5986  0.3853
   10SAPS   C32 1232   1.496   3.548   7.003  0.2423 -0.2515 -0.3047
   10SAPS   H2X 1233   1.399   3.497   7.019 -0.5063  1.1450 -0.2751
   10SAPS   H2Y 1234   1.478   3.657   6.998  2.4618  0.1360 -1.1655
   10SAPS   C23 1235   1.959   3.116   7.170 -0.5574  0.6568 -0.7000
   10SAPS   H3R 1236   2.052   3.168   7.139  0.0420 -0.2053 -0.3945
   10SAPS   H3S 1237   1.996   3.019   7.209 -1.5586  0.5795  0.1104
   10SAPS   C24 1238   1.894   3.180   7.298 -0.5683  0.2177 -0.1449
   10SAPS   H4R 1239   1.812   3.117   7.339 -1.6850  2.3869  1.1361
   10SAPS   H4S 1240   1.838   3.263   7.249 -1.8288 -0.5709 -0.0808
   10SAPS   C25 1241   1.989   3.217   7.407 -0.7114  0.7395 -0.0731
   10SAPS   H5R 1242   2.092   3.228   7.372 -0.7792  0.1984 -0.4557
   10SAPS   C26 1243   1.971   3.216   7.540  0.4712  0.6635 -0.5248
   10SAPS   H6R 1244   2.060   3.242   7.598 -0.5807  2.1635  0.4959
   10SAPS   C27 1245   1.850   3.170   7.616 -0.5133 -0.3158 -0.7784
   10SAPS   H7R 1246   1.878   3.101   7.698 -1.4579  1.1367  0.8316
   10SAPS   H7S 1247   1.798   3.118   7.533  2.0224  0.4062 -2.9606
   10SAPS   C28 1248   1.774   3.293   7.657 -0.1295 -0.2999 -0.2873
   10SAPS   H8R 1249   1.714   3.360   7.594 -1.6669  1.1725  2.5278
   10SAPS   C29 1250   1.762   3.338   7.786 -0.5875  0.0701  0.5247
   10SAPS   H9R 1251   1.699   3.427   7.800 -0.6246 -0.0378  1.0415
   10SAPS  C210 1252   1.824   3.288   7.913  0.8761  0.0942 -0.4125
   10SAPS  H10R 1253   1.911   3.351   7.941  0.4940 -0.1299  1.4002
   10SAPS  H10S 1254   1.861   3.186   7.889 -0.0807 -0.1323 -0.9795
   10SAPS  C211 1255   1.724   3.272   8.023  0.2914 -0.0144  0.2439
   10SAPS  H11R 1256   1.617   3.277   7.997  0.2131 -0.6285  0.4317
   10SAPS  C212 1257   1.763   3.238   8.146  0.0637 -0.3570 -0.3889
   10SAPS  H12R 1258   1.678   3.227   8.214  0.5085  0.3232  0.2983
   10SAPS  C213 1259   1.903   3.210   8.204  0.1993  0.0652  0.7684
   10SAPS  H13R 1260   1.968   3.190   8.116 -1.7212 -0.4987 -0.6032
   10SAPS  H13S 1261   1.898   3.109   8.251  2.7217 -0.5407 -0.1336
   10SAPS  C214 1262   1.947   3.316   8.295  0.4067  0.1727 -0.4390
   10SAPS  H14R 1263   2.007   3.391   8.241 -0.5233  1.5872  0.4157
   10SAPS  C215 1264   1.901   3.338   8.422 -0.3501 -0.1025 -0.2892
   10SAPS  H15R 1265   1.944   3.417   8.484  0.4969 -2.2358  2.0245
   10SAPS  C216 1266   1.791   3.252   8.487 -0.3805  0.5183 -0.3279
   10SAPS  H16R 1267   1.814   3.202   8.583 -0.1401  2.1247  0.4951
   10SAPS  H16S 1268   1.771   3.167   8.419  1.5139 -1.5080  1.4893
   10SAPS  C217 1269   1.673   3.347   8.518  0.5754  0.2924 -0.4005
   10SAPS  H17R 1270   1.624   3.383   8.426 -1.1161  0.4588  0.5287
   10SAPS  H17S 1271   1.706   3.442   8.567 -1.2359  0.4012  0.7120
   10SAPS  C218 1272   1.559   3.277   8.599  0.2780 -0.9826 -0.1887
   10SAPS  H18R 1273   1.473   3.346   8.612  0.5135 -0.8304  0.6769
   10SAPS  H18S 1274   1.586   3.264   8.706 -0.3156 -0.4228  0.0333
   10SAPS  C219 1275   1.514   3.155   8.530  0.5055  0.4397 -0.0832
   10SAPS  H19R 1276   1.600   3.090   8.504 -0.5446 -0.3754 -1.6483
   10SAPS  H19S 1277   1.479   3.191   8.431  3.2975  1.0719 -0.8979
   10SAPS  C220 1278   1.403   3.089   8.613  0.1654 -0.3438  0.2377
   10SAPS  H20R 1279   1.359   3.008   8.550  0.3505  0.5343 -1.0753
   10SAPS  H20S 1280   1.332   3.169   8.641 -0.9551 -0.7249 -1.3928
   10SAPS  H20T 1281   1.448   3.039   8.701  2.3745  1.0701 -0.0002
   10SAPS   C33 1282   1.594   3.514   7.116 -0.2552  0.1621  0.5006
   10SAPS   H3X 1283   1.679   3.580   7.088 -1.1904  0.2473 -2.3829
   10SAPS   H3Y 1284   1.632   3.410   7.109 -2.0973 -0.5039 -0.1035
   10SAPS   C34 1285   1.541   3.542   7.252 -0.2001  0.3190 -0.1819
   10SAPS   H4X 1286   1.441   3.495   7.264 -1.1433  2.4394  0.7590
   10SAPS   H4Y 1287   1.518   3.650   7.263  0.9103  0.5453  0.0003
   10SAPS   C35 1288   1.632   3.493   7.354  0.4930 -0.7615  0.4446
   10SAPS   H5X 1289   1.654   3.385   7.337 -2.9645 -1.8367  1.8790
   10SAPS   H5Y 1290   1.584   3.504   7.454 -1.2142  0.6732 -0.4930
   10SAPS   C36 1291   1.769   3.565   7.353 -0.1253  0.0955 -0.6838
   10SAPS   H6X 1292   1.812   3.573   7.251  2.3199 -0.2008  0.2499
   10SAPS   H6Y 1293   1.834   3.488   7.398 -3.1121 -1.6610  0.9092
   10SAPS   C37 1294   1.772   3.694   7.433 -0.1237  0.1861  0.4039
   10SAPS   H7X 1295   1.688   3.759   7.400  1.1501  1.9084  0.4442
   10SAPS   H7Y 1296   1.863   3.747   7.398 -1.1744  0.9357 -1.3283
   10SAPS   C38 1297   1.786   3.681   7.585  0.7417 -0.3785 -0.5322
   10SAPS   H8X 1298   1.867   3.607   7.599 -0.0466 -1.0446  0.6831
   10SAPS   H8Y 1299   1.689   3.641   7.622  1.6344 -0.6768  1.6196
   10SAPS   C39 1300   1.830   3.821   7.640  0.3615  0.0690 -0.1022
   10SAPS   H9X 1301   1.775   3.912   7.608 -1.6830 -0.2735  2.1274
   10SAPS   H9Y 1302   1.937   3.831   7.612 -0.0965  2.8565 -1.1242
   10SAPS  C310 1303   1.824   3.822   7.793 -0.4952 -0.1187 -0.7422
   10SAPS  H10X 1304   1.728   3.813   7.847  1.4465  0.9499  3.2615
   10SAPS  H10Y 1305   1.856   3.924   7.822 -0.6605 -0.0618 -0.7612
   10SAPS  C311 1306   1.925   3.719   7.860  0.0161  0.0191  0.3457
   10SAPS  H11X 1307   2.029   3.737   7.823  1.3042 -1.6671  2.8697
   10SAPS  H11Y 1308   1.883   3.620   7.833 -1.2322  0.4556  0.6428
   10SAPS  C312 1309   1.934   3.741   8.011  0.7155  0.1192  0.2349
   10SAPS  H12X 1310   1.937   3.846   8.047 -1.7913 -0.5208  2.6329
   10SAPS  H12Y 1311   2.032   3.701   8.045  0.1574 -0.5497  1.1049
   10SAPS  C313 1312   1.825   3.657   8.074 -0.4780 -0.2276 -0.5670
   10SAPS  H13X 1313   1.836   3.557   8.028  3.0986  0.7253 -2.1354
   10SAPS  H13Y 1314   1.718   3.681   8.056 -0.7487 -1.8952 -1.3823
   10SAPS  C314 1315   1.840   3.655   8.226  0.0997 -0.0685 -0.4378
   10SAPS  H14X 1316   1.948   3.630   8.239 -0.6566 -2.1234  3.3741
   10SAPS  H14Y 1317   1.780   3.569   8.261 -1.0743 -0.1768 -2.5840
   10SAPS  C315 1318   1.798   3.782   8.292  0.1681  0.4558  0.7953
   10SAPS  H15X 1319   1.690   3.775   8.315  0.0545 -1.3017 -0.1502
   10SAPS  H15Y 1320   1.812   3.864   8.218 -0.9003 -1.6213 -1.8886
   10SAPS  C316 1321   1.880   3.818   8.420 -0.2061 -0.6661  0.2999
   10SAPS  H16X 1322   1.868   3.750   8.507  0.4667 -1.9218 -0.5527
   10SAPS  H16Y 1323   1.831   3.915   8.444 -0.6530 -0.7359 -0.3343
   10SAPS  C317 1324   2.030   3.850   8.398  0.3936 -0.9874 -0.3261
   10SAPS  H17X 1325   2.044   3.934   8.325  0.0020  0.3551  1.0883
   10SAPS  H17Y 1326   2.099   3.772   8.359  3.3437  0.4115  1.6944
   10SAPS  C318 1327   2.106   3.898   8.518  0.3315 -0.5106  0.8169
   10SAPS  H18X 1328   2.090   4.007   8.533 -0.2767 -0.5694  0.6479
   10SAPS  H18Y 1329   2.215   3.900   8.498 -0.1085 -2.2569 -2.2736
   10SAPS  H18Z 1330   2.097   3.839   8.612  1.7878 -1.3753  0.4385
   11SAPS     N 1331   3.403   6.400   6.072 -0.7932 -0.0505  0.3748
   11SAPS   HN1 1332   3.300   6.389   6.069 -0.8211  0.2415  0.2776
   11SAPS   HN2 1333   3.442   6.331   6.140 -0.5437 -1.0511 -0.7510
   11SAPS   HN3 1334   3.442   6.495   6.091  0.7753 -0.3737 -0.9454
   11SAPS   C12 1335   3.465   6.366   5.929  0.1476 -0.1651 -0.0104
   11SAPS  H12A 1336   3.572   6.370   5.937  0.1214  0.2715  0.1660
   11SAPS   C13 1337   3.440   6.221   5.879  0.0100 -0.4234 -0.1255
   11SAPS  O13A 1338   3.357   6.145   5.940  0.5612  0.2222  0.2302
   11SAPS  O13B 1339   3.507   6.172   5.785 -0.4716 -0.2890 -0.2802
   11SAPS   C11 1340   3.427   6.481   5.832 -0.6045 -0.5356  0.5761
   11SAPS  H11A 1341   3.321   6.478   5.801  0.1922  0.4342 -2.6828
   11SAPS  H11B 1342   3.482   6.460   5.737  0.1671  0.2930  0.8192
   11SAPS     P 1343   3.517   6.728   5.787  0.5548  0.2586  0.5104
   11SAPS   O13 1344   3.651   6.685   5.743  0.6920  0.2208 -0.1791
   11SAPS   O14 1345   3.416   6.759   5.683  0.5044 -0.0525  0.3258
   11SAPS   O12 1346   3.461   6.610   5.877  0.4528  0.4221  0.4045
   11SAPS   O11 1347   3.534   6.850   5.897  0.6102  0.3371  0.3687
   11SAPS    C1 1348   3.648   6.855   5.982 -0.5516 -0.0808  0.0589
   11SAPS    HA 1349   3.733   6.802   5.932 -1.1668 -1.2374  0.1922
   11SAPS    HB 1350   3.679   6.961   5.987  0.3335 -0.2858 -0.7433
   11SAPS    C2 1351   3.619   6.805   6.119  0.0015 -0.1454  0.1560
   11SAPS    HS 1352   3.610   6.696   6.099  2.1007 -0.0669 -1.6294
   11SAPS   O21 1353   3.503   6.875   6.165  0.9369 -0.0155  0.0206
   11SAPS   C21 1354   3.408   6.789   6.210 -0.2278  0.5633 -0.5060
   11SAPS   O22 1355   3.430   6.666   6.215  0.4602  0.0370  0.1536
   11SAPS   C22 1356   3.292   6.867   6.271  0.4769  0.1474  0.2862
   11SAPS   H2R 1357   3.327   6.960   6.319  0.3783 -0.8569  2.4174
   11SAPS   H2S 1358   3.226   6.886   6.183 -0.3477 -0.6253  0.7158
   11SAPS    C3 1359   3.740   6.818   6.220 -0.0949  0.0406 -0.0298
   11SAPS    HX 1360   3.768   6.923   6.242 -1.2596  0.6767 -1.4475
   11SAPS    HY 1361   3.834   6.783   6.171 -0.8301 -0.9262 -0.8008
   11SAPS   O31 1362   3.715   6.741   6.339 -0.6519 -0.4856 -0.3435
   11SAPS   C31 1363   3.736   6.608   6.332  0.7821 -0.0307  0.0645
   11SAPS   O32 1364   3.780   6.553   6.233  0.0914  0.3499  0.6137
   11SAPS   C32 1365   3.713   6.533   6.460 -0.4976 -0.3904  0.8226
   11SAPS   H2X 1366   3.779   6.444   6.468  0.2183  0.0730  0.0974
   11SAPS   H2Y 1367   3.610   6.491   6.463  0.1605 -2.2370 -0.6918
   11SAPS   C23 1368   3.221   6.771   6.365 -0.0254  0.3852  0.2894
   11SAPS   H3R 1369   3.190   6.680   6.309 -1.1181  0.9375 -0.0129
   11SAPS   H3S 1370   3.130   6.821   6.403 -0.3028 -0.9993  1.5573
   11SAPS   C24 1371   3.298   6.723   6.494  0.6800 -1.4435 -0.3242
   11SAPS   H4R 1372   3.334   6.818   6.540 -1.6186  0.1400 -1.5767
   11SAPS   H4S 1373   3.382   6.658   6.463  1.0116 -1.7242  1.1117
   11SAPS   C25 1374   3.206   6.653   6.594 -0.2281 -0.4143 -0.5640
   11SAPS   H5R 1375   3.146   6.573   6.549  1.9489 -2.7287  0.3912
   11SAPS   C26 1376   3.204   6.664   6.726  0.2546 -0.6680 -0.1443
   11SAPS   H6R 1377   3.135   6.600   6.783 -0.6832  0.2652 -0.2031
   11SAPS   C27 1378   3.281   6.759   6.813 -0.1334 -0.2658  0.6968
   11SAPS   H7R 1379   3.296   6.856   6.760  1.4306 -0.8259  0.0605
   11SAPS   H7S 1380   3.383   6.719   6.826 -0.8511 -2.2387  0.6065
   11SAPS   C28 1381   3.215   6.787   6.947 -0.1148 -0.2241 -1.1740
   11SAPS   H8R 1382   3.116   6.834   6.943 -0.3190 -0.6982 -1.8277
   11SAPS   C29 1383   3.266   6.765   7.069  0.0104  1.0029 -0.1307
   11SAPS   H9R 1384   3.200   6.789   7.154 -1.8048 -1.7324 -0.6553
   11SAPS  C210 1385   3.402   6.705   7.106  0.0973  0.5519  0.1257
   11SAPS  H10R 1386   3.453   6.794   7.148  3.8374 -1.5159  0.4287
   11SAPS  H10S 1387   3.452   6.666   7.015 -0.9452  1.2708 -0.7913
   11SAPS  C211 1388   3.389   6.602   7.214  0.6137 -0.8935 -0.0826
   11SAPS  H11R 1389   3.384   6.496   7.184  0.5649 -1.2804  1.2399
   11SAPS  C212 1390   3.396   6.628   7.349 -0.2717  0.2790 -0.4684
   11SAPS  H12R 1391   3.382   6.543   7.416 -3.5414  1.8861  1.1154
   11SAPS  C213 1392   3.422   6.758   7.426 -1.0685  0.4159 -0.3253
   11SAPS  H13R 1393   3.327   6.783   7.479  0.3155  2.8354  1.2651
   11SAPS  H13S 1394   3.437   6.844   7.357 -1.2529  0.1010 -0.7553
   11SAPS  C214 1395   3.521   6.731   7.537  0.0792 -0.3233 -0.0797
   11SAPS  H14R 1396   3.607   6.678   7.492 -0.2883  0.8876 -2.3431
   11SAPS  C215 1397   3.510   6.763   7.671 -0.5291  0.2693 -0.5173
   11SAPS  H15R 1398   3.595   6.743   7.737 -1.4560 -2.0469  0.0731
   11SAPS  C216 1399   3.395   6.830   7.731 -0.0583  0.9856 -0.6113
   11SAPS  H16R 1400   3.315   6.852   7.658 -0.8232 -0.1148 -0.1392
   11SAPS  H16S 1401   3.435   6.930   7.756  0.1833  1.0740 -1.3299
   11SAPS  C217 1402   3.325   6.764   7.851 -0.5895 -0.1435 -0.1849
   11SAPS  H17R 1403   3.319   6.653   7.839  1.9558 -0.4795  1.1200
   11SAPS  H17S 1404   3.223   6.808   7.860 -2.0167 -2.7102 -2.1788
   11SAPS  C218 1405   3.400   6.798   7.982  0.3268  0.4715  0.3229
   11SAPS  H18R 1406   3.384   6.902   8.018 -0.9129 -0.9889  4.7285
   11SAPS  H18S 1407   3.510   6.786   7.968 -0.0005 -0.4952 -1.6761
   11SAPS  C219 1408   3.352   6.723   8.107  0.1357 -0.4162  0.4181
   11SAPS  H19R 1409   3.325   6.619   8.081 -2.5429  0.4010 -0.4257
   11SAPS  H19S 1410   3.262   6.774   8.147 -0.5909 -1.0842 -0.3332
   11SAPS  C220 1411   3.457   6.703   8.221 -0.4000 -0.5950 -0.5718
   11SAPS  H20R 1412   3.542   6.641   8.186  0.4135  0.4785 -0.5557
   11SAPS  H20S 1413   3.422   6.650   8.312  1.2718 -2.8969 -1.1961
   11SAPS  H20T 1414   3.498   6.802   8.250 -0.8159  0.1268 -2.3233
   11SAPS   C33 1415   3.733   6.609   6.583  0.6278  0.1689 -0.3773
   11SAPS   H3X 1416   3.652   6.685   6.596  0.1763 -0.0484 -1.7136
   11SAPS   H3Y 1417   3.820   6.677   6.589  2.4093 -2.0153 -0.2126
   11SAPS   C34 1418   3.732   6.526   6.711  0.0200 -0.2700  0.4696
   11SAPS   H4X 1419   3.779   6.581   6.795  0.9110 -1.2279  0.6200
   11SAPS   H4Y 1420   3.808   6.446   6.698  1.3607  0.5054  2.8944
   11SAPS   C35 1421   3.602   6.460   6.751  0.2036 -0.2146  0.1549
   11SAPS   H5X 1422   3.573   6.372   6.690 -1.3599 -0.5596  1.3116
   11SAPS   H5Y 1423   3.513   6.526   6.741  0.1579 -0.4418 -1.1348
   11SAPS   C36 1424   3.588   6.411   6.901  0.5619 -0.4195  0.3341
   11SAPS   H6X 1425   3.481   6.380   6.901 -0.0390  1.4960 -0.1697
   11SAPS   H6Y 1426   3.617   6.500   6.962  1.5071 -1.1030  0.9055
   11SAPS   C37 1427   3.677   6.296   6.945 -0.2908 -0.1657  0.4075
   11SAPS   H7X 1428   3.778   6.337   6.922 -0.9494  0.1925 -2.1560
   11SAPS   H7Y 1429   3.664   6.212   6.874 -1.2798 -0.3264  0.7669
   11SAPS   C38 1430   3.660   6.253   7.083  0.2760  0.0731 -0.1361
   11SAPS   H8X 1431   3.682   6.144   7.090  2.5430  0.4024 -1.2605
   11SAPS   H8Y 1432   3.553   6.260   7.113  0.2784 -1.1978  0.2241
   11SAPS   C39 1433   3.741   6.334   7.187 -0.2832  0.2718  0.3943
   11SAPS   H9X 1434   3.712   6.441   7.174 -0.5912 -0.1686 -3.8436
   11SAPS   H9Y 1435   3.851   6.338   7.177  0.0319  0.0451  3.1619
   11SAPS  C310 1436   3.706   6.306   7.329 -0.5989 -0.0300 -0.6874
   11SAPS  H10X 1437   3.731   6.201   7.357  0.8023  0.2608 -0.7688
   11SAPS  H10Y 1438   3.595   6.305   7.334 -0.6201 -1.5303 -0.9100
   11SAPS  C311 1439   3.770   6.404   7.425  0.1387 -0.6976  0.9487
   11SAPS  H11X 1440   3.760   6.513   7.407  1.2121 -0.8652 -0.9889
   11SAPS  H11Y 1441   3.880   6.392   7.413  0.2428  1.1757 -0.2370
   11SAPS  C312 1442   3.735   6.381   7.569  0.5128  0.4529  0.1781
   11SAPS  H12X 1443   3.743   6.271   7.580 -0.2255  0.4510  0.7095
   11SAPS  H12Y 1444   3.630   6.414   7.583 -0.5513 -1.9704 -1.4459
   11SAPS  C313 1445   3.826   6.459   7.666 -0.1013 -0.2759 -0.2993
   11SAPS  H13X 1446   3.819   6.566   7.637  0.4246  0.0265  0.6275
   11SAPS  H13Y 1447   3.935   6.441   7.653  0.5432  3.2650 -0.7779
   11SAPS  C314 1448   3.801   6.435   7.816  0.5190 -0.4720 -0.6597
   11SAPS  H14X 1449   3.698   6.468   7.838  0.1132 -2.8206  1.3976
   11SAPS  H14Y 1450   3.869   6.507   7.866  1.2336 -1.5625 -0.0046
   11SAPS  C315 1451   3.824   6.295   7.875  0.2858 -0.1604  1.1752
   11SAPS  H15X 1452   3.934   6.277   7.884  0.5279  1.3655  1.5910
   11SAPS  H15Y 1453   3.776   6.219   7.810  0.2599  2.2414 -1.8018
   11SAPS  C316 1454   3.768   6.273   8.013 -0.8443 -0.2114  0.7661
   11SAPS  H16X 1455   3.805   6.179   8.059  1.1466  0.2108  0.1281
   11SAPS  H16Y 1456   3.657   6.266   8.011 -0.8517 -1.4663  2.8992
   11SAPS  C317 1457   3.789   6.391   8.108 -0.3248 -0.6541  0.6385
   11SAPS  H17X 1458   3.762   6.493   8.073  1.9395 -0.5316 -1.0037
   11SAPS  H17Y 1459   3.898   6.399   8.125 -0.0458 -0.3777 -1.1065
   11SAPS  C318 1460   3.721   6.369   8.241 -0.3632  0.7899 -0.0911
   11SAPS  H18X 1461   3.770   6.292   8.305 -2.2554 -1.6487 -1.3797
   11SAPS  H18Y 1462   3.615   6.337   8.228  0.5609 -3.7876  1.6807
   11SAPS  H18Z 1463   3.713   6.458   8.306 -2.2561  0.1592  0.6197
   12SAPS     N 1464   2.599   0.805   5.754 -0.0480 -0.6873  0.3210
   12SAPS   HN1 1465   2.584   0.848   5.661  0.3357 -2.2564 -0.4941
   12SAPS   HN2 1466   2.688   0.846   5.787  0.8844  0.2018 -2.9632
   12SAPS   HN3 1467   2.600   0.702   5.742  0.0323 -0.5035 -1.5503
   12SAPS   C12 1468   2.483   0.845   5.838 -1.2893  0.3510  0.2781
   12SAPS  H12A 1469   2.473   0.952   5.828  2.1807  0.5851 -2.7131
   12SAPS   C13 1470   2.351   0.784   5.792 -0.7291 -0.5836 -0.4250
   12SAPS  O13A 1471   2.354   0.708   5.689 -0.4414 -0.0753  0.4806
   12SAPS  O13B 1472   2.242   0.830   5.838 -0.3625 -0.0762 -0.1269
   12SAPS   C11 1473   2.507   0.801   5.981  0.2424 -0.0310 -0.6029
   12SAPS  H11A 1474   2.430   0.840   6.051  2.3339  0.4842  1.5335
   12SAPS  H11B 1475   2.599   0.859   6.002  0.3000 -0.0981 -0.6697
   12SAPS     P 1476   2.472   0.577   6.129  0.3675 -0.1351  0.6049
   12SAPS   O13 1477   2.331   0.564   6.105  0.7274  1.0878 -0.4279
   12SAPS   O14 1478   2.548   0.455   6.157 -0.0285  0.9379 -0.1627
   12SAPS   O12 1479   2.528   0.654   5.996  0.7699 -0.1653 -0.1816
   12SAPS   O11 1480   2.477   0.685   6.247 -0.3844 -0.1028  0.4804
   12SAPS    C1 1481   2.595   0.715   6.314  0.6033  0.5031  0.0111
   12SAPS    HA 1482   2.682   0.707   6.245  0.6349 -0.5699  0.1685
   12SAPS    HB 1483   2.585   0.819   6.352 -1.0124 -0.4529  2.4909
   12SAPS    C2 1484   2.635   0.632   6.443 -0.1901  0.2960 -0.6015
   12SAPS    HS 1485   2.633   0.526   6.409 -1.5517  0.7939 -2.2218
   12SAPS   O21 1486   2.541   0.655   6.555  0.1680  0.0572  0.2866
   12SAPS   C21 1487   2.449   0.570   6.572  1.5335 -0.6069 -0.1564
   12SAPS   O22 1488   2.431   0.469   6.507 -0.2411 -0.0829 -0.4694
   12SAPS   C22 1489   2.368   0.610   6.692 -0.3758 -0.0327  0.5724
   12SAPS   H2R 1490   2.388   0.717   6.714 -0.3750  0.3163 -1.0622
   12SAPS   H2S 1491   2.262   0.588   6.670 -0.5695  0.0342  1.3955
   12SAPS    C3 1492   2.772   0.674   6.495  0.0952 -0.2480  0.1136
   12SAPS    HX 1493   2.757   0.784   6.496  1.5503 -0.0295  0.6800
   12SAPS    HY 1494   2.853   0.653   6.421 -0.4137  0.5443 -0.6940
   12SAPS   O31 1495   2.797   0.620   6.628 -0.2053  0.3638 -0.4532
   12SAPS   C31 1496   2.824   0.714   6.729 -0.0458  0.2292  0.2091
   12SAPS   O32 1497   2.856   0.831   6.701 -0.5325  0.0731 -0.3467
   12SAPS   C32 1498   2.808   0.653   6.868 -0.6748  0.5400 -0.8760
   12SAPS   H2X 1499   2.906   0.622   6.910 -1.1684  0.7145  0.4671
   12SAPS   H2Y 1500   2.748   0.560   6.863  0.4560 -0.1803 -1.3236
   12SAPS   C23 1501   2.416   0.528   6.811  0.2113 -1.2008  0.8156
   12SAPS   H3R 1502   2.512   0.557   6.859 -0.5139 -0.4922  1.8578
   12SAPS   H3S 1503   2.431   0.421   6.785  0.0477 -0.8867 -0.6488
   12SAPS   C24 1504   2.314   0.539   6.928 -0.2920  0.6064  0.3598
   12SAPS   H4R 1505   2.219   0.510   6.878  0.1087 -0.0087 -0.0479
   12SAPS   H4S 1506   2.303   0.644   6.964 -3.4590  0.2970  0.5945
   12SAPS   C25 1507   2.335   0.434   7.031  0.2435  0.1457 -0.1713
   12SAPS   H5R 1508   2.345   0.328   7.002  0.2739  0.4372 -1.2890
   12SAPS   C26 1509   2.356   0.461   7.159  0.3143 -0.4420 -0.2386
   12SAPS   H6R 1510   2.373   0.370   7.218 -0.8628 -0.0729  0.7281
   12SAPS   C27 1511   2.364   0.596   7.229  0.0292  0.5164 -0.2333
   12SAPS   H7R 1512   2.369   0.684   7.162 -0.1746  0.6467 -0.0786
   12SAPS   H7S 1513   2.469   0.590   7.265 -0.2715  0.8720  0.7527
   12SAPS   C28 1514   2.273   0.616   7.344 -0.2608 -0.0955 -0.0119
   12SAPS   H8R 1515   2.167   0.586   7.346 -0.8913  1.9089 -0.9446
   12SAPS   C29 1516   2.309   0.682   7.452 -0.4080  0.0950 -0.0063
   12SAPS   H9R 1517   2.235   0.683   7.533  0.0441 -0.8849  0.4336
   12SAPS  C210 1518   2.447   0.743   7.478  0.1039 -0.3545  0.3480
   12SAPS  H10R 1519   2.429   0.834   7.539  2.9372 -0.1335  0.9710
   12SAPS  H10S 1520   2.494   0.774   7.382  0.5477 -5.1708 -1.2433
   12SAPS  C211 1521   2.543   0.654   7.548 -0.2324  0.0314 -0.0137
   12SAPS  H11R 1522   2.578   0.576   7.479  1.1058  1.1802 -0.6686
   12SAPS  C212 1523   2.602   0.668   7.671  0.1253  0.4790 -0.8553
   12SAPS  H12R 1524   2.656   0.580   7.708 -1.0260  0.3411  0.5643
   12SAPS  C213 1525   2.586   0.778   7.775 -0.6637  1.0007  0.1424
   12SAPS  H13R 1526   2.601   0.883   7.742  0.4944  0.5938 -0.6669
   12SAPS  H13S 1527   2.669   0.754   7.845 -0.0778 -3.2898 -1.7280
   12SAPS  C214 1528   2.455   0.787   7.846  0.6535  0.0820 -0.2104
   12SAPS  H14R 1529   2.378   0.805   7.769  1.9912 -2.6075 -2.3590
   12SAPS  C215 1530   2.414   0.754   7.971 -0.2105 -0.2036  0.5878
   12SAPS  H15R 1531   2.309   0.757   8.003 -0.6975 -0.6391 -0.8985
   12SAPS  C216 1532   2.509   0.714   8.076 -0.4315  0.3346  0.8599
   12SAPS  H16R 1533   2.512   0.796   8.150 -0.1442  1.1052  0.0138
   12SAPS  H16S 1534   2.609   0.702   8.027 -1.1585 -2.3490 -0.1401
   12SAPS  C217 1535   2.474   0.579   8.137  0.3524  0.1598  0.5004
   12SAPS  H17R 1536   2.460   0.502   8.058  0.4327 -0.0058  0.6464
   12SAPS  H17S 1537   2.373   0.587   8.183  0.1601 -0.5047  0.2032
   12SAPS  C218 1538   2.573   0.544   8.250 -0.3804  0.3987 -0.1396
   12SAPS  H18R 1539   2.563   0.626   8.324 -1.0960 -0.5656  0.8585
   12SAPS  H18S 1540   2.679   0.561   8.221 -0.6449 -2.3132 -3.2720
   12SAPS  C219 1541   2.571   0.396   8.304  0.0608 -0.1843 -0.2748
   12SAPS  H19R 1542   2.591   0.323   8.223 -1.7218 -0.4494 -0.5242
   12SAPS  H19S 1543   2.472   0.378   8.352  0.0571  1.5303  0.4286
   12SAPS  C220 1544   2.667   0.375   8.425 -0.1765  0.3111 -0.2814
   12SAPS  H20R 1545   2.772   0.368   8.389  0.0627  1.7345  0.1025
   12SAPS  H20S 1546   2.644   0.283   8.483 -1.2204 -0.0508 -1.2166
   12SAPS  H20T 1547   2.663   0.457   8.500 -1.4828 -0.4812  0.5524
   12SAPS   C33 1548   2.732   0.756   6.958 -0.0044  0.2236  0.0941
   12SAPS   H3X 1549   2.654   0.804   6.896  1.5286  0.6939 -1.5676
   12SAPS   H3Y 1550   2.799   0.840   6.986  0.4551 -0.1937  0.2660
   12SAPS   C34 1551   2.665   0.695   7.075  0.3412  0.1795 -0.8061
   12SAPS   H4X 1552   2.580   0.629   7.049  0.4889 -0.4725  0.3084
   12SAPS   H4Y 1553   2.632   0.779   7.140  0.8211 -0.5582  0.4082
   12SAPS   C35 1554   2.755   0.617   7.176 -0.4862  0.7454 -0.3490
   12SAPS   H5X 1555   2.808   0.531   7.129 -1.1776 -0.2064  0.5731
   12SAPS   H5Y 1556   2.689   0.567   7.250  0.0875 -1.1139 -1.0262
   12SAPS   C36 1557   2.856   0.706   7.251 -0.5151 -0.2018 -0.2096
   12SAPS   H6X 1558   2.787   0.777   7.303  0.7163  1.7257 -1.0730
   12SAPS   H6Y 1559   2.927   0.760   7.185  0.6852 -0.0571  1.1556
   12SAPS   C37 1560   2.946   0.631   7.349  0.1455  0.2075  1.3792
   12SAPS   H7X 1561   3.008   0.568   7.281 -1.5456  0.4362 -0.4515
   12SAPS   H7Y 1562   2.879   0.578   7.420  1.2233  0.4881  2.6548
   12SAPS   C38 1563   3.029   0.729   7.429  0.1274  0.0647 -0.0121
   12SAPS   H8X 1564   3.101   0.780   7.361 -1.0197 -0.6353 -1.8214
   12SAPS   H8Y 1565   3.089   0.668   7.500  0.6121 -1.5545 -1.7397
   12SAPS   C39 1566   2.945   0.830   7.506  0.0225 -0.0852 -0.2967
   12SAPS   H9X 1567   2.850   0.784   7.540 -0.5983  1.2965 -0.0955
   12SAPS   H9Y 1568   2.917   0.916   7.442 -1.6753 -1.2266 -1.1499
   12SAPS  C310 1569   3.014   0.888   7.636  0.2802 -0.2595  0.1141
   12SAPS  H10X 1570   3.083   0.974   7.623 -0.8993  0.6827 -0.1083
   12SAPS  H10Y 1571   3.061   0.804   7.691  2.2872  1.1067  0.6041
   12SAPS  C311 1572   2.911   0.944   7.746  0.0377 -0.7730 -0.0762
   12SAPS  H11X 1573   2.812   0.894   7.742 -0.8447  0.9295 -0.6474
   12SAPS  H11Y 1574   2.888   1.053   7.745 -0.1314 -0.7998 -1.5025
   12SAPS  C312 1575   2.967   0.912   7.892  0.7024  0.2272  0.0185
   12SAPS  H12X 1576   3.059   0.968   7.917  1.4562 -0.2998 -1.4985
   12SAPS  H12Y 1577   2.983   0.802   7.895  0.7455  0.2433  1.6850
   12SAPS  C313 1578   2.868   0.934   8.001  0.0742 -0.0806  0.7743
   12SAPS  H13X 1579   2.769   0.888   7.980 -0.0400  0.0081  1.1069
   12SAPS  H13Y 1580   2.846   1.040   8.027 -2.2993 -0.5342  0.8264
   12SAPS  C314 1581   2.911   0.885   8.141  0.6838  0.0633 -0.3953
   12SAPS  H14X 1582   2.830   0.912   8.212 -0.8821 -1.9143 -1.3280
   12SAPS  H14Y 1583   3.001   0.931   8.187  1.5874 -0.5533 -1.4976
   12SAPS  C315 1584   2.927   0.732   8.150  0.0579  0.7019 -0.4942
   12SAPS  H15X 1585   3.017   0.701   8.093 -0.7417  0.1446 -1.5014
   12SAPS  H15Y 1586   2.837   0.694   8.095 -0.5429 -1.0714  1.5723
   12SAPS  C316 1587   2.917   0.687   8.296  0.1449  0.5143 -1.1049
   12SAPS  H16X 1588   2.812   0.659   8.321  0.9240 -2.3680 -0.6804
   12SAPS  H16Y 1589   2.944   0.781   8.348  0.1986  0.5509 -1.1969
   12SAPS  C317 1590   3.017   0.572   8.326  0.3011  0.5017 -0.0760
   12SAPS  H17X 1591   2.999   0.506   8.238 -4.2466 -0.6158  1.4239
   12SAPS  H17Y 1592   2.990   0.506   8.411  0.1227 -1.4461 -1.5716
   12SAPS  C318 1593   3.160   0.628   8.346  0.1463  0.2854  0.2929
   12SAPS  H18X 1594   3.178   0.703   8.267 -0.9138  2.0278  1.6273
   12SAPS  H18Y 1595   3.235   0.546   8.344  1.6831  1.6633 -0.9455
   12SAPS  H18Z 1596   3.177   0.682   8.442  0.6013  0.6650 -0.0033
   13SAPS     N 1597   2.618   2.198   5.980 -0.4458  0.0982  0.2253
   13SAPS   HN1 1598   2.674   2.170   5.896 -3.3787  0.6960 -2.0872
   13SAPS   HN2 1599   2.542   2.127   5.983 -0.1109 -0.2757  0.0287
   13SAPS   HN3 1600   2.572   2.288   5.956 -0.1202  0.1635 -0.1776
   13SAPS   C12 1601   2.709   2.216   6.100 -0.1527 -0.2460  0.8829
   13SAPS  H12A 1602   2.790   2.149   6.075 -0.4578 -0.9169  1.6359
   13SAPS   C13 1603   2.759   2.362   6.112 -0.3260 -0.1733 -0.6008
   13SAPS  O13A 1604   2.752   2.439   6.010  0.0245  0.3096  0.0833
   13SAPS  O13B 1605   2.842   2.389   6.209 -0.1013 -0.2579  0.5388
   13SAPS   C11 1606   2.631   2.169   6.227  0.3403 -0.8129 -1.1023
   13SAPS  H11A 1607   2.701   2.155   6.312 -0.8398  1.4772  0.3879
   13SAPS  H11B 1608   2.599   2.066   6.203 -1.9689 -0.2947 -0.5666
   13SAPS     P 1609   2.365   2.216   6.253  0.3098  0.1422  0.1419
   13SAPS   O13 1610   2.283   2.336   6.269  0.2803 -0.2412  0.2121
   13SAPS   O14 1611   2.339   2.131   6.136  0.1559 -0.1907  0.9030
   13SAPS   O12 1612   2.521   2.264   6.266  0.4275  0.4312 -0.0604
   13SAPS   O11 1613   2.353   2.136   6.390  0.2460 -0.6130  0.0596
   13SAPS    C1 1614   2.433   2.150   6.508 -0.3645 -0.0846 -0.5054
   13SAPS    HA 1615   2.408   2.056   6.562 -1.7189  0.1266 -0.7443
   13SAPS    HB 1616   2.542   2.145   6.485 -0.3722 -0.3193 -0.4941
   13SAPS    C2 1617   2.389   2.271   6.594  0.1450 -0.2446 -0.0891
   13SAPS    HS 1618   2.436   2.352   6.536 -2.2176  0.5266 -1.0686
   13SAPS   O21 1619   2.462   2.268   6.721  0.3321  0.5026 -0.0454
   13SAPS   C21 1620   2.475   2.391   6.781 -0.7457  0.3127  0.2577
   13SAPS   O22 1621   2.433   2.500   6.747  0.0454  0.6131  0.2849
   13SAPS   C22 1622   2.557   2.368   6.913 -0.5344 -0.6323  0.0882
   13SAPS   H2R 1623   2.519   2.268   6.943 -1.0734 -0.7564 -0.9472
   13SAPS   H2S 1624   2.665   2.367   6.890 -1.0813 -0.3281 -2.9508
   13SAPS    C3 1625   2.234   2.286   6.604  0.6542  0.2846  0.6393
   13SAPS    HX 1626   2.199   2.185   6.635  3.5135 -0.4916  1.6809
   13SAPS    HY 1627   2.201   2.287   6.498  0.4943 -0.0838  0.6855
   13SAPS   O31 1628   2.182   2.392   6.688 -0.4172 -0.0363 -0.2038
   13SAPS   C31 1629   2.053   2.418   6.668 -0.9985  0.1626 -0.4192
   13SAPS   O32 1630   1.986   2.375   6.576  0.2308 -0.0263 -0.0884
   13SAPS   C32 1631   2.018   2.529   6.781 -0.8661 -0.4830  0.0323
   13SAPS   H2X 1632   1.908   2.526   6.768 -0.8496 -1.1853  0.0081
   13SAPS   H2Y 1633   2.062   2.623   6.742  0.6095 -0.7055  1.0608
   13SAPS   C23 1634   2.526   2.474   7.026  0.3138 -0.5259 -0.0109
   13SAPS   H3R 1635   2.415   2.478   7.028  0.3111 -0.6515  0.1534
   13SAPS   H3S 1636   2.551   2.577   6.992  1.7763 -0.5102  1.0186
   13SAPS   C24 1637   2.578   2.441   7.166 -0.2676  0.0849  0.2799
   13SAPS   H4R 1638   2.680   2.477   7.187  0.6698 -1.1415 -1.8285
   13SAPS   H4S 1639   2.584   2.330   7.168 -0.9917  0.0369  0.2220
   13SAPS   C25 1640   2.482   2.502   7.267 -0.2926  0.2481 -0.1862
   13SAPS   H5R 1641   2.393   2.556   7.230 -0.5286  1.6726  2.2258
   13SAPS   C26 1642   2.492   2.495   7.403  0.5743  0.4587  0.1546
   13SAPS   H6R 1643   2.411   2.528   7.469 -0.6471 -0.3099 -0.8923
   13SAPS   C27 1644   2.609   2.431   7.477 -0.2703  0.2979 -0.0127
   13SAPS   H7R 1645   2.664   2.513   7.528  0.5049 -1.1981  1.7051
   13SAPS   H7S 1646   2.693   2.388   7.419  0.3286  3.5329 -1.8098
   13SAPS   C28 1647   2.567   2.328   7.579 -0.4809  0.0507 -0.8245
   13SAPS   H8R 1648   2.566   2.222   7.552 -0.1014 -0.1975  0.0728
   13SAPS   C29 1649   2.557   2.336   7.714 -0.1622  0.1209 -0.9560
   13SAPS   H9R 1650   2.529   2.243   7.767  0.3937  0.4880  0.0032
   13SAPS  C210 1651   2.572   2.455   7.807  0.3846  0.0537  0.3178
   13SAPS  H10R 1652   2.490   2.450   7.881 -1.0406 -0.4798 -1.2341
   13SAPS  H10S 1653   2.551   2.550   7.754  2.7810  1.5191  1.7683
   13SAPS  C211 1654   2.704   2.451   7.869 -0.0423  0.2330 -0.1025
   13SAPS  H11R 1655   2.788   2.442   7.798 -1.0304  1.0344 -1.4212
   13SAPS  C212 1656   2.735   2.447   7.997  0.1224  0.0877 -0.1950
   13SAPS  H12R 1657   2.842   2.434   8.016  0.0908  1.0603  0.7203
   13SAPS  C213 1658   2.647   2.456   8.115 -0.2416 -0.4054 -0.7075
   13SAPS  H13R 1659   2.693   2.393   8.193  0.4988 -1.5174 -2.0054
   13SAPS  H13S 1660   2.549   2.404   8.103  2.2744 -5.6149 -1.4036
   13SAPS  C214 1661   2.624   2.600   8.152 -0.2557  0.4938  0.2971
   13SAPS  H14R 1662   2.622   2.672   8.069  2.1328  0.1889 -0.0891
   13SAPS  C215 1663   2.588   2.640   8.277  0.4922  1.1818  0.6295
   13SAPS  H15R 1664   2.577   2.748   8.296  0.6733  1.2314  0.4453
   13SAPS  C216 1665   2.562   2.547   8.396  0.0738 -0.3856  0.1237
   13SAPS  H16R 1666   2.625   2.456   8.398 -0.0624 -0.4904 -0.2669
   13SAPS  H16S 1667   2.459   2.507   8.385 -0.2117  0.4936 -0.5578
   13SAPS  C217 1668   2.585   2.608   8.538  0.0553  0.3283  0.7590
   13SAPS  H17R 1669   2.550   2.533   8.611  0.7912 -0.2201  0.5655
   13SAPS  H17S 1670   2.537   2.705   8.561 -1.1336 -0.1050  0.1752
   13SAPS  C218 1671   2.734   2.634   8.568  0.7434 -0.4111  0.1418
   13SAPS  H18R 1672   2.770   2.710   8.495 -2.9117  1.2905 -0.1193
   13SAPS  H18S 1673   2.794   2.541   8.554  2.5666  0.4242  1.9986
   13SAPS  C219 1674   2.755   2.676   8.717 -0.0877  0.4641  0.2051
   13SAPS  H19R 1675   2.692   2.599   8.765  1.0064 -1.2099 -0.9194
   13SAPS  H19S 1676   2.712   2.778   8.727 -2.0096 -0.2333 -0.5653
   13SAPS  C220 1677   2.898   2.667   8.745  0.4910 -0.1951  0.4922
   13SAPS  H20R 1678   2.942   2.736   8.669 -0.4792  1.7424  1.5968
   13SAPS  H20S 1679   2.942   2.565   8.738  1.5722  0.1406  1.7494
   13SAPS  H20T 1680   2.934   2.695   8.847 -0.6111  0.5111  0.7039
   13SAPS   C33 1681   2.066   2.495   6.930  0.2135 -0.1518 -0.3910
   13SAPS   H3X 1682   2.174   2.468   6.934 -0.2239 -1.9424  2.2672
   13SAPS   H3Y 1683   2.010   2.404   6.962 -1.5311  0.6304 -1.1156
   13SAPS   C34 1684   2.048   2.605   7.030 -0.3085  0.2450 -0.5932
   13SAPS   H4X 1685   1.945   2.646   7.037 -0.1493  0.8631 -1.7958
   13SAPS   H4Y 1686   2.104   2.695   6.997  1.0475 -0.7449 -1.0881
   13SAPS   C35 1687   2.103   2.570   7.173 -0.5329  0.0794 -0.1144
   13SAPS   H5X 1688   2.209   2.541   7.159 -0.2340  1.9881 -2.3599
   13SAPS   H5Y 1689   2.041   2.489   7.215  0.4334  0.7747  2.9572
   13SAPS   C36 1690   2.092   2.684   7.273  0.2923 -0.5468 -0.4567
   13SAPS   H6X 1691   1.997   2.740   7.259  1.0570  1.2289  0.9968
   13SAPS   H6Y 1692   2.169   2.764   7.262  0.0762 -0.2684  0.0176
   13SAPS   C37 1693   2.095   2.635   7.419 -1.0340  0.7398  0.6067
   13SAPS   H7X 1694   2.189   2.575   7.427 -1.3721 -0.0237 -0.9132
   13SAPS   H7Y 1695   2.026   2.549   7.430  0.7264 -0.7457  0.5462
   13SAPS   C38 1696   2.080   2.743   7.530 -0.4431  0.5304  0.2478
   13SAPS   H8X 1697   1.974   2.774   7.538 -0.0731  2.1292 -0.7107
   13SAPS   H8Y 1698   2.152   2.826   7.511  0.5677 -0.1171  1.1273
   13SAPS   C39 1699   2.118   2.678   7.665 -1.1147 -0.7938 -0.0889
   13SAPS   H9X 1700   2.228   2.662   7.671 -0.8828  0.9183  0.9728
   13SAPS   H9Y 1701   2.071   2.577   7.669 -1.1416 -0.8798 -1.8880
   13SAPS  C310 1702   2.074   2.765   7.782  0.4523  0.2678 -0.2506
   13SAPS  H10X 1703   1.995   2.712   7.839  1.0022 -0.9001 -0.5606
   13SAPS  H10Y 1704   2.035   2.858   7.735 -0.8092 -2.1196 -4.4517
   13SAPS  C311 1705   2.191   2.759   7.882  0.2114 -0.1676  0.6423
   13SAPS  H11X 1706   2.287   2.790   7.834 -0.4688 -0.7326 -1.1563
   13SAPS  H11Y 1707   2.197   2.652   7.913 -0.1875 -0.3274  0.1912
   13SAPS  C312 1708   2.148   2.846   8.004  0.3976  0.5941 -0.1686
   13SAPS  H12X 1709   2.068   2.787   8.053  4.0412 -3.9391  1.0739
   13SAPS  H12Y 1710   2.122   2.945   7.962  0.9133  0.4500 -0.8527
   13SAPS  C313 1711   2.257   2.859   8.103  0.2039  0.1519 -0.4549
   13SAPS  H13X 1712   2.329   2.935   8.064  0.9583 -0.4319 -0.2235
   13SAPS  H13Y 1713   2.323   2.770   8.104  0.9754  0.7062 -0.2974
   13SAPS  C314 1714   2.202   2.891   8.244 -0.0591 -0.5055  0.2728
   13SAPS  H14X 1715   2.124   2.816   8.270 -2.4807  1.3023 -1.2841
   13SAPS  H14Y 1716   2.152   2.988   8.226 -0.9972 -1.0121  0.0677
   13SAPS  C315 1717   2.303   2.875   8.354  0.5683  0.4687 -0.3296
   13SAPS  H15X 1718   2.388   2.942   8.330 -0.2412  1.2598 -1.0653
   13SAPS  H15Y 1719   2.334   2.769   8.365 -0.2955  0.1430 -0.8951
   13SAPS  C316 1720   2.250   2.910   8.489 -0.2765  0.4711 -0.5375
   13SAPS  H16X 1721   2.320   2.879   8.570  0.8352  2.0486 -0.8562
   13SAPS  H16Y 1722   2.156   2.852   8.506  0.5732 -0.5607  0.8929
   13SAPS  C317 1723   2.226   3.058   8.508  0.2689 -0.7411  0.1109
   13SAPS  H17X 1724   2.154   3.101   8.435  2.3071 -0.6078 -1.9215
   13SAPS  H17Y 1725   2.315   3.116   8.476 -0.3579 -1.1324 -2.6039
   13SAPS  C318 1726   2.184   3.092   8.654 -0.0393  0.5558 -0.1524
   13SAPS  H18X 1727   2.145   3.196   8.654  1.9114  1.3362 -0.8527
   13SAPS  H18Y 1728   2.273   3.080   8.719 -0.6587  0.2820  0.6619
   13SAPS  H18Z 1729   2.110   3.018   8.691  2.0678 -2.0661 -0.8541
   14SAPS     N 1730   2.675   6.277   5.920  0.2865 -0.8143 -0.4272
   14SAPS   HN1 1731   2.609   6.326   5.984  2.0177  1.2767 -0.1695
   14SAPS   HN2 1732   2.625   6.202   5.867 -3.9159  1.1034  0.4108
   14SAPS   HN3 1733   2.741   6.233   5.987  1.2492 -1.8103 -1.9638
   14SAPS   C12 1734   2.721   6.378   5.823  0.0641  0.0112  0.7769
   14SAPS  H12A 1735   2.774   6.320   5.749 -0.7804  1.6662 -1.2175
   14SAPS   C13 1736   2.611   6.456   5.748 -0.4520 -0.2613 -0.0857
   14SAPS  O13A 1737   2.497   6.454   5.803  0.6393 -0.1537  0.2360
   14SAPS  O13B 1738   2.633   6.543   5.660  0.3412  0.1839  0.1493
   14SAPS   C11 1739   2.816   6.487   5.895  0.0805 -0.4263 -0.5342
   14SAPS  H11A 1740   2.759   6.522   5.984  2.2430 -2.0119  1.5962
   14SAPS  H11B 1741   2.834   6.575   5.829 -0.6760 -0.5857 -0.9698
   14SAPS     P 1742   3.043   6.510   6.030 -0.0804  0.3256  0.6553
   14SAPS   O13 1743   3.137   6.406   6.084 -0.1255 -0.3771  0.5784
   14SAPS   O14 1744   3.106   6.619   5.950  0.1089 -0.1413 -0.2701
   14SAPS   O12 1745   2.938   6.434   5.940 -0.2071  0.8015  0.8699
   14SAPS   O11 1746   2.970   6.565   6.161 -0.8201  0.2824  0.1290
   14SAPS    C1 1747   2.880   6.489   6.234  0.1701  0.4018 -0.4742
   14SAPS    HA 1748   2.783   6.542   6.245 -0.0347 -0.0269 -0.1841
   14SAPS    HB 1749   2.846   6.394   6.187 -0.5102  0.8764 -0.9730
   14SAPS    C2 1750   2.921   6.456   6.382  0.2953 -0.3954  0.2274
   14SAPS    HS 1751   2.842   6.393   6.428  0.2087  0.0479  0.7005
   14SAPS   O21 1752   2.942   6.581   6.451 -0.1072 -0.0147 -0.5780
   14SAPS   C21 1753   2.824   6.635   6.503 -0.0917 -0.5466  0.0616
   14SAPS   O22 1754   2.710   6.596   6.492 -0.2294  0.1466  0.2349
   14SAPS   C22 1755   2.869   6.751   6.590  1.0977  0.1667 -0.2441
   14SAPS   H2R 1756   2.930   6.705   6.672 -0.8031 -1.4896  0.3329
   14SAPS   H2S 1757   2.928   6.820   6.527  2.0081 -1.0839 -0.8090
   14SAPS    C3 1758   3.052   6.378   6.385 -0.0974 -0.3324  0.1164
   14SAPS    HX 1759   3.141   6.433   6.347  0.7043 -1.2357  0.6385
   14SAPS    HY 1760   3.040   6.297   6.310 -0.2656  0.2719 -0.5188
   14SAPS   O31 1761   3.081   6.331   6.515  0.2284  0.3625 -0.7465
   14SAPS   C31 1762   3.198   6.256   6.516  0.6998  1.9146 -0.3357
   14SAPS   O32 1763   3.286   6.258   6.438  0.8792 -0.1581  0.4121
   14SAPS   C32 1764   3.210   6.176   6.650 -0.3322 -0.0517  0.1026
   14SAPS   H2X 1765   3.306   6.120   6.646 -1.6965 -2.5434  0.2201
   14SAPS   H2Y 1766   3.130   6.099   6.650 -1.1675  0.8012 -0.5260
   14SAPS   C23 1767   2.756   6.836   6.656 -0.1358  0.4349 -0.0197
   14SAPS   H3R 1768   2.676   6.770   6.696 -2.3745  2.5040 -0.8306
   14SAPS   H3S 1769   2.711   6.898   6.576  1.6000  0.3593 -1.1050
   14SAPS   C24 1770   2.812   6.923   6.771 -0.8177  0.6420  0.4064
   14SAPS   H4R 1771   2.904   6.965   6.725  0.2334 -1.1443  0.7987
   14SAPS   H4S 1772   2.847   6.849   6.846 -0.6992 -2.1377 -2.2331
   14SAPS   C25 1773   2.710   7.030   6.817 -0.3927  0.8178  0.2489
   14SAPS   H5R 1774   2.654   7.073   6.733  1.1773 -0.5446 -1.5575
   14SAPS   C26 1775   2.681   7.049   6.949  0.0187 -0.1067  0.4725
   14SAPS   H6R 1776   2.605   7.123   6.980 -1.0597 -0.8579 -0.2998
   14SAPS   C27 1777   2.751   6.978   7.059  0.4930  0.1883  0.1893
   14SAPS   H7R 1778   2.859   6.967   7.038  0.1583  0.9559 -2.2064
   14SAPS   H7S 1779   2.726   6.871   7.042 -1.0936  0.0044  3.0077
   14SAPS   C28 1780   2.709   7.024   7.199 -0.1664 -0.0203  0.0557
   14SAPS   H8R 1781   2.765   7.109   7.243 -0.4213 -0.2898  0.9176
   14SAPS   C29 1782   2.613   6.980   7.275  0.2281 -0.1103 -0.7097
   14SAPS   H9R 1783   2.586   7.042   7.361  1.2703  1.7167 -1.6218
   14SAPS  C210 1784   2.512   6.871   7.243 -0.6248 -0.4826 -0.2185
   14SAPS  H10R 1785   2.544   6.780   7.299 -1.0192 -1.7255 -1.9337
   14SAPS  H10S 1786   2.505   6.840   7.137 -1.9143 -2.7447  0.4426
   14SAPS  C211 1787   2.370   6.889   7.290  0.6168  0.3412 -0.6497
   14SAPS  H11R 1788   2.292   6.881   7.213 -0.1813  1.4566  0.0090
   14SAPS  C212 1789   2.318   6.938   7.403 -0.5037 -1.3875  0.1094
   14SAPS  H12R 1790   2.208   6.944   7.402 -0.4154  0.8400 -0.6404
   14SAPS  C213 1791   2.384   6.977   7.532  0.1347 -0.9974 -0.8765
   14SAPS  H13R 1792   2.495   6.973   7.535  0.1026 -1.1610  0.6349
   14SAPS  H13S 1793   2.338   6.918   7.614  0.6590 -0.5626 -0.2638
   14SAPS  C214 1794   2.358   7.131   7.547  1.5597  1.0872  0.5969
   14SAPS  H14R 1795   2.319   7.175   7.454  1.4659 -0.9585 -0.3775
   14SAPS  C215 1796   2.355   7.195   7.665 -0.4319 -0.1602  0.4816
   14SAPS  H15R 1797   2.329   7.301   7.672 -0.5986 -0.2793  2.2453
   14SAPS  C216 1798   2.384   7.126   7.797  0.6168  0.0890  0.4960
   14SAPS  H16R 1799   2.452   7.192   7.855  0.9185 -1.0299  1.4505
   14SAPS  H16S 1800   2.441   7.031   7.789  1.2431  0.5007  0.0058
   14SAPS  C217 1801   2.255   7.120   7.900  0.1969 -0.6072  0.5467
   14SAPS  H17R 1802   2.169   7.065   7.856 -0.3121 -0.3922  1.2698
   14SAPS  H17S 1803   2.227   7.226   7.914 -0.4644 -0.8839  1.3436
   14SAPS  C218 1804   2.286   7.070   8.039  0.2717 -0.2534  0.4380
   14SAPS  H18R 1805   2.373   7.120   8.085 -1.6929  1.0887  2.9817
   14SAPS  H18S 1806   2.309   6.964   8.014 -0.5201  0.3546 -3.5656
   14SAPS  C219 1807   2.173   7.071   8.138 -0.0533  0.1825  0.3366
   14SAPS  H19R 1808   2.089   7.015   8.093 -0.3089  1.7625 -1.2494
   14SAPS  H19S 1809   2.143   7.177   8.152  1.6429  0.7689 -0.1625
   14SAPS  C220 1810   2.204   7.012   8.273 -0.3562 -0.1989  0.4144
   14SAPS  H20R 1811   2.249   6.910   8.269  1.5007  0.6131 -0.3085
   14SAPS  H20S 1812   2.106   7.014   8.325 -1.2585  0.3586 -1.2071
   14SAPS  H20T 1813   2.265   7.083   8.331 -1.5068  1.8504 -0.7700
   14SAPS   C33 1814   3.214   6.255   6.784 -0.0312  0.9834 -0.5314
   14SAPS   H3X 1815   3.123   6.318   6.795 -0.2234  0.6680 -0.2852
   14SAPS   H3Y 1816   3.295   6.331   6.781 -0.0493  1.1822  1.8780
   14SAPS   C34 1817   3.226   6.164   6.913 -0.3748 -0.0295  0.4057
   14SAPS   H4X 1818   3.329   6.124   6.917 -0.5985 -0.5616  0.8437
   14SAPS   H4Y 1819   3.149   6.084   6.910  0.5362 -0.8910 -0.8078
   14SAPS   C35 1820   3.206   6.246   7.040 -0.0812  0.6172  0.4762
   14SAPS   H5X 1821   3.104   6.284   7.061  0.0938  2.4551 -1.7423
   14SAPS   H5Y 1822   3.274   6.333   7.035 -0.1438  0.6317 -0.1755
   14SAPS   C36 1823   3.246   6.168   7.162  0.0061 -0.2587  0.2368
   14SAPS   H6X 1824   3.356   6.155   7.151  0.0984  0.6540 -0.0647
   14SAPS   H6Y 1825   3.194   6.071   7.168 -0.0375 -0.1799  1.2741
   14SAPS   C37 1826   3.219   6.249   7.299 -0.7205  0.0857 -0.1498
   14SAPS   H7X 1827   3.116   6.247   7.339 -0.1931  0.7274  1.2999
   14SAPS   H7Y 1828   3.250   6.353   7.276  1.9179 -0.7279 -0.6103
   14SAPS   C38 1829   3.307   6.191   7.404 -0.0265 -0.2640 -0.3979
   14SAPS   H8X 1830   3.412   6.209   7.372  0.1555  0.5822  0.6192
   14SAPS   H8Y 1831   3.283   6.087   7.432 -0.6575 -0.2013 -0.6933
   14SAPS   C39 1832   3.285   6.274   7.537 -0.2167 -0.2194  0.5850
   14SAPS   H9X 1833   3.178   6.263   7.563 -0.6723 -0.9377 -1.4305
   14SAPS   H9Y 1834   3.298   6.384   7.526 -0.9424 -0.3636 -2.7329
   14SAPS  C310 1835   3.372   6.234   7.660  0.0163  0.4381 -0.2573
   14SAPS  H10X 1836   3.481   6.238   7.637  0.4530  0.5002  1.6662
   14SAPS  H10Y 1837   3.353   6.127   7.682  0.1228  0.8899  2.3125
   14SAPS  C311 1838   3.342   6.310   7.785 -0.3198 -0.6163 -0.6611
   14SAPS  H11X 1839   3.231   6.322   7.782 -0.2697 -0.1475 -0.7154
   14SAPS  H11Y 1840   3.381   6.413   7.800 -3.4974  0.3501  2.5178
   14SAPS  C312 1841   3.382   6.230   7.908  0.1999  0.2785 -0.0889
   14SAPS  H12X 1842   3.492   6.209   7.911  0.1037 -0.1612  1.3961
   14SAPS  H12Y 1843   3.327   6.134   7.899 -1.8717  1.4323 -0.3198
   14SAPS  C313 1844   3.344   6.285   8.043 -0.2774 -0.0941 -0.0918
   14SAPS  H13X 1845   3.237   6.314   8.040 -0.3143 -0.2989 -0.8553
   14SAPS  H13Y 1846   3.405   6.374   8.071  1.5460 -1.1679 -0.4564
   14SAPS  C314 1847   3.357   6.183   8.160 -0.2788  0.0378  0.2455
   14SAPS  H14X 1848   3.466   6.169   8.182 -0.4197  0.7967  1.5157
   14SAPS  H14Y 1849   3.329   6.079   8.132  2.7127 -1.1925  1.3489
   14SAPS  C315 1850   3.296   6.232   8.289  0.7982 -0.1819  0.1037
   14SAPS  H15X 1851   3.187   6.239   8.267  0.5923 -0.5566  0.9512
   14SAPS  H15Y 1852   3.328   6.336   8.308 -0.7096  0.6430 -1.6141
   14SAPS  C316 1853   3.317   6.139   8.411  0.0377  0.5996  0.2796
   14SAPS  H16X 1854   3.308   6.201   8.503  0.3577 -0.5219  1.0784
   14SAPS  H16Y 1855   3.420   6.096   8.410  0.2410  0.9253  2.2692
   14SAPS  C317 1856   3.200   6.037   8.409 -0.4722  0.0129 -0.2542
   14SAPS  H17X 1857   3.176   6.013   8.304 -1.2976  1.0088 -0.3090
   14SAPS  H17Y 1858   3.112   6.096   8.443 -0.3121 -0.2480  0.6482
   14SAPS  C318 1859   3.226   5.911   8.498 -0.0195 -0.9570  0.4725
   14SAPS  H18X 1860   3.326   5.868   8.473  0.0734 -1.2225  1.2794
   14SAPS  H18Y 1861   3.140   5.842   8.488 -0.9469  0.3401 -0.8796
   14SAPS  H18Z 1862   3.224   5.942   8.604  0.6793 -2.1462  0.8570
   15SAPS     N 1863   3.777   1.116   5.955 -0.3834 -0.1348 -0.3101
   15SAPS   HN1 1864   3.673   1.109   5.947 -0.3396 -0.7224 -0.4496
   15SAPS   HN2 1865   3.811   1.083   6.047  0.1547 -0.8029 -0.7348
   15SAPS   HN3 1866   3.820   1.210   5.951  2.2925 -1.1063  2.1382
   15SAPS   C12 1867   3.853   1.023   5.874  0.0577 -0.4946 -0.0549
   15SAPS  H12A 1868   3.814   1.029   5.774 -0.3166 -0.1112  0.1131
   15SAPS   C13 1869   4.004   1.055   5.873  1.0180 -0.5824  0.0916
   15SAPS  O13A 1870   4.051   1.161   5.923  0.3895  0.3603 -0.2746
   15SAPS  O13B 1871   4.071   0.988   5.789 -0.2402  0.1668  0.3092
   15SAPS   C11 1872   3.832   0.882   5.924  0.5210  0.5452 -0.2741
   15SAPS  H11A 1873   3.872   0.880   6.028  0.3876  2.1547 -0.1693
   15SAPS  H11B 1874   3.893   0.818   5.857 -0.3799  1.1376 -1.7066
   15SAPS     P 1875   3.653   0.696   5.944  0.1363  0.4807 -0.1166
   15SAPS   O13 1876   3.523   0.704   6.011  0.0601 -0.0837  0.0624
   15SAPS   O14 1877   3.670   0.617   5.825  0.8416 -0.6996 -0.1639
   15SAPS   O12 1878   3.695   0.849   5.911  0.3190  1.0087 -0.4783
   15SAPS   O11 1879   3.770   0.655   6.044 -0.1076 -0.0106 -0.0996
   15SAPS    C1 1880   3.752   0.674   6.183  0.0363  0.0655 -0.7257
   15SAPS    HA 1881   3.716   0.775   6.212  1.0112 -0.0341  0.9445
   15SAPS    HB 1882   3.681   0.602   6.229 -1.4258  1.2761 -1.0143
   15SAPS    C2 1883   3.894   0.656   6.261 -0.2105 -0.6681  0.7641
   15SAPS    HS 1884   3.953   0.736   6.211 -0.0105 -2.3866 -1.9860
   15SAPS   O21 1885   3.961   0.530   6.231 -0.2772  0.0014  0.0606
   15SAPS   C21 1886   4.087   0.530   6.280  0.0017  0.2749  0.0364
   15SAPS   O22 1887   4.154   0.623   6.316  0.0269  0.0459 -0.1567
   15SAPS   C22 1888   4.134   0.389   6.272 -0.2291  0.6163 -1.1110
   15SAPS   H2R 1889   4.048   0.323   6.251 -1.2024  1.1879  0.8129
   15SAPS   H2S 1890   4.202   0.372   6.186 -2.6495  1.0512 -3.2387
   15SAPS    C3 1891   3.875   0.677   6.416 -0.0441  0.3264  0.4830
   15SAPS    HX 1892   3.845   0.783   6.413 -1.2083 -0.0017 -0.2063
   15SAPS    HY 1893   3.964   0.668   6.482 -0.7159  0.8247  1.4880
   15SAPS   O31 1894   3.765   0.607   6.476  0.0538  0.3030  0.2697
   15SAPS   C31 1895   3.790   0.480   6.492 -0.5767  1.0185 -1.1584
   15SAPS   O32 1896   3.905   0.433   6.486  0.3690  0.3241  0.0442
   15SAPS   C32 1897   3.660   0.402   6.496 -0.2327 -1.1162  0.0141
   15SAPS   H2X 1898   3.600   0.429   6.406  0.0759  1.7041  0.5488
   15SAPS   H2Y 1899   3.599   0.442   6.579  0.4464 -0.8432  0.3863
   15SAPS   C23 1900   4.198   0.332   6.401 -0.4295  0.5792 -0.1515
   15SAPS   H3R 1901   4.126   0.348   6.484 -1.8505 -0.9676 -1.0136
   15SAPS   H3S 1902   4.283   0.397   6.431 -1.3211  2.2997 -1.2295
   15SAPS   C24 1903   4.229   0.182   6.389 -0.3794  0.2705 -0.5474
   15SAPS   H4R 1904   4.309   0.148   6.457 -0.3281  0.6820 -0.4006
   15SAPS   H4S 1905   4.273   0.172   6.287 -0.3943 -1.5483 -0.4072
   15SAPS   C25 1906   4.108   0.096   6.408 -0.1379  0.0784  0.0855
   15SAPS   H5R 1907   4.048   0.094   6.315  1.5449 -3.1321 -1.0978
   15SAPS   C26 1908   4.075   0.031   6.517  0.7506  0.6142 -0.6691
   15SAPS   H6R 1909   3.991  -0.036   6.494  0.4749  0.4411  0.7667
   15SAPS   C27 1910   4.140   0.027   6.652  0.6643 -0.2843 -0.4455
   15SAPS   H7R 1911   4.211   0.112   6.660  1.4575 -1.0867  1.7726
   15SAPS   H7S 1912   4.212  -0.057   6.658  1.2450  0.2876  0.9739
   15SAPS   C28 1913   4.040   0.025   6.771  0.2517 -0.1902 -0.3117
   15SAPS   H8R 1914   3.960  -0.050   6.761 -1.2116  1.2447  0.1007
   15SAPS   C29 1915   4.027   0.097   6.885  0.7443 -0.3451  0.5835
   15SAPS   H9R 1916   3.932   0.088   6.941 -1.2749  1.0663 -2.3577
   15SAPS  C210 1917   4.119   0.202   6.928 -0.6973 -0.2786 -0.4443
   15SAPS  H10R 1918   4.060   0.264   7.000  0.2473 -0.8826  0.9020
   15SAPS  H10S 1919   4.136   0.276   6.848 -2.3535  1.0344  0.3538
   15SAPS  C211 1920   4.257   0.156   6.978 -0.2431  0.3216 -0.9979
   15SAPS  H11R 1921   4.323   0.118   6.899 -1.1238 -1.3396 -0.9769
   15SAPS  C212 1922   4.293   0.159   7.109  0.2276 -0.6064  0.2325
   15SAPS  H12R 1923   4.389   0.115   7.141  0.2734  0.4459  1.6216
   15SAPS  C213 1924   4.206   0.207   7.225  0.2519  0.7544  1.6226
   15SAPS  H13R 1925   4.201   0.119   7.293  1.9400  0.6157  1.6108
   15SAPS  H13S 1926   4.101   0.214   7.189  0.7222  1.3670  0.3066
   15SAPS  C214 1927   4.248   0.330   7.290  0.3887 -0.4983 -0.1183
   15SAPS  H14R 1928   4.240   0.423   7.231  0.1348  0.7674  1.8239
   15SAPS  C215 1929   4.297   0.344   7.412 -0.3223  0.0284 -0.1460
   15SAPS  H15R 1930   4.314   0.445   7.451  2.9525 -0.2014 -0.7106
   15SAPS  C216 1931   4.319   0.233   7.511 -0.0472 -0.6371 -0.1722
   15SAPS  H16R 1932   4.426   0.221   7.537 -0.0781 -0.1437  0.1945
   15SAPS  H16S 1933   4.295   0.131   7.475 -0.9304 -0.4703 -0.0945
   15SAPS  C217 1934   4.208   0.233   7.623  0.2589 -0.2715 -0.3688
   15SAPS  H17R 1935   4.197   0.134   7.673 -1.0224 -0.1423 -0.3658
   15SAPS  H17S 1936   4.108   0.265   7.590 -0.4299 -0.7673  1.1418
   15SAPS  C218 1937   4.252   0.332   7.737 -1.0392  0.1750 -0.0261
   15SAPS  H18R 1938   4.217   0.435   7.715 -1.4094  0.0933  0.1704
   15SAPS  H18S 1939   4.362   0.335   7.749 -0.8256  2.4232 -1.8458
   15SAPS  C219 1940   4.186   0.285   7.868 -0.6833  0.0883 -0.5884
   15SAPS  H19R 1941   4.233   0.194   7.910 -0.6681  0.5309  0.3641
   15SAPS  H19S 1942   4.083   0.253   7.842 -1.8395  0.5894  2.9541
   15SAPS  C220 1943   4.171   0.405   7.968 -0.6742  0.2173  0.8891
   15SAPS  H20R 1944   4.270   0.455   7.974  0.2100 -0.8104 -2.6888
   15SAPS  H20S 1945   4.151   0.364   8.070 -1.8449  0.0011  0.5841
   15SAPS  H20T 1946   4.089   0.477   7.951 -0.9753 -0.2739  0.2323
   15SAPS   C33 1947   3.672   0.253   6.516 -0.5847 -0.3847 -0.6207
   15SAPS   H3X 1948   3.750   0.213   6.446  0.9660  0.0900  0.7593
   15SAPS   H3Y 1949   3.577   0.200   6.496 -0.6756  0.3582 -2.3060
   15SAPS   C34 1950   3.723   0.210   6.654 -0.2368 -0.0749 -0.0850
   15SAPS   H4X 1951   3.817   0.264   6.675 -0.0178 -0.6329  0.4077
   15SAPS   H4Y 1952   3.749   0.102   6.650 -1.5632 -0.3903 -2.2639
   15SAPS   C35 1953   3.621   0.213   6.765  0.1217  0.5587 -0.1832
   15SAPS   H5X 1954   3.567   0.117   6.775  3.1840 -1.4810 -1.7613
   15SAPS   H5Y 1955   3.554   0.301   6.751  0.7120  1.4043  1.8694
   15SAPS   C36 1956   3.695   0.226   6.905  1.0126 -0.5946  0.2721
   15SAPS   H6X 1957   3.771   0.306   6.892  0.7687 -0.3606  0.2800
   15SAPS   H6Y 1958   3.741   0.126   6.923  2.7720 -0.1226 -1.2658
   15SAPS   C37 1959   3.613   0.261   7.036 -0.0630  0.3387  0.7319
   15SAPS   H7X 1960   3.522   0.198   7.044  1.1847 -1.6413  0.0767
   15SAPS   H7Y 1961   3.561   0.359   7.028  0.5288  0.6538  0.7125
   15SAPS   C38 1962   3.701   0.250   7.162 -0.0502  0.1890  0.8194
   15SAPS   H8X 1963   3.645   0.308   7.238  0.3431  1.4525  0.1616
   15SAPS   H8Y 1964   3.799   0.298   7.142  0.4237 -1.0620 -0.0591
   15SAPS   C39 1965   3.722   0.104   7.204  0.0789 -0.2916  0.3399
   15SAPS   H9X 1966   3.747   0.031   7.124  2.0220 -1.2901  1.7882
   15SAPS   H9Y 1967   3.624   0.068   7.243  0.3245 -0.7279  0.5519
   15SAPS  C310 1968   3.822   0.085   7.315  0.2044  0.2169  0.7234
   15SAPS  H10X 1969   3.920   0.120   7.274 -1.5749  3.4989 -1.0983
   15SAPS  H10Y 1970   3.828  -0.025   7.334 -3.5385 -0.2496  0.0068
   15SAPS  C311 1971   3.794   0.158   7.447  0.1123  0.4418 -0.2781
   15SAPS  H11X 1972   3.683   0.159   7.445  0.0558  3.2449 -2.5773
   15SAPS  H11Y 1973   3.829   0.263   7.435  0.2208  0.2570 -1.7909
   15SAPS  C312 1974   3.856   0.093   7.579  0.9286 -0.5868 -0.7508
   15SAPS  H12X 1975   3.965   0.114   7.590  0.4157  1.6408  0.6482
   15SAPS  H12Y 1976   3.845  -0.017   7.573 -4.3097 -0.2247 -2.5214
   15SAPS  C313 1977   3.785   0.145   7.705 -0.4216  0.1644  0.3445
   15SAPS  H13X 1978   3.674   0.140   7.691 -0.5024  2.1248 -0.1238
   15SAPS  H13Y 1979   3.798   0.255   7.714 -2.6469  0.4898  0.2748
   15SAPS  C314 1980   3.839   0.070   7.828  0.0569 -0.2429 -0.1764
   15SAPS  H14X 1981   3.950   0.076   7.817  0.1622 -3.1076 -1.5838
   15SAPS  H14Y 1982   3.830  -0.041   7.833  1.6102 -0.4017 -0.2833
   15SAPS  C315 1983   3.794   0.140   7.954 -0.0778  0.2700  0.5339
   15SAPS  H15X 1984   3.685   0.128   7.974 -0.1406  1.1199  0.7291
   15SAPS  H15Y 1985   3.819   0.248   7.948  0.3627  0.1060 -1.9039
   15SAPS  C316 1986   3.874   0.085   8.072  0.2801  0.1771  0.6904
   15SAPS  H16X 1987   3.983   0.085   8.051 -0.1063 -0.4241 -1.4916
   15SAPS  H16Y 1988   3.853  -0.021   8.096  1.8721 -0.1571  0.7402
   15SAPS  C317 1989   3.847   0.162   8.213  0.3626  0.7243  0.3388
   15SAPS  H17X 1990   3.871   0.265   8.176 -1.6231  0.5809 -1.6022
   15SAPS  H17Y 1991   3.923   0.134   8.288  1.6218  1.2615 -0.6911
   15SAPS  C318 1992   3.710   0.164   8.273  0.3076 -0.2068 -0.2397
   15SAPS  H18X 1993   3.690   0.062   8.312  2.5950 -0.7347 -0.3253
   15SAPS  H18Y 1994   3.627   0.205   8.210 -0.2078  1.3143  1.3587
   15SAPS  H18Z 1995   3.717   0.220   8.368 -1.1034  0.8237 -0.7012
   16SAPS     N 1996   6.185   1.612   6.461  0.0537 -0.1911 -0.6611
   16SAPS   HN1 1997   6.225   1.613   6.557  0.8061  3.2448 -0.9040
   16SAPS   HN2 1998   6.259   1.569   6.402 -0.2948 -0.4964 -0.8859
   16SAPS   HN3 1999   6.170   1.712   6.436 -0.6914 -0.9249 -3.5995
   16SAPS   C12 2000   6.060   1.530   6.454  0.4634  0.6556 -0.3834
   16SAPS  H12A 2001   6.000   1.582   6.528  1.2150  0.8919  0.0758
   16SAPS   C13 2002   5.991   1.513   6.312 -0.4368 -0.2270  0.6349
   16SAPS  O13A 2003   6.054   1.570   6.216  0.0582 -0.6235  0.1179
   16SAPS  O13B 2004   5.890   1.442   6.296 -0.3121 -0.3243 -0.2170
   16SAPS   C11 2005   6.106   1.395   6.516  0.0725  0.9921 -0.3500
   16SAPS  H11A 2006   6.169   1.350   6.437  0.1921  0.0623  0.2524
   16SAPS  H11B 2007   6.023   1.323   6.530  1.6214 -0.3851  2.8898
   16SAPS     P 2008   6.238   1.291   6.718 -0.0394  0.2640 -0.5687
   16SAPS   O13 2009   6.343   1.230   6.630 -0.2080  0.2616  0.3197
   16SAPS   O14 2010   6.278   1.322   6.853  0.3704 -0.0415  0.4067
   16SAPS   O12 2011   6.178   1.418   6.642  0.2022 -0.7913 -0.6676
   16SAPS   O11 2012   6.119   1.190   6.732 -0.2901 -0.3295 -0.1077
   16SAPS    C1 2013   5.989   1.224   6.767 -0.3007  0.1052 -0.3233
   16SAPS    HA 2014   5.949   1.318   6.722 -0.7574  1.0156  1.8288
   16SAPS    HB 2015   5.919   1.145   6.733 -0.5401 -0.0101  0.4196
   16SAPS    C2 2016   5.957   1.232   6.918  0.0688  0.1366  0.1610
   16SAPS    HS 2017   5.846   1.239   6.917 -0.2802 -1.9481 -4.9654
   16SAPS   O21 2018   6.020   1.340   6.988 -0.8943  0.3613 -0.0629
   16SAPS   C21 2019   5.988   1.461   6.950 -0.0766  0.1080 -0.0822
   16SAPS   O22 2020   5.888   1.479   6.884  0.6036  0.0105 -0.4813
   16SAPS   C22 2021   6.072   1.567   7.021 -0.1063 -0.0284 -0.5508
   16SAPS   H2R 2022   6.078   1.535   7.128 -0.3605 -1.4699 -0.9444
   16SAPS   H2S 2023   6.179   1.563   6.992  0.4377 -0.0376  1.3226
   16SAPS    C3 2024   5.991   1.103   6.998 -0.8519  0.1959  0.6878
   16SAPS    HX 2025   6.102   1.094   7.005 -0.9423 -0.3866  1.4714
   16SAPS    HY 2026   5.957   1.012   6.945 -1.3040  0.2219  0.9268
   16SAPS   O31 2027   5.928   1.104   7.128  0.0904 -0.5508  0.4176
   16SAPS   C31 2028   6.006   1.110   7.231 -0.5982 -0.3854 -0.0480
   16SAPS   O32 2029   6.128   1.108   7.224 -0.5270  0.0934  0.0451
   16SAPS   C32 2030   5.939   1.126   7.367  0.7300 -0.4465 -0.1154
   16SAPS   H2X 2031   5.902   1.026   7.396  0.6947 -0.0128  1.4411
   16SAPS   H2Y 2032   5.855   1.198   7.357 -0.1643 -1.3091  0.9757
   16SAPS   C23 2033   6.008   1.707   7.016 -0.2386 -0.1324 -0.0076
   16SAPS   H3R 2034   5.914   1.713   7.076 -0.7464  0.3815 -0.8288
   16SAPS   H3S 2035   5.988   1.735   6.911  2.7904  1.7411 -0.2028
   16SAPS   C24 2036   6.106   1.816   7.059  0.5139 -0.1663 -0.1765
   16SAPS   H4R 2037   6.195   1.802   6.995 -1.6294  1.5948 -3.9034
   16SAPS   H4S 2038   6.129   1.805   7.167 -0.3573 -0.1828  0.0136
   16SAPS   C25 2039   6.046   1.954   7.026  0.4038 -0.2135 -0.3151
   16SAPS   H5R 2040   6.021   1.959   6.919  2.7027 -0.8136 -0.9360
   16SAPS   C26 2041   6.033   2.058   7.105  0.7283 -0.0119 -0.5401
   16SAPS   H6R 2042   5.984   2.151   7.073 -1.7953 -0.8664  0.5514
   16SAPS   C27 2043   6.076   2.054   7.251  0.0448  0.4418  0.5560
   16SAPS   H7R 2044   6.126   2.150   7.277 -1.1809  1.4701 -0.7407
   16SAPS   H7S 2045   6.154   1.975   7.260 -0.0720  0.1958 -0.5236
   16SAPS   C28 2046   5.962   2.038   7.342  0.2901 -0.2465  0.0386
   16SAPS   H8R 2047   5.863   2.051   7.296 -1.5020 -0.9979  3.3565
   16SAPS   C29 2048   5.983   2.014   7.474  0.2787 -0.3651  0.8248
   16SAPS   H9R 2049   5.892   2.003   7.534 -0.3151 -0.2055 -0.0198
   16SAPS  C210 2050   6.113   1.993   7.542  0.6967 -0.4740  0.4765
   16SAPS  H10R 2051   6.195   1.981   7.467 -0.3592  1.2564 -1.0102
   16SAPS  H10S 2052   6.100   1.891   7.585  0.0890 -0.7017 -0.2306
   16SAPS  C211 2053   6.150   2.092   7.643  0.3661 -0.9015 -0.4144
   16SAPS  H11R 2054   6.232   2.162   7.622  1.2520 -2.1030 -1.0005
   16SAPS  C212 2055   6.097   2.108   7.768  0.2186  0.7631  0.2100
   16SAPS  H12R 2056   6.148   2.179   7.834 -0.9268  1.8614 -0.0544
   16SAPS  C213 2057   5.986   2.034   7.838 -0.0072  0.2022  0.0916
   16SAPS  H13R 2058   6.041   1.985   7.921  0.2455 -0.2173 -0.3122
   16SAPS  H13S 2059   5.942   1.949   7.782  1.3106 -0.4920  0.0578
   16SAPS  C214 2060   5.879   2.134   7.877  0.6154 -0.5679 -0.2441
   16SAPS  H14R 2061   5.837   2.196   7.797  1.6780  0.9569  0.3295
   16SAPS  C215 2062   5.840   2.153   8.002  0.0762  0.1949 -0.4575
   16SAPS  H15R 2063   5.756   2.224   8.012 -0.5694 -0.7156  1.0460
   16SAPS  C216 2064   5.871   2.091   8.130 -0.1802  0.1388 -0.3840
   16SAPS  H16R 2065   5.914   1.988   8.124  2.2290  1.1039 -0.8272
   16SAPS  H16S 2066   5.770   2.079   8.175  1.0125 -0.3350  2.4521
   16SAPS  C217 2067   5.961   2.175   8.226  0.7090  0.0475  0.0891
   16SAPS  H17R 2068   5.987   2.276   8.189  1.9452  0.0533  0.9360
   16SAPS  H17S 2069   6.059   2.124   8.221 -0.0172 -1.3567 -0.3619
   16SAPS  C218 2070   5.913   2.155   8.370  0.0404  0.0580  0.1196
   16SAPS  H18R 2071   5.927   2.052   8.410 -3.1118 -0.4590  0.1300
   16SAPS  H18S 2072   5.808   2.190   8.382 -0.2712 -0.6755 -0.4259
   16SAPS  C219 2073   5.998   2.263   8.450 -0.1557 -0.4516 -0.5001
   16SAPS  H19R 2074   5.977   2.361   8.403  1.0472  1.1436  2.1146
   16SAPS  H19S 2075   6.104   2.244   8.422 -0.7097 -0.3293 -2.9227
   16SAPS  C220 2076   5.983   2.287   8.603  0.0250 -0.7354  0.4764
   16SAPS  H20R 2077   5.997   2.189   8.654  0.0716 -0.5240  0.8673
   16SAPS  H20S 2078   5.883   2.332   8.621  0.5752  0.6280  0.2156
   16SAPS  H20T 2079   6.056   2.368   8.623 -0.6743  0.5897 -1.9115
   16SAPS   C33 2080   6.033   1.164   7.483  0.7552 -0.1488 -0.1504
   16SAPS   H3X 2081   6.079   1.261   7.456 -0.2866  0.0728 -1.2079
   16SAPS   H3Y 2082   6.111   1.086   7.498  0.1840 -0.9776 -1.3401
   16SAPS   C34 2083   5.941   1.190   7.601 -0.5045 -0.7468 -0.4033
   16SAPS   H4X 2084   5.883   1.099   7.629 -0.0434 -0.5095  1.4807
   16SAPS   H4Y 2085   5.866   1.265   7.569 -0.4647 -0.8846 -0.8192
   16SAPS   C35 2086   6.034   1.241   7.717  0.8260 -0.5587  0.8521
   16SAPS   H5X 2087   6.037   1.352   7.709  2.3558 -0.7409 -2.8823
   16SAPS   H5Y 2088   6.139   1.209   7.706  0.6460 -0.2572 -3.3144
   16SAPS   C36 2089   5.962   1.218   7.852 -0.2929  0.0941 -0.2101
   16SAPS   H6X 2090   5.985   1.111   7.873 -0.9855 -0.1097 -0.4463
   16SAPS   H6Y 2091   5.852   1.230   7.840 -0.3699  0.0359  0.3894
   16SAPS   C37 2092   6.025   1.311   7.951  0.1322  0.0569 -0.2389
   16SAPS   H7X 2093   6.006   1.413   7.911 -3.9989  0.6289  2.5995
   16SAPS   H7Y 2094   6.136   1.303   7.953  0.2036  0.1716 -1.9526
   16SAPS   C38 2095   5.979   1.288   8.091  0.4965  0.9415 -0.2926
   16SAPS   H8X 2096   6.036   1.205   8.138 -0.5919 -0.1328 -0.8217
   16SAPS   H8Y 2097   5.870   1.266   8.089  0.7908 -1.0818  1.6829
   16SAPS   C39 2098   5.985   1.408   8.179 -0.9922 -1.2113 -0.0848
   16SAPS   H9X 2099   5.949   1.503   8.134 -1.9987 -1.1446  0.8183
   16SAPS   H9Y 2100   6.091   1.431   8.202 -0.0175 -1.3466 -3.8278
   16SAPS  C310 2101   5.914   1.393   8.321  0.0492 -0.0128  0.6190
   16SAPS  H10X 2102   5.949   1.294   8.356  0.0784 -0.7145 -1.3142
   16SAPS  H10Y 2103   5.806   1.401   8.295  0.3160  0.8193 -0.2975
   16SAPS  C311 2104   5.953   1.505   8.418  0.4964  0.7215  0.0289
   16SAPS  H11X 2105   5.941   1.604   8.368  1.2528 -0.2667 -2.2358
   16SAPS  H11Y 2106   6.062   1.504   8.442  0.2643  2.2656  1.3191
   16SAPS  C312 2107   5.877   1.488   8.547 -0.1724  0.1679  0.0395
   16SAPS  H12X 2108   5.787   1.429   8.523  1.0635 -1.7447 -0.1258
   16SAPS  H12Y 2109   5.841   1.581   8.597 -0.0292 -0.6574  1.7777
   16SAPS  C313 2110   5.943   1.405   8.657 -0.5867  0.4356 -0.7102
   16SAPS  H13X 2111   5.991   1.308   8.629 -2.2598 -1.3477  2.1315
   16SAPS  H13Y 2112   5.874   1.383   8.740  0.7376 -1.2904 -0.0000
   16SAPS  C314 2113   6.057   1.470   8.734  0.2618  0.9122 -0.2507
   16SAPS  H14X 2114   6.015   1.569   8.761  0.0301  1.4307 -2.3563
   16SAPS  H14Y 2115   6.142   1.486   8.664  1.2345  2.3801  1.1931
   16SAPS  C315 2116   6.100   1.396   8.864 -0.4673 -0.7075  0.9894
   16SAPS  H15X 2117   6.009   1.378   8.926 -0.2331 -0.1931  1.4961
   16SAPS  H15Y 2118   6.161   1.472   8.917 -1.7016 -0.9903  2.9096
   16SAPS  C316 2119   6.167   1.257   8.838  0.2027  0.2322 -0.1296
   16SAPS  H16X 2120   6.097   1.195   8.778 -1.9191  1.6151  0.7798
   16SAPS  H16Y 2121   6.199   1.203   8.930 -0.0882  1.3806  0.6620
   16SAPS  C317 2122   6.303   1.285   8.765 -0.3750 -0.2532  0.2956
   16SAPS  H17X 2123   6.357   1.365   8.819 -0.4115  0.0839 -0.1600
   16SAPS  H17Y 2124   6.289   1.329   8.664  0.6993 -1.3503 -0.3653
   16SAPS  C318 2125   6.398   1.166   8.742  0.3967  0.1534 -0.2435
   16SAPS  H18X 2126   6.501   1.189   8.709  0.9397 -0.9374  0.6293
   16SAPS  H18Y 2127   6.359   1.092   8.669 -0.5239  0.1310  0.2584
   16SAPS  H18Z 2128   6.405   1.108   8.836 -0.4876  0.5433  0.0777
   17SAPC     N 2129   1.579   4.585  10.414 -0.4946 -0.0165 -0.1762
   17SAPC   C12 2130   1.727   4.618  10.403  0.1619  0.1222 -0.0461
   17SAPC  H12A 2131   1.748   4.661  10.306 -1.4108 -2.1000 -1.4818
   17SAPC  H12B 2132   1.789   4.530  10.414 -1.0949 -0.4929  2.9695
   17SAPC   C13 2133   1.550   4.477  10.314 -0.0675  0.0793  0.8945
   17SAPC  H13A 2134   1.614   4.394  10.341  1.4270  0.1550 -1.9907
   17SAPC  H13B 2135   1.444   4.452  10.314 -0.4461  1.4771  2.7727
   17SAPC  H13C 2136   1.579   4.502  10.213 -2.3223 -0.1406  0.1244
   17SAPC   C14 2137   1.550   4.522  10.543  0.2456  0.5639 -0.0467
   17SAPC  H14A 2138   1.617   4.438  10.553  0.7586  0.5413 -2.7611
   17SAPC  H14B 2139   1.555   4.592  10.625 -0.6686 -0.9094  1.3273
   17SAPC  H14C 2140   1.450   4.481  10.550  0.6269 -0.5354 -0.7736
   17SAPC   C15 2141   1.490   4.699  10.382  0.0451 -0.4148  0.1441
   17SAPC  H15A 2142   1.524   4.725  10.283  2.1789 -1.4766  0.5265
   17SAPC  H15B 2143   1.385   4.671  10.378 -0.3055  0.5805  1.6561
   17SAPC  H15C 2144   1.509   4.785  10.445 -0.2116 -0.1007 -0.2039
   17SAPC   C11 2145   1.771   4.734  10.494 -0.2631  0.0324 -0.8553
   17SAPC  H11A 2146   1.880   4.731  10.513 -0.5147  0.8430  0.8816
   17SAPC  H11B 2147   1.728   4.716  10.594  0.2008  0.3467 -0.5952
   17SAPC     P 2148   1.766   4.937  10.335  0.1848  0.1236  0.4780
   17SAPC   O13 2149   1.675   4.899  10.220  0.3894 -0.1130 -0.3408
   17SAPC   O14 2150   1.777   5.078  10.375 -0.3443  0.4569 -0.0884
   17SAPC   O12 2151   1.724   4.860  10.462  0.0367  0.1189  0.5749
   17SAPC   O11 2152   1.904   4.872  10.299  0.5685 -0.6779 -0.8352
   17SAPC    C1 2153   2.029   4.949  10.323 -0.5220  0.9316  0.0228
   17SAPC    HA 2154   2.031   5.004  10.419  1.1422 -0.4027  0.8197
   17SAPC    HB 2155   2.118   4.883  10.311 -0.5067  1.2478 -1.8865
   17SAPC    C2 2156   2.056   5.068  10.220  0.2866 -0.2271 -0.1167
   17SAPC    HS 2157   1.992   5.155  10.247 -0.3963 -0.1569 -1.8181
   17SAPC   O21 2158   2.031   5.015  10.087  0.6137 -0.2076  0.2098
   17SAPC   C21 2159   1.979   5.096   9.995 -0.4879  0.0236  0.7256
   17SAPC   O22 2160   1.947   5.211  10.021 -0.2428 -0.1654  0.1346
   17SAPC   C22 2161   1.988   5.035   9.854  0.2640  0.0798 -0.5612
   17SAPC   H2R 2162   2.075   5.078   9.800  0.3547  1.7521  0.8684
   17SAPC   H2S 2163   1.997   4.926   9.875  1.2096 -0.0267 -1.4466
   17SAPC    C3 2164   2.205   5.104  10.239  0.3665  0.0302 -0.1132
   17SAPC    HX 2165   2.252   5.003  10.235 -2.9336 -1.7240  1.4044
   17SAPC    HY 2166   2.225   5.137  10.343  1.8634 -3.0453  0.7058
   17SAPC   O31 2167   2.273   5.173  10.135  0.2812  0.0640  0.9159
   17SAPC   C31 2168   2.289   5.305  10.161 -0.1048 -0.4092  0.2137
   17SAPC   O32 2169   2.244   5.359  10.263 -0.8174  0.6743 -0.2550
   17SAPC   C32 2170   2.347   5.373  10.038  0.3829 -0.0659 -0.4563
   17SAPC   H2X 2171   2.381   5.292   9.969  0.3899 -0.6157  0.1733
   17SAPC   H2Y 2172   2.444   5.424  10.056  0.0976 -0.1404  1.5336
   17SAPC   C23 2173   1.853   5.065   9.769 -0.5021 -0.1244 -0.1422
   17SAPC   H3R 2174   1.830   5.173   9.755  0.6440  0.3391  1.3352
   17SAPC   H3S 2175   1.771   5.007   9.817 -0.6067 -1.5238 -1.8830
   17SAPC   C24 2176   1.869   5.002   9.629 -0.1351  0.5578 -0.7996
   17SAPC   H4R 2177   1.913   4.902   9.651 -1.8023  0.3378  2.0535
   17SAPC   H4S 2178   1.946   5.070   9.586 -0.0215  1.2303  0.4236
   17SAPC   C25 2179   1.749   4.999   9.540  0.3452 -0.3561  0.5322
   17SAPC   H5R 2180   1.661   4.974   9.600 -0.2538 -0.6558 -0.4518
   17SAPC   C26 2181   1.749   5.007   9.405 -0.0571 -0.2654  1.0164
   17SAPC   H6R 2182   1.658   4.982   9.349  1.2678 -1.5750 -0.6629
   17SAPC   C27 2183   1.873   5.029   9.318 -0.1798  0.5608 -0.6533
   17SAPC   H7R 2184   1.958   5.081   9.368 -0.1854 -0.2853  0.2693
   17SAPC   H7S 2185   1.853   5.099   9.234 -1.6667  1.2626  0.2304
   17SAPC   C28 2186   1.928   4.905   9.252 -0.1903 -0.9690  0.2011
   17SAPC   H8R 2187   2.002   4.856   9.317  0.7780  1.6019  1.1791
   17SAPC   C29 2188   1.896   4.860   9.127  0.4486 -0.2586  0.8164
   17SAPC   H9R 2189   1.926   4.760   9.092 -2.9625 -1.6029  1.3374
   17SAPC  C210 2190   1.798   4.933   9.040  0.4185 -0.4874 -0.3279
   17SAPC  H10R 2191   1.841   5.033   9.018 -2.4238  0.6261 -1.2182
   17SAPC  H10S 2192   1.704   4.956   9.094  0.7240  2.4157 -0.8852
   17SAPC  C211 2193   1.759   4.871   8.903 -0.2174  0.3426 -0.4233
   17SAPC  H11R 2194   1.801   4.933   8.823  0.9507 -0.0652 -0.1470
   17SAPC  C212 2195   1.701   4.750   8.871  0.0854  0.2806 -0.2308
   17SAPC  H12R 2196   1.682   4.725   8.765 -1.4951  1.5535 -0.2861
   17SAPC  C213 2197   1.645   4.657   8.974  0.8175  0.5402 -0.0348
   17SAPC  H13R 2198   1.547   4.703   8.996  0.3868  1.0003 -2.6514
   17SAPC  H13S 2199   1.694   4.653   9.074  2.8114  1.0493 -0.9329
   17SAPC  C214 2200   1.640   4.508   8.925  0.3199  0.1614  0.6114
   17SAPC  H14R 2201   1.733   4.450   8.921 -0.3680 -0.9014 -0.7356
   17SAPC  C215 2202   1.528   4.434   8.917 -0.4637 -0.4272 -0.3331
   17SAPC  H15R 2203   1.543   4.326   8.903 -0.3577 -0.5369  0.5542
   17SAPC  C216 2204   1.388   4.476   8.954  0.0437  0.0732  0.1009
   17SAPC  H16R 2205   1.377   4.586   8.961  0.0307  0.0970 -0.3141
   17SAPC  H16S 2206   1.371   4.451   9.061 -2.0029  0.5550 -0.0716
   17SAPC  C217 2207   1.277   4.416   8.868  0.4651 -0.6601 -0.0149
   17SAPC  H17R 2208   1.300   4.458   8.767 -0.0414  0.1348  0.1913
   17SAPC  H17S 2209   1.181   4.462   8.902  0.6980 -0.5621  0.5085
   17SAPC  C218 2210   1.254   4.256   8.868 -0.1309 -0.4542  0.2695
   17SAPC  H18R 2211   1.355   4.210   8.878 -0.5888 -1.7861 -0.8484
   17SAPC  H18S 2212   1.200   4.215   8.780 -0.9802 -0.8081  0.9456
   17SAPC  C219 2213   1.172   4.213   8.990 -0.5047 -0.4013 -0.3677
   17SAPC  H19R 2214   1.078   4.165   8.957 -0.5758 -0.4433 -0.1045
   17SAPC  H19S 2215   1.139   4.305   9.044  0.1763 -1.4351  1.9224
   17SAPC  C220 2216   1.237   4.125   9.092 -0.5028 -0.6680 -0.3731
   17SAPC  H20R 2217   1.307   4.181   9.158 -1.6851 -0.7472  0.9814
   17SAPC  H20S 2218   1.291   4.051   9.030  0.0984 -1.8237  1.4602
   17SAPC  H20T 2219   1.171   4.072   9.163  1.0445 -1.3223  0.6149
   17SAPC   C33 2220   2.240   5.466   9.975 -0.1393  0.3262  0.7139
   17SAPC   H3X 2221   2.239   5.569  10.017 -0.8918  0.7724 -0.3391
   17SAPC   H3Y 2222   2.139   5.433  10.006  0.3802 -0.7883  1.2688
   17SAPC   C34 2223   2.246   5.479   9.821  0.1052  0.3323 -0.4805
   17SAPC   H4X 2224   2.342   5.519   9.784 -1.1883  0.5018 -4.0683
   17SAPC   H4Y 2225   2.162   5.549   9.800 -1.3526 -1.4604 -0.9428
   17SAPC   C35 2226   2.215   5.351   9.755 -0.5560  0.7913  0.1040
   17SAPC   H5X 2227   2.128   5.302   9.802  0.9314 -2.6044 -0.3992
   17SAPC   H5Y 2228   2.300   5.280   9.767 -1.4584 -0.1393  1.0714
   17SAPC   C36 2229   2.192   5.356   9.603 -0.0718  0.4149  0.5564
   17SAPC   H6X 2230   2.115   5.432   9.577 -0.4791 -0.4164 -0.7912
   17SAPC   H6Y 2231   2.165   5.252   9.573  5.3257 -1.2727  0.4934
   17SAPC   C37 2232   2.329   5.385   9.528  0.4656  0.6829 -0.3951
   17SAPC   H7X 2233   2.408   5.313   9.558  1.7383  0.9112 -3.0014
   17SAPC   H7Y 2234   2.369   5.485   9.555 -0.8942  1.1054  0.1624
   17SAPC   C38 2235   2.309   5.382   9.373 -0.4980  0.1671  0.7796
   17SAPC   H8X 2236   2.409   5.398   9.327 -0.0095 -2.3962  0.8059
   17SAPC   H8Y 2237   2.228   5.453   9.348 -0.9920 -0.3847  0.7928
   17SAPC   C39 2238   2.270   5.240   9.320  0.1446  0.0809 -0.5638
   17SAPC   H9X 2239   2.177   5.200   9.367 -1.0146  0.8540 -2.1310
   17SAPC   H9Y 2240   2.346   5.164   9.350  0.0744  0.5078  0.7609
   17SAPC  C310 2241   2.247   5.256   9.167  0.2065  0.1919  0.4723
   17SAPC  H10X 2242   2.225   5.153   9.132  0.2329  0.6629 -0.9823
   17SAPC  H10Y 2243   2.319   5.305   9.099  0.3611  1.4375  1.4949
   17SAPC  C311 2244   2.115   5.337   9.128 -0.1863  0.0019  0.0614
   17SAPC  H11X 2245   2.137   5.446   9.135 -1.6704  0.4690 -1.7006
   17SAPC  H11Y 2246   2.031   5.306   9.193 -0.1587 -1.2958 -0.5000
   17SAPC  C312 2247   2.079   5.287   8.991  0.4349 -0.4393  0.3362
   17SAPC  H12X 2248   2.047   5.181   8.994 -0.1267 -0.3393 -1.3377
   17SAPC  H12Y 2249   2.167   5.298   8.923  0.2869  0.8234  0.3280
   17SAPC  C313 2250   1.961   5.370   8.938 -0.8337 -0.6416  0.0458
   17SAPC  H13X 2251   1.997   5.463   8.891 -3.4436  0.2929 -0.2666
   17SAPC  H13Y 2252   1.893   5.394   9.023  1.0773  1.5607  1.0619
   17SAPC  C314 2253   1.879   5.290   8.839  0.1365  0.1848  0.7025
   17SAPC  H14X 2254   1.847   5.199   8.893 -0.6568 -0.0229 -0.0983
   17SAPC  H14Y 2255   1.954   5.248   8.769 -0.3301 -1.3020  1.0709
   17SAPC  C315 2256   1.756   5.365   8.785 -0.0418  0.0420  0.2695
   17SAPC  H15X 2257   1.794   5.453   8.729 -1.6901 -0.3070 -1.5409
   17SAPC  H15Y 2258   1.693   5.394   8.871 -1.4765  0.1630 -0.7840
   17SAPC  C316 2259   1.667   5.291   8.672 -0.0813 -0.4024 -0.1995
   17SAPC  H16X 2260   1.622   5.209   8.731 -0.4104 -1.1138 -1.4085
   17SAPC  H16Y 2261   1.738   5.253   8.596  0.4853  0.4845 -0.1391
   17SAPC  C317 2262   1.552   5.372   8.607  0.5096 -0.3648  1.2998
   17SAPC  H17X 2263   1.480   5.412   8.681  0.8071  1.9239  0.4217
   17SAPC  H17Y 2264   1.502   5.304   8.534 -0.0667 -0.3850  1.7111
   17SAPC  C318 2265   1.602   5.492   8.523  0.4267  0.5000 -0.2902
   17SAPC  H18X 2266   1.672   5.454   8.446  1.1697 -0.3664  0.7859
   17SAPC  H18Y 2267   1.514   5.546   8.480  0.4786  0.8801  0.0769
   17SAPC  H18Z 2268   1.662   5.554   8.593 -0.4177 -1.0695  1.9050
   18SAPC     N 2269   3.136   4.408  10.570  0.7054 -0.0538 -0.1500
   18SAPC   C12 2270   3.067   4.289  10.494 -0.1402  0.1124 -0.1628
   18SAPC  H12A 2271   2.967   4.323  10.472 -0.2645 -0.2188 -0.1066
   18SAPC  H12B 2272   3.048   4.203  10.556 -0.3869 -0.6949 -1.3343
   18SAPC   C13 2273   3.160   4.528  10.479  0.4046 -0.0825 -0.2616
   18SAPC  H13A 2274   3.215   4.613  10.516 -0.5554  0.6984 -0.5903
   18SAPC  H13B 2275   3.219   4.499  10.394 -1.3407 -1.0359 -1.2027
   18SAPC  H13C 2276   3.070   4.565  10.432  1.2440 -0.0707 -1.9284
   18SAPC   C14 2277   3.048   4.448  10.685  0.9335 -0.7306 -0.7566
   18SAPC  H14A 2278   3.097   4.530  10.736 -0.5565 -0.2623 -0.0200
   18SAPC  H14B 2279   2.951   4.478  10.649  0.3481  0.2833  1.4872
   18SAPC  H14C 2280   3.027   4.364  10.749 -0.4516  0.6895  0.7442
   18SAPC   C15 2281   3.271   4.379  10.616  0.0431 -0.3727 -0.1438
   18SAPC  H15A 2282   3.264   4.309  10.698  0.9528  0.8049  0.9636
   18SAPC  H15B 2283   3.324   4.335  10.532  1.6925  0.0898  0.6170
   18SAPC  H15C 2284   3.324   4.466  10.652 -1.0916 -0.5231  2.0097
   18SAPC   C11 2285   3.138   4.230  10.368 -0.3434 -0.4881 -0.1896
   18SAPC  H11A 2286   3.164   4.307  10.292  0.6068  0.0517  0.6554
   18SAPC  H11B 2287   3.055   4.169  10.326 -0.6110  0.3154 -0.8590
   18SAPC     P 2288   3.258   4.025  10.474  0.7796  0.4287  0.4375
   18SAPC   O13 2289   3.384   3.953  10.453  0.0331  0.3983  0.2085
   18SAPC   O14 2290   3.205   4.034  10.609 -0.3590  0.0164 -0.0012
   18SAPC   O12 2291   3.257   4.165  10.404  0.0718  0.5751  0.5421
   18SAPC   O11 2292   3.150   3.954  10.391  0.4255 -0.5486 -0.2583
   18SAPC    C1 2293   3.169   3.848  10.300  0.6378 -0.6150  0.4307
   18SAPC    HA 2294   3.228   3.765  10.343  0.7961  0.0636  1.5793
   18SAPC    HB 2295   3.070   3.809  10.269 -0.4200  2.5279 -0.5095
   18SAPC    C2 2296   3.232   3.902  10.170 -0.4860  0.3248 -0.0208
   18SAPC    HS 2297   3.332   3.942  10.198  0.2092 -1.6241  0.4546
   18SAPC   O21 2298   3.138   3.990  10.105  0.6559  0.1457  0.2359
   18SAPC   C21 2299   3.187   4.095  10.040 -0.0065  0.8666 -0.2209
   18SAPC   O22 2300   3.309   4.118  10.037 -0.0247 -0.4009 -0.1233
   18SAPC   C22 2301   3.080   4.151   9.952 -0.2193 -0.1694  0.3575
   18SAPC   H2R 2302   2.982   4.151  10.005 -1.6883  1.9496 -2.1147
   18SAPC   H2S 2303   3.100   4.257   9.927 -2.0736  0.2965  0.6495
   18SAPC    C3 2304   3.254   3.781  10.077 -0.6835 -0.4422  0.1205
   18SAPC    HX 2305   3.156   3.736  10.049 -0.2889 -0.3774 -1.4716
   18SAPC    HY 2306   3.321   3.706  10.125 -0.3821 -0.8490 -0.9118
   18SAPC   O31 2307   3.317   3.813   9.945 -0.1198 -0.0982  0.1337
   18SAPC   C31 2308   3.442   3.844   9.959 -0.7618  0.0088  0.1423
   18SAPC   O32 2309   3.513   3.845  10.059  0.6679 -0.0798  0.2093
   18SAPC   C32 2310   3.493   3.896   9.826  0.2031 -0.4010  0.0940
   18SAPC   H2X 2311   3.430   3.985   9.807 -0.5325 -0.1192  3.2279
   18SAPC   H2Y 2312   3.484   3.821   9.745  1.2905 -0.9693  0.4770
   18SAPC   C23 2313   3.069   4.061   9.825 -0.4112 -0.3299  0.2274
   18SAPC   H3R 2314   3.076   3.952   9.846  1.6177  0.1330  2.4159
   18SAPC   H3S 2315   3.157   4.073   9.758 -0.5785 -0.8374 -0.0890
   18SAPC   C24 2316   2.945   4.100   9.740  0.1257  0.1754 -0.5286
   18SAPC   H4R 2317   2.865   4.130   9.811 -0.5256  0.3212 -1.3107
   18SAPC   H4S 2318   2.918   4.002   9.695 -0.5598  0.3348 -0.4802
   18SAPC   C25 2319   2.980   4.208   9.646 -0.4522 -0.1744  1.3512
   18SAPC   H5R 2320   2.957   4.313   9.669 -0.9060  0.0116  0.0905
   18SAPC   C26 2321   3.041   4.182   9.527 -0.3234 -0.7687 -0.0014
   18SAPC   H6R 2322   3.064   4.266   9.459 -2.7243  0.8231  1.0373
   18SAPC   C27 2323   3.077   4.038   9.477  0.1189 -0.3876  0.2221
   18SAPC   H7R 2324   2.997   3.999   9.410  0.4619  0.7849 -0.9148
   18SAPC   H7S 2325   3.085   3.969   9.563 -2.0865 -1.1076 -0.0691
   18SAPC   C28 2326   3.206   4.049   9.400 -0.6049 -0.9493 -0.0792
   18SAPC   H8R 2327   3.280   4.116   9.446 -0.6813 -0.7832 -0.1978
   18SAPC   C29 2328   3.237   3.990   9.286 -0.1714  0.1426  0.9310
   18SAPC   H9R 2329   3.340   4.013   9.256 -0.6649 -0.1022 -1.1003
   18SAPC  C210 2330   3.160   3.889   9.193  0.0597 -0.0504 -0.3224
   18SAPC  H10R 2331   3.070   3.852   9.247  1.5966 -1.5890  1.3314
   18SAPC  H10S 2332   3.222   3.802   9.159  2.2615  0.6016  1.7033
   18SAPC  C211 2333   3.138   3.978   9.065 -0.1402  0.3394 -0.0380
   18SAPC  H11R 2334   3.055   4.047   9.084 -2.3328 -2.0905 -0.3101
   18SAPC  C212 2335   3.217   3.982   8.957 -0.5647  0.5613 -0.6150
   18SAPC  H12R 2336   3.195   4.055   8.878 -0.8002  0.4908 -0.6160
   18SAPC  C213 2337   3.348   3.901   8.939 -0.7310  0.0515 -0.6839
   18SAPC  H13R 2338   3.321   3.807   8.888  0.3214 -0.2005 -0.8029
   18SAPC  H13S 2339   3.395   3.864   9.033  0.5516  0.5866 -1.0831
   18SAPC  C214 2340   3.459   3.963   8.857 -0.5070 -0.2400  0.1888
   18SAPC  H14R 2341   3.534   4.016   8.917  3.4936 -2.7617 -2.1593
   18SAPC  C215 2342   3.470   3.945   8.720  0.1646 -0.7558 -0.2819
   18SAPC  H15R 2343   3.557   3.990   8.670  2.0776 -3.8838 -0.0079
   18SAPC  C216 2344   3.383   3.871   8.622  0.1911 -0.1265  0.3705
   18SAPC  H16R 2345   3.303   3.811   8.671 -1.6861  1.1186 -1.0055
   18SAPC  H16S 2346   3.448   3.803   8.562  0.5118 -0.6295  1.2635
   18SAPC  C217 2347   3.328   3.960   8.517  0.3835 -0.9946 -0.1817
   18SAPC  H17R 2348   3.269   3.896   8.448 -0.9853  0.4935 -0.4191
   18SAPC  H17S 2349   3.403   4.020   8.461 -2.2898  0.6311 -2.2058
   18SAPC  C218 2350   3.216   4.055   8.571 -0.5674 -0.0670  0.6165
   18SAPC  H18R 2351   3.240   4.115   8.661  1.1223 -0.9023  0.7582
   18SAPC  H18S 2352   3.132   3.988   8.600  0.6502 -2.8238 -1.6663
   18SAPC  C219 2353   3.166   4.157   8.462  1.0506  0.2887  0.7688
   18SAPC  H19R 2354   3.255   4.221   8.447  1.2850 -0.5941 -2.3990
   18SAPC  H19S 2355   3.083   4.214   8.510  0.3705 -0.6898  0.7940
   18SAPC  C220 2356   3.133   4.088   8.320 -0.3187 -0.2163  0.0026
   18SAPC  H20R 2357   3.223   4.055   8.264 -0.5906 -2.6410  0.9103
   18SAPC  H20S 2358   3.072   4.160   8.261  0.4799  1.0697  0.7042
   18SAPC  H20T 2359   3.068   4.000   8.339  0.1347 -0.3478  0.9813
   18SAPC   C33 2360   3.637   3.943   9.834 -0.4897 -0.6263 -0.4584
   18SAPC   H3X 2361   3.701   3.881   9.899 -2.2991 -0.2361  1.8190
   18SAPC   H3Y 2362   3.637   4.038   9.892 -0.0128  0.0533 -1.5318
   18SAPC   C34 2363   3.698   3.967   9.692  0.1217 -0.3875 -0.0249
   18SAPC   H4X 2364   3.661   3.901   9.611 -0.4028 -1.5180  1.0918
   18SAPC   H4Y 2365   3.808   3.957   9.695  0.1902  0.1883 -0.4845
   18SAPC   C35 2366   3.685   4.111   9.649  0.3346  0.0060 -0.6025
   18SAPC   H5X 2367   3.715   4.175   9.735  0.3548 -0.4367 -0.2825
   18SAPC   H5Y 2368   3.577   4.139   9.643  0.0169 -0.0359  2.9392
   18SAPC   C36 2369   3.747   4.155   9.517  0.4395  0.9075 -0.3072
   18SAPC   H6X 2370   3.701   4.254   9.494 -1.3774  0.4158  0.9684
   18SAPC   H6Y 2371   3.724   4.088   9.432 -2.2679  0.3467  0.7454
   18SAPC   C37 2372   3.905   4.165   9.529 -0.0310 -0.5370 -0.0171
   18SAPC   H7X 2373   3.946   4.062   9.518 -0.4022 -1.2233  3.5575
   18SAPC   H7Y 2374   3.933   4.192   9.634  3.0203  0.4424 -0.9656
   18SAPC   C38 2375   3.968   4.256   9.424  0.2259 -0.1447  0.5267
   18SAPC   H8X 2376   4.077   4.245   9.437 -0.0246 -0.4254  2.8476
   18SAPC   H8Y 2377   3.957   4.364   9.451 -1.1621 -0.1104 -0.0477
   18SAPC   C39 2378   3.946   4.245   9.269  0.3043 -0.4594 -0.3854
   18SAPC   H9X 2379   3.841   4.279   9.258  0.6299  0.9020  0.4881
   18SAPC   H9Y 2380   3.939   4.143   9.227 -1.2728  0.2012 -1.8801
   18SAPC  C310 2381   4.054   4.336   9.204 -0.7242 -0.4716 -0.1829
   18SAPC  H10X 2382   4.154   4.304   9.239 -1.2858 -3.3813 -1.0142
   18SAPC  H10Y 2383   4.035   4.435   9.251  0.4569  0.6263 -1.9339
   18SAPC  C311 2384   4.050   4.345   9.046  0.3248 -0.7863  0.2761
   18SAPC  H11X 2385   3.943   4.367   9.025  0.9405  1.6138 -0.6821
   18SAPC  H11Y 2386   4.072   4.245   9.002  0.2584 -1.0215  0.7767
   18SAPC  C312 2387   4.145   4.457   9.000  0.4882 -0.3139  0.3853
   18SAPC  H12X 2388   4.242   4.424   9.042 -0.9308 -1.8116  2.7624
   18SAPC  H12Y 2389   4.112   4.556   9.039  0.2755  0.6352 -2.0611
   18SAPC  C313 2390   4.149   4.484   8.849 -0.3743  0.3590  0.6258
   18SAPC  H13X 2391   4.212   4.406   8.801  0.3893  0.7796  0.9198
   18SAPC  H13Y 2392   4.214   4.568   8.818  0.5040 -0.6211 -0.2829
   18SAPC  C314 2393   4.020   4.493   8.766 -0.4638  0.1019 -0.3911
   18SAPC  H14X 2394   3.961   4.579   8.805 -2.0551 -2.1415  2.4835
   18SAPC  H14Y 2395   3.966   4.398   8.785  1.7553 -1.5913 -2.0885
   18SAPC  C315 2396   4.053   4.497   8.618  0.2949 -0.0887 -0.4502
   18SAPC  H15X 2397   4.145   4.438   8.595  0.4485  0.2879 -0.8191
   18SAPC  H15Y 2398   4.077   4.594   8.569  1.3207 -0.7142 -1.2413
   18SAPC  C316 2399   3.936   4.432   8.531  0.8137 -0.1986  0.1589
   18SAPC  H16X 2400   3.848   4.488   8.569  0.8217 -2.2584  3.6352
   18SAPC  H16Y 2401   3.928   4.323   8.552 -0.1271 -0.1784 -0.0338
   18SAPC  C317 2402   3.948   4.470   8.375  0.3761 -0.0761 -0.6631
   18SAPC  H17X 2403   4.006   4.559   8.346 -2.6215  1.5698 -2.1126
   18SAPC  H17Y 2404   3.848   4.476   8.325  0.6762 -1.9933 -1.5794
   18SAPC  C318 2405   4.023   4.354   8.301  0.5246  0.0675 -0.0224
   18SAPC  H18X 2406   3.966   4.260   8.307 -0.7786  0.6252 -2.5284
   18SAPC  H18Y 2407   4.122   4.333   8.347 -0.7362 -0.8196  2.4627
   18SAPC  H18Z 2408   4.017   4.362   8.191 -0.8299  1.2403  0.1036
   19SAPC     N 2409   2.876   6.771  10.521  0.0390  0.2544  0.4790
   19SAPC   C12 2410   2.837   6.668  10.420 -0.2460 -0.6361  0.5255
   19SAPC  H12A 2411   2.841   6.569  10.463 -0.6731 -0.9582 -0.1461
   19SAPC  H12B 2412   2.920   6.669  10.350  0.5600  2.4101  1.3890
   19SAPC   C13 2413   2.809   6.758  10.653 -0.1157  0.6972  0.1083
   19SAPC  H13A 2414   2.829   6.831  10.730  0.4305  0.0503  0.5824
   19SAPC  H13B 2415   2.706   6.729  10.645 -0.8215  2.8101  0.7789
   19SAPC  H13C 2416   2.851   6.670  10.698 -0.6715  0.8369  0.9142
   19SAPC   C14 2417   3.022   6.766  10.542  0.6684  0.6677  0.0804
   19SAPC  H14A 2418   3.077   6.775  10.450 -1.3474  1.2548 -1.1307
   19SAPC  H14B 2419   3.060   6.842  10.609  0.5766  0.8687 -0.0943
   19SAPC  H14C 2420   3.057   6.673  10.584  2.0279  0.7388 -0.8307
   19SAPC   C15 2421   2.831   6.908  10.477  0.0330  0.4575  0.1017
   19SAPC  H15A 2422   2.851   6.985  10.551 -2.8170  0.6340  0.7914
   19SAPC  H15B 2423   2.882   6.922  10.383 -1.4936 -2.7376 -1.3554
   19SAPC  H15C 2424   2.726   6.895  10.456  0.8495 -2.9265 -2.8614
   19SAPC   C11 2425   2.704   6.675  10.344  0.3501 -0.2661 -0.6989
   19SAPC  H11A 2426   2.694   6.590  10.273  1.9102 -2.3043  1.3692
   19SAPC  H11B 2427   2.698   6.766  10.281  1.9589 -1.7050 -3.1098
   19SAPC     P 2428   2.562   6.534  10.503  0.3190  0.4196  0.1216
   19SAPC   O13 2429   2.668   6.438  10.471  0.4308 -0.6739  0.1702
   19SAPC   O14 2430   2.519   6.538  10.646  0.2897 -0.2191 -0.0483
   19SAPC   O12 2431   2.593   6.683  10.441 -0.0900  0.2641 -0.2716
   19SAPC   O11 2432   2.441   6.493  10.414  0.8521  0.6613 -0.0415
   19SAPC    C1 2433   2.378   6.587  10.329  0.1575  0.2774  0.2604
   19SAPC    HA 2434   2.386   6.693  10.361 -1.1852  0.3404  0.4598
   19SAPC    HB 2435   2.417   6.581  10.225 -1.5134  3.1596 -0.6534
   19SAPC    C2 2436   2.224   6.550  10.316 -0.7696 -0.1468  0.2467
   19SAPC    HS 2437   2.189   6.547  10.422 -1.6419 -1.1790 -0.0562
   19SAPC   O21 2438   2.206   6.429  10.255 -0.3109  0.3947  0.5320
   19SAPC   C21 2439   2.088   6.381  10.275 -0.5080  0.6047  0.0779
   19SAPC   O22 2440   2.007   6.428  10.354  0.1502 -0.4152  0.3736
   19SAPC   C22 2441   2.069   6.255  10.192  0.1564 -0.6450  0.9702
   19SAPC   H2R 2442   2.142   6.253  10.109 -0.1504  0.3252  0.6709
   19SAPC   H2S 2443   2.091   6.168  10.258 -0.9846 -0.1086  2.0982
   19SAPC    C3 2444   2.144   6.659  10.233  0.1496 -0.6012  0.2780
   19SAPC    HX 2445   2.188   6.761  10.245  0.4170 -0.1055 -3.7434
   19SAPC    HY 2446   2.043   6.667  10.280 -0.9106 -2.0173 -1.6436
   19SAPC   O31 2447   2.132   6.643  10.093 -0.4724 -0.2959 -0.2241
   19SAPC   C31 2448   2.227   6.687  10.014 -0.2064  1.0736  0.7371
   19SAPC   O32 2449   2.327   6.748  10.047 -0.2017  0.5147 -0.9747
   19SAPC   C32 2450   2.195   6.653   9.869 -0.7522 -0.3692 -0.5946
   19SAPC   H2X 2451   2.176   6.544   9.864 -0.5140 -0.3778 -1.4633
   19SAPC   H2Y 2452   2.282   6.675   9.804  1.6623  1.7968  2.9675
   19SAPC   C23 2453   1.928   6.234  10.127  0.2154 -0.3081  1.0699
   19SAPC   H3R 2454   1.849   6.274  10.194 -1.1788 -0.6560 -0.3034
   19SAPC   H3S 2455   1.918   6.123  10.121  1.8933 -0.4477  0.3667
   19SAPC   C24 2456   1.919   6.300   9.989 -0.3374  0.2889  0.2965
   19SAPC   H4R 2457   1.995   6.256   9.921 -2.3263 -1.8235 -0.6947
   19SAPC   H4S 2458   1.944   6.408  10.001 -2.6121  0.9304 -0.3373
   19SAPC   C25 2459   1.782   6.266   9.925 -0.0364  0.5253 -0.1065
   19SAPC   H5R 2460   1.708   6.208   9.984  0.8529  0.5712  1.0865
   19SAPC   C26 2461   1.746   6.308   9.802  0.1577  0.0167 -0.7415
   19SAPC   H6R 2462   1.654   6.262   9.763  0.2995 -0.0385 -1.0079
   19SAPC   C27 2463   1.819   6.401   9.706 -0.1191  0.1712 -0.0494
   19SAPC   H7R 2464   1.816   6.360   9.603  2.2514  1.5977 -0.7675
   19SAPC   H7S 2465   1.927   6.399   9.733 -0.3431 -1.1947  0.8850
   19SAPC   C28 2466   1.740   6.533   9.707  0.1627 -0.1722 -0.3256
   19SAPC   H8R 2467   1.708   6.570   9.805 -0.1191 -2.6330  0.5959
   19SAPC   C29 2468   1.720   6.623   9.607 -0.2020  0.5507  0.0744
   19SAPC   H9R 2469   1.649   6.705   9.621  0.1717  0.5664  2.3471
   19SAPC  C210 2470   1.770   6.591   9.466 -0.0179 -0.1395 -0.2279
   19SAPC  H10R 2471   1.805   6.488   9.447 -1.5260 -0.1649 -3.4779
   19SAPC  H10S 2472   1.858   6.656   9.444 -0.5586  0.6272 -0.1867
   19SAPC  C211 2473   1.657   6.606   9.366 -0.6357  0.2176  0.1782
   19SAPC  H11R 2474   1.581   6.526   9.368  1.0687 -1.5485 -1.3311
   19SAPC  C212 2475   1.638   6.716   9.297 -0.0584  0.0542  0.0635
   19SAPC  H12R 2476   1.556   6.711   9.224  1.1286  0.4079 -1.3637
   19SAPC  C213 2477   1.717   6.843   9.294 -0.9768  0.8344 -0.2620
   19SAPC  H13R 2478   1.821   6.807   9.306 -1.6210 -1.6761 -1.4321
   19SAPC  H13S 2479   1.695   6.907   9.382 -0.5807 -0.7831  1.0576
   19SAPC  C214 2480   1.683   6.913   9.171 -0.2026  0.0780  0.9501
   19SAPC  H14R 2481   1.583   6.958   9.159  0.3666  1.0831 -0.3516
   19SAPC  C215 2482   1.771   6.917   9.064 -0.3596  0.2638  0.2898
   19SAPC  H15R 2483   1.744   6.982   8.980  0.0318  1.4612  1.0750
   19SAPC  C216 2484   1.905   6.845   9.047  0.8474 -0.1735  0.0838
   19SAPC  H16R 2485   1.963   6.825   9.140 -0.3385  0.8398  1.0741
   19SAPC  H16S 2486   1.975   6.917   8.998 -1.9160  1.0994 -2.2971
   19SAPC  C217 2487   1.895   6.714   8.958  0.3635  0.4454 -0.2928
   19SAPC  H17R 2488   1.802   6.665   8.991  1.4344 -2.3018 -1.0808
   19SAPC  H17S 2489   1.986   6.651   8.969  0.2001  0.6082  2.7746
   19SAPC  C218 2490   1.884   6.738   8.803  0.6649 -0.2000  0.5837
   19SAPC  H18R 2491   1.832   6.836   8.800  2.2046  0.6400  0.2136
   19SAPC  H18S 2492   1.842   6.649   8.751  1.3638 -0.6681  0.8011
   19SAPC  C219 2493   2.017   6.777   8.729  0.3218  0.5761 -0.0908
   19SAPC  H19R 2494   2.064   6.676   8.725  1.4039  1.0092  1.1164
   19SAPC  H19S 2495   2.072   6.838   8.804  0.3117 -0.9364  1.2180
   19SAPC  C220 2496   1.992   6.841   8.596 -0.2518 -0.8402 -0.2434
   19SAPC  H20R 2497   2.090   6.866   8.551  0.0496 -1.9721 -0.2347
   19SAPC  H20S 2498   1.935   6.937   8.602  0.1480 -0.6021 -0.2440
   19SAPC  H20T 2499   1.939   6.780   8.520 -0.8750 -0.6445  0.0207
   19SAPC   C33 2500   2.066   6.730   9.831  0.2848  0.4135 -0.0286
   19SAPC   H3X 2501   2.064   6.832   9.874 -4.5842  1.4601 -2.1261
   19SAPC   H3Y 2502   1.978   6.678   9.874  1.3574 -0.7859  0.7919
   19SAPC   C34 2503   2.046   6.737   9.681  0.0825  0.0076 -0.1658
   19SAPC   H4X 2504   1.947   6.783   9.663 -1.4500 -2.7310  0.5738
   19SAPC   H4Y 2505   2.052   6.640   9.627 -0.5213 -0.4432  0.5604
   19SAPC   C35 2506   2.152   6.831   9.613  0.2187 -0.1083  0.2174
   19SAPC   H5X 2507   2.249   6.779   9.628  1.0153  1.6098  1.3609
   19SAPC   H5Y 2508   2.139   6.935   9.650  1.9189  0.4549 -0.6780
   19SAPC   C36 2509   2.122   6.852   9.461 -0.3273  0.9396  0.0074
   19SAPC   H6X 2510   2.024   6.904   9.450 -1.5747 -1.7981 -3.4527
   19SAPC   H6Y 2511   2.108   6.756   9.407 -1.2476 -0.0925  1.9918
   19SAPC   C37 2512   2.224   6.935   9.390 -1.1476 -0.1864  0.8164
   19SAPC   H7X 2513   2.323   6.885   9.397 -0.5436  0.7602 -0.3958
   19SAPC   H7Y 2514   2.236   7.035   9.437 -3.1371  0.0037  1.0037
   19SAPC   C38 2515   2.199   6.961   9.242  0.0542 -0.7675 -0.8615
   19SAPC   H8X 2516   2.098   7.005   9.233 -0.1147 -0.4555  1.7265
   19SAPC   H8Y 2517   2.193   6.863   9.189 -1.5583  0.6134 -3.4660
   19SAPC   C39 2518   2.299   7.059   9.178  0.1568 -0.5728  0.0842
   19SAPC   H9X 2519   2.390   6.995   9.175  1.3895  0.7206  3.6117
   19SAPC   H9Y 2520   2.312   7.151   9.240 -1.8763 -0.9890  1.1967
   19SAPC  C310 2521   2.251   7.108   9.040  0.3864  0.1226 -0.0411
   19SAPC  H10X 2522   2.156   7.165   9.047  0.9697  1.2069 -0.6774
   19SAPC  H10Y 2523   2.233   7.024   8.970 -0.9349  0.1949  0.1774
   19SAPC  C311 2524   2.348   7.209   8.975 -0.2604 -0.1115  0.8698
   19SAPC  H11X 2525   2.449   7.164   8.978 -0.6481 -1.3071 -1.5809
   19SAPC  H11Y 2526   2.366   7.298   9.039  5.0175  0.3332 -0.7258
   19SAPC  C312 2527   2.302   7.255   8.837  0.0716  0.0808 -0.0798
   19SAPC  H12X 2528   2.195   7.284   8.837 -0.4648 -1.7671 -0.5959
   19SAPC  H12Y 2529   2.305   7.168   8.768 -0.7487 -0.4166  0.5050
   19SAPC  C313 2530   2.382   7.365   8.774  0.2809  1.0792  1.1854
   19SAPC  H13X 2531   2.489   7.367   8.803  0.7224  2.1215 -0.3781
   19SAPC  H13Y 2532   2.338   7.458   8.818  1.0076  2.0027  0.0104
   19SAPC  C314 2533   2.366   7.369   8.625  0.0094  0.2572 -0.3007
   19SAPC  H14X 2534   2.381   7.268   8.581 -1.2590 -1.1840  2.3069
   19SAPC  H14Y 2535   2.451   7.430   8.588  1.6086 -2.3785 -1.3154
   19SAPC  C315 2536   2.225   7.412   8.583  0.0816 -0.6475 -0.8174
   19SAPC  H15X 2537   2.191   7.490   8.655 -0.2431 -1.0536 -0.5273
   19SAPC  H15Y 2538   2.161   7.321   8.583 -3.6211  1.7714 -0.1231
   19SAPC  C316 2539   2.228   7.465   8.445  0.3115  0.7338 -0.7676
   19SAPC  H16X 2540   2.124   7.490   8.414  0.0923  2.9886  1.4682
   19SAPC  H16Y 2541   2.277   7.390   8.379 -0.1125 -0.7544  0.5550
   19SAPC  C317 2542   2.300   7.603   8.440 -0.3005 -0.3356  1.3039
   19SAPC  H17X 2543   2.409   7.581   8.437 -0.2119  0.0902 -0.9761
   19SAPC  H17Y 2544   2.275   7.667   8.527  1.4295 -0.6077  2.0250
   19SAPC  C318 2545   2.267   7.693   8.314  0.1542 -0.1166  0.8214
   19SAPC  H18X 2546   2.163   7.731   8.328 -0.2253 -0.6950 -0.2775
   19SAPC  H18Y 2547   2.272   7.630   8.222 -1.5253 -0.9169  1.2356
   19SAPC  H18Z 2548   2.332   7.783   8.317 -1.1516  0.8372  2.7100
   20SAPC     N 2549   0.853   3.320  10.994  0.4621 -0.6070  0.4018
   20SAPC   C12 2550   0.926   3.265  10.878  0.3087 -0.0527  0.3912
   20SAPC  H12A 2551   1.008   3.211  10.923  1.5029  0.0326 -1.5935
   20SAPC  H12B 2552   0.966   3.344  10.817 -0.7675  0.0173 -0.2451
   20SAPC   C13 2553   0.940   3.434  11.063  0.3347  0.5605  0.1186
   20SAPC  H13A 2554   1.028   3.398  11.113  0.4181  0.2864 -0.2190
   20SAPC  H13B 2555   0.965   3.510  10.991 -1.3621  0.3075 -0.7942
   20SAPC  H13C 2556   0.889   3.487  11.142  0.0229  2.2777 -1.1782
   20SAPC   C14 2557   0.732   3.382  10.953  0.2157 -0.6149  0.4050
   20SAPC  H14A 2558   0.658   3.310  10.920  0.5965 -2.0581  2.4752
   20SAPC  H14B 2559   0.694   3.448  11.030  1.3871  0.8661 -0.2462
   20SAPC  H14C 2560   0.743   3.448  10.869 -0.8806  0.7988  1.3269
   20SAPC   C15 2561   0.828   3.204  11.088  0.3128 -0.1749 -0.2710
   20SAPC  H15A 2562   0.759   3.247  11.159  1.3628 -1.4812  1.6129
   20SAPC  H15B 2563   0.783   3.124  11.031 -2.5234  1.8427 -1.0842
   20SAPC  H15C 2564   0.909   3.174  11.153 -0.6757 -1.9070  0.2034
   20SAPC   C11 2565   0.861   3.157  10.784 -0.0366  0.4239 -0.7060
   20SAPC  H11A 2566   0.905   3.153  10.682  1.3033 -2.1111 -0.1249
   20SAPC  H11B 2567   0.752   3.176  10.770  0.3795  2.3732 -1.5771
   20SAPC     P 2568   0.994   2.950  10.844 -0.4909 -0.0416 -0.3514
   20SAPC   O13 2569   1.110   3.032  10.866 -0.2432 -0.1371 -0.3808
   20SAPC   O14 2570   0.982   2.823  10.924  0.7635 -0.2716  0.0912
   20SAPC   O12 2571   0.867   3.031  10.849 -0.3489 -0.5491  0.0549
   20SAPC   O11 2572   0.999   2.910  10.689 -0.3837 -0.2003  0.0752
   20SAPC    C1 2573   0.902   2.824  10.640 -0.0517  0.3390 -0.0411
   20SAPC    HA 2574   0.908   2.718  10.671 -3.3084  0.2091  0.4348
   20SAPC    HB 2575   0.802   2.870  10.653  0.0721  1.0492 -1.3767
   20SAPC    C2 2576   0.922   2.806  10.481 -0.4805  0.7010  0.7034
   20SAPC    HS 2577   1.017   2.748  10.479 -0.6504  0.4272 -1.8782
   20SAPC   O21 2578   0.935   2.937  10.414 -0.0807 -0.4831 -0.1616
   20SAPC   C21 2579   1.041   3.016  10.427 -0.7135  0.4215  0.2144
   20SAPC   O22 2580   1.148   2.976  10.475 -0.1185  0.4947  0.8551
   20SAPC   C22 2581   1.010   3.162  10.387  0.0585  0.5106  0.5771
   20SAPC   H2R 2582   0.938   3.172  10.303 -2.5188  1.2060  2.7181
   20SAPC   H2S 2583   0.944   3.198  10.469 -1.6893 -0.0262 -0.5467
   20SAPC    C3 2584   0.813   2.721  10.408  0.0422 -1.3523  0.0317
   20SAPC    HX 2585   0.721   2.779  10.433  1.2684  1.2275 -1.0388
   20SAPC    HY 2586   0.809   2.626  10.465  0.4773 -2.1118 -1.1816
   20SAPC   O31 2587   0.811   2.717  10.267  0.4844 -0.6230 -0.9036
   20SAPC   C31 2588   0.858   2.619  10.202 -0.6210 -0.4166 -0.6447
   20SAPC   O32 2589   0.913   2.516  10.250 -0.1744 -0.3192  0.4301
   20SAPC   C32 2590   0.838   2.640  10.053 -0.1686  0.3362 -0.0916
   20SAPC   H2X 2591   0.884   2.740  10.034  0.9095 -0.2453 -0.6180
   20SAPC   H2Y 2592   0.728   2.636  10.034 -0.1524 -3.4675 -0.0403
   20SAPC   C23 2593   1.132   3.251  10.387 -0.3770 -0.9163  0.0763
   20SAPC   H3R 2594   1.218   3.210  10.331 -1.5467 -0.8446 -1.8719
   20SAPC   H3S 2595   1.166   3.250  10.492 -1.3770  0.0762  0.4380
   20SAPC   C24 2596   1.115   3.395  10.332 -0.1928 -0.1238 -0.0722
   20SAPC   H4R 2597   1.038   3.438  10.400  1.1638  2.7784 -0.2484
   20SAPC   H4S 2598   1.069   3.385  10.231  1.3598 -0.5494 -0.7616
   20SAPC   C25 2599   1.249   3.472  10.336 -0.0772  0.5603 -0.0419
   20SAPC   H5R 2600   1.261   3.547  10.416  1.8921  0.1165  0.1213
   20SAPC   C26 2601   1.354   3.442  10.262 -0.2048  0.9342 -0.3121
   20SAPC   H6R 2602   1.446   3.502  10.256  0.0091  0.4520 -3.0856
   20SAPC   C27 2603   1.363   3.327  10.159  0.8699 -0.3904 -0.9571
   20SAPC   H7R 2604   1.355   3.354  10.051 -1.4402  0.7734 -0.5454
   20SAPC   H7S 2605   1.271   3.265  10.162  1.6970 -1.6787 -1.4008
   20SAPC   C28 2606   1.475   3.231  10.181 -0.0236 -0.1481  0.2238
   20SAPC   H8R 2607   1.493   3.217  10.288  1.4305  0.5154  0.0827
   20SAPC   C29 2608   1.547   3.158  10.099  0.2890  0.0124 -0.3662
   20SAPC   H9R 2609   1.625   3.094  10.142 -0.2505  0.2485  0.9902
   20SAPC  C210 2610   1.550   3.162   9.951  0.9045  0.4616 -0.2759
   20SAPC  H10R 2611   1.654   3.192   9.927  1.4580 -1.2669 -0.2096
   20SAPC  H10S 2612   1.475   3.234   9.912  1.3378  1.0192 -0.0867
   20SAPC  C211 2613   1.511   3.028   9.890 -0.7217  0.0297 -1.0010
   20SAPC  H11R 2614   1.484   2.948   9.961  1.6251  0.8118  0.9356
   20SAPC  C212 2615   1.516   3.001   9.760 -1.0609  0.1484 -0.3534
   20SAPC  H12R 2616   1.492   2.901   9.721  0.2629  0.0886 -1.0541
   20SAPC  C213 2617   1.577   3.090   9.659  0.5201 -0.3734  0.7416
   20SAPC  H13R 2618   1.658   3.153   9.702  1.0067  0.9445 -1.9078
   20SAPC  H13S 2619   1.498   3.158   9.620  1.6981  0.4619 -0.2843
   20SAPC  C214 2620   1.637   2.998   9.548  0.0805 -0.5052 -0.2385
   20SAPC  H14R 2621   1.745   2.978   9.551  0.1218 -0.4860 -1.1842
   20SAPC  C215 2622   1.558   2.949   9.448 -0.6196  0.0779 -0.0506
   20SAPC  H15R 2623   1.611   2.874   9.388  0.4411 -0.0993  1.0852
   20SAPC  C216 2624   1.415   2.963   9.413  0.5242 -0.0763  0.1789
   20SAPC  H16R 2625   1.393   3.006   9.313  0.2418  2.8118  1.3964
   20SAPC  H16S 2626   1.370   3.030   9.489 -0.0028 -0.0579 -0.1426
   20SAPC  C217 2627   1.338   2.832   9.432  0.4465 -1.0714 -0.7851
   20SAPC  H17R 2628   1.232   2.848   9.404  0.3524  0.9443  0.5572
   20SAPC  H17S 2629   1.350   2.808   9.540 -1.9363  0.4871 -0.1025
   20SAPC  C218 2630   1.390   2.720   9.343  0.3600  0.5853 -0.1239
   20SAPC  H18R 2631   1.333   2.629   9.370 -2.1776  2.1191  0.0203
   20SAPC  H18S 2632   1.494   2.695   9.372 -0.0774  0.0759  1.1170
   20SAPC  C219 2633   1.369   2.730   9.192  0.4481  0.5998  0.1558
   20SAPC  H19R 2634   1.436   2.806   9.147  1.0265 -1.4732 -2.8094
   20SAPC  H19S 2635   1.267   2.770   9.180  0.2378 -0.3790 -1.5877
   20SAPC  C220 2636   1.384   2.601   9.108 -0.0702 -0.7991 -0.4733
   20SAPC  H20R 2637   1.321   2.515   9.139  0.3427 -0.1900  2.4325
   20SAPC  H20S 2638   1.490   2.569   9.120 -0.4642 -1.1307  3.9717
   20SAPC  H20T 2639   1.367   2.637   9.005 -0.4464  1.3173  0.2820
   20SAPC   C33 2640   0.909   2.528   9.973  0.1975  0.2965  0.0701
   20SAPC   H3X 2641   0.867   2.428   9.997 -0.1310  0.6500  1.0333
   20SAPC   H3Y 2642   1.017   2.523   9.996  0.2835 -0.0370 -0.3858
   20SAPC   C34 2643   0.874   2.552   9.818 -0.7816 -0.5365 -0.3374
   20SAPC   H4X 2644   0.905   2.650   9.778  0.3386 -1.2747 -1.3485
   20SAPC   H4Y 2645   0.763   2.548   9.826 -0.6744 -1.2535  5.1375
   20SAPC   C35 2646   0.934   2.441   9.731 -0.0666  0.1034  0.1307
   20SAPC   H5X 2647   0.910   2.344   9.778 -2.8706  0.2930 -0.6998
   20SAPC   H5Y 2648   1.044   2.457   9.726  0.2266 -1.9467 -1.2880
   20SAPC   C36 2649   0.880   2.455   9.587  0.0521  0.0230 -0.1233
   20SAPC   H6X 2650   0.921   2.542   9.532  0.3192 -0.9653 -1.5224
   20SAPC   H6Y 2651   0.769   2.464   9.598 -0.1836 -1.4062 -1.1289
   20SAPC   C37 2652   0.899   2.328   9.506  0.5465  0.2386 -0.2784
   20SAPC   H7X 2653   0.840   2.250   9.559  0.2501  1.3165  1.0309
   20SAPC   H7Y 2654   1.002   2.286   9.510 -0.3126 -1.9965  3.6156
   20SAPC   C38 2655   0.852   2.359   9.362  0.0821  0.3611  0.7559
   20SAPC   H8X 2656   0.937   2.417   9.321  2.1506 -0.0074  4.0620
   20SAPC   H8Y 2657   0.752   2.404   9.348 -0.5426 -0.7153  1.5373
   20SAPC   C39 2658   0.854   2.230   9.285  1.0738 -0.1557  0.2873
   20SAPC   H9X 2659   0.771   2.166   9.322 -0.9436  2.1447 -0.0303
   20SAPC   H9Y 2660   0.944   2.169   9.307  0.4105 -1.3532 -0.2080
   20SAPC  C310 2661   0.835   2.234   9.137  0.1663 -0.7382 -0.9161
   20SAPC  H10X 2662   0.731   2.259   9.109  0.0474  0.1997  0.3071
   20SAPC  H10Y 2663   0.870   2.135   9.100 -0.1403 -1.1561 -0.1032
   20SAPC  C311 2664   0.938   2.327   9.063 -0.1059 -0.5135 -0.7632
   20SAPC  H11X 2665   1.035   2.295   9.106 -2.0787 -2.2613  2.8971
   20SAPC  H11Y 2666   0.919   2.432   9.092  0.4213 -0.5970 -0.1008
   20SAPC  C312 2667   0.929   2.318   8.912 -0.6765  0.3462 -0.1572
   20SAPC  H12X 2668   0.828   2.289   8.874 -0.1685 -0.3588 -0.9995
   20SAPC  H12Y 2669   0.985   2.228   8.879 -2.1284 -0.8250  0.4343
   20SAPC  C313 2670   0.994   2.441   8.843 -0.7909 -0.0177 -0.2073
   20SAPC  H13X 2671   1.094   2.466   8.883 -0.9458  0.9406 -0.3979
   20SAPC  H13Y 2672   0.932   2.533   8.838  0.5634  0.9244 -0.1437
   20SAPC  C314 2673   1.023   2.406   8.698 -0.0435 -0.4301  0.2579
   20SAPC  H14X 2674   1.104   2.329   8.700 -1.0382 -1.5515 -0.6964
   20SAPC  H14Y 2675   1.070   2.493   8.648  1.2545 -0.7218  0.9320
   20SAPC  C315 2676   0.905   2.362   8.614  0.0963 -0.1837 -0.3627
   20SAPC  H15X 2677   0.813   2.420   8.637  0.6485 -0.3413  2.6700
   20SAPC  H15Y 2678   0.887   2.256   8.642  1.5388  0.0369  1.6944
   20SAPC  C316 2679   0.949   2.370   8.467 -0.3959 -0.2370  0.4237
   20SAPC  H16X 2680   1.032   2.300   8.443 -0.4744  0.1489 -1.0858
   20SAPC  H16Y 2681   0.986   2.471   8.436 -1.9563  0.6074  1.2287
   20SAPC  C317 2682   0.838   2.340   8.365  0.8336 -0.1713  0.1849
   20SAPC  H17X 2683   0.769   2.257   8.393  0.8301 -0.4313 -0.5931
   20SAPC  H17Y 2684   0.886   2.314   8.269  0.3565 -0.0361 -0.0938
   20SAPC  C318 2685   0.759   2.471   8.340  0.2893  0.4110  0.5790
   20SAPC  H18X 2686   0.828   2.549   8.299  0.7739  0.2789  1.1405
   20SAPC  H18Y 2687   0.729   2.511   8.439  1.9665  4.5296 -0.3518
   20SAPC  H18Z 2688   0.665   2.459   8.281  0.4583  0.2047  0.3481
   21SAPC     N 2689   2.256   2.679  10.844 -0.1851  0.1666  0.0008
   21SAPC   C12 2690   2.256   2.565  10.739 -0.1476 -0.7366  0.2566
   21SAPC  H12A 2691   2.329   2.588  10.663 -2.7358  0.1753 -2.1216
   21SAPC  H12B 2692   2.157   2.557  10.695 -0.2539 -2.8490  0.7483
   21SAPC   C13 2693   2.150   2.669  10.946  0.6340 -0.4751 -0.0371
   21SAPC  H13A 2694   2.153   2.575  11.000 -1.9973  0.5139  2.0796
   21SAPC  H13B 2695   2.157   2.743  11.024 -0.5223  1.2169 -1.4487
   21SAPC  H13C 2696   2.049   2.672  10.906  0.4857 -0.7442  0.3122
   21SAPC   C14 2697   2.393   2.689  10.905  0.8656  0.1902  0.0262
   21SAPC  H14A 2698   2.403   2.766  10.980 -0.0685  0.7120 -0.3740
   21SAPC  H14B 2699   2.402   2.602  10.969 -0.5485 -0.4082 -0.5465
   21SAPC  H14C 2700   2.468   2.694  10.828 -0.6250  3.1098 -1.3952
   21SAPC   C15 2701   2.241   2.804  10.759  0.6282 -0.3139 -0.4000
   21SAPC  H15A 2702   2.318   2.823  10.686 -0.0116  2.0556 -0.5639
   21SAPC  H15B 2703   2.149   2.801  10.703 -0.0738 -1.0440  0.7366
   21SAPC  H15C 2704   2.236   2.888  10.827 -1.9347  0.1235 -1.0138
   21SAPC   C11 2705   2.287   2.429  10.797  0.2228  0.5891 -0.1829
   21SAPC  H11A 2706   2.379   2.415  10.859 -0.0395 -2.0621 -0.2621
   21SAPC  H11B 2707   2.304   2.361  10.711 -2.4566 -1.0645  0.4845
   21SAPC     P 2708   2.076   2.295  10.846  0.5129 -0.3332 -0.4181
   21SAPC   O13 2709   2.029   2.237  10.971 -0.2867  0.2536  0.0397
   21SAPC   O14 2710   1.977   2.356  10.756 -0.2649  0.3238  0.7354
   21SAPC   O12 2711   2.183   2.398  10.886 -0.3644 -0.6579 -0.0551
   21SAPC   O11 2712   2.158   2.182  10.765 -0.1434 -0.4066  0.3733
   21SAPC    C1 2713   2.155   2.186  10.624  0.3754  0.6128  0.1040
   21SAPC    HA 2714   2.148   2.287  10.580  1.9403  0.1855 -1.2422
   21SAPC    HB 2715   2.251   2.148  10.583  0.7496 -0.2920  1.7012
   21SAPC    C2 2716   2.056   2.087  10.563 -0.3478 -0.7565  0.2185
   21SAPC    HS 2717   2.042   2.005  10.637  2.1275 -1.5302 -0.0542
   21SAPC   O21 2718   2.115   2.029  10.444 -0.6679  0.5058 -0.6131
   21SAPC   C21 2719   2.089   1.900  10.432  0.0940 -0.1853  0.3302
   21SAPC   O22 2720   2.025   1.832  10.510  0.5452 -0.5020  0.7500
   21SAPC   C22 2721   2.185   1.843  10.324  0.0880 -0.2204  0.8017
   21SAPC   H2R 2722   2.215   1.925  10.256 -1.1055  0.2725  0.8504
   21SAPC   H2S 2723   2.280   1.801  10.365  1.5377  0.2575 -1.8546
   21SAPC    C3 2724   1.923   2.151  10.518  0.2144 -0.0920 -1.1628
   21SAPC    HX 2725   1.940   2.244  10.459 -2.6988  0.2920 -1.5453
   21SAPC    HY 2726   1.871   2.174  10.613  1.7646 -1.1407 -0.0004
   21SAPC   O31 2727   1.844   2.060  10.434  0.1717  0.2032 -0.3513
   21SAPC   C31 2728   1.807   2.101  10.312 -0.0460  0.8024  0.6378
   21SAPC   O32 2729   1.825   2.217  10.277 -0.8171 -0.4369 -0.1357
   21SAPC   C32 2730   1.754   1.985  10.228  0.0256 -0.4270 -0.7352
   21SAPC   H2X 2731   1.645   2.004  10.213  0.0088  1.3821  1.1639
   21SAPC   H2Y 2732   1.755   1.892  10.289 -0.4497 -0.6476 -1.0582
   21SAPC   C23 2733   2.107   1.722  10.254  0.2026  0.0133 -0.6847
   21SAPC   H3R 2734   2.007   1.768  10.238  0.6452  0.9471 -0.8525
   21SAPC   H3S 2735   2.097   1.641  10.329 -1.2377  1.9748  1.3827
   21SAPC   C24 2736   2.153   1.665  10.121 -0.1006  0.5088  0.5767
   21SAPC   H4R 2737   2.172   1.759  10.065  0.8128 -0.2133 -0.3726
   21SAPC   H4S 2738   2.073   1.599  10.081 -0.1612  0.0143  1.4787
   21SAPC   C25 2739   2.282   1.586  10.114  0.1144  0.3908  0.7043
   21SAPC   H5R 2740   2.314   1.548  10.212  1.1892 -1.0929 -0.1874
   21SAPC   C26 2741   2.359   1.578  10.003  0.3573  0.6919 -0.8602
   21SAPC   H6R 2742   2.455   1.525   9.995  1.2832  2.2907 -0.8112
   21SAPC   C27 2743   2.317   1.646   9.874 -0.2576  0.1108 -0.0857
   21SAPC   H7R 2744   2.254   1.735   9.894  0.4122  0.4856  0.3808
   21SAPC   H7S 2745   2.248   1.592   9.805 -0.1166 -0.4641  0.2134
   21SAPC   C28 2746   2.427   1.708   9.794  0.8023  0.8602  0.6412
   21SAPC   H8R 2747   2.483   1.782   9.854  0.4841  0.1841  1.7982
   21SAPC   C29 2748   2.458   1.676   9.668 -0.6863 -0.6124  0.3233
   21SAPC   H9R 2749   2.542   1.732   9.623  0.4837 -1.8286  0.9060
   21SAPC  C210 2750   2.387   1.582   9.572 -0.2609  0.2609 -0.0433
   21SAPC  H10R 2751   2.324   1.644   9.505 -0.1865  1.8001  1.2639
   21SAPC  H10S 2752   2.328   1.501   9.620  0.8714  0.3557  1.6049
   21SAPC  C211 2753   2.484   1.509   9.495 -0.3204 -0.3796  0.0951
   21SAPC  H11R 2754   2.531   1.433   9.559 -2.6100 -3.9557 -2.1222
   21SAPC  C212 2755   2.523   1.516   9.367  0.3005 -0.2951  0.5187
   21SAPC  H12R 2756   2.595   1.445   9.322  1.8485  1.0369  0.7933
   21SAPC  C213 2757   2.457   1.603   9.259 -0.3010 -0.2859 -0.1766
   21SAPC  H13R 2758   2.545   1.657   9.219 -0.2408  0.8306  1.3640
   21SAPC  H13S 2759   2.382   1.673   9.300  2.4259  2.2682  0.7856
   21SAPC  C214 2760   2.386   1.508   9.154  0.2725 -0.1055 -0.8822
   21SAPC  H14R 2761   2.295   1.455   9.184 -0.0150  0.3423 -0.9411
   21SAPC  C215 2762   2.437   1.470   9.036  0.2560  0.8042  0.3264
   21SAPC  H15R 2763   2.407   1.379   8.982  2.8155  0.2099 -0.2537
   21SAPC  C216 2764   2.556   1.533   8.963 -0.6207 -0.3561  0.2181
   21SAPC  H16R 2765   2.649   1.479   8.990  0.0467 -0.5699 -2.2760
   21SAPC  H16S 2766   2.567   1.638   8.999 -2.5885 -0.1769  0.3914
   21SAPC  C217 2767   2.553   1.526   8.809  0.5310 -0.4340  0.0105
   21SAPC  H17R 2768   2.474   1.594   8.770 -0.7991 -1.7802  0.2838
   21SAPC  H17S 2769   2.530   1.422   8.779  1.6810  0.0508 -2.8320
   21SAPC  C218 2770   2.685   1.575   8.745  0.1957 -0.8370 -0.1846
   21SAPC  H18R 2771   2.765   1.497   8.751 -0.4245 -1.4031  0.9536
   21SAPC  H18S 2772   2.724   1.662   8.802 -1.0021 -0.6888  0.4428
   21SAPC  C219 2773   2.677   1.629   8.598  0.2122  0.0514 -0.0476
   21SAPC  H19R 2774   2.779   1.666   8.570  0.3220  0.2186  0.5652
   21SAPC  H19S 2775   2.611   1.717   8.613  1.1441  0.5437  1.4164
   21SAPC  C220 2776   2.607   1.549   8.490 -0.0212  0.7542  0.6968
   21SAPC  H20R 2777   2.586   1.590   8.389  1.8746  0.2490  0.0693
   21SAPC  H20S 2778   2.509   1.508   8.522 -1.3995  2.6634 -0.8633
   21SAPC  H20T 2779   2.665   1.456   8.470 -0.0643  1.2430 -2.0654
   21SAPC   C33 2780   1.827   1.974  10.096  0.3753  0.6908 -0.4679
   21SAPC   H3X 2781   1.935   1.986  10.116  0.3407 -1.4658  1.4911
   21SAPC   H3Y 2782   1.788   2.048  10.023 -3.0857  1.1529  1.6052
   21SAPC   C34 2783   1.789   1.840  10.033  0.3170 -0.1710  0.8431
   21SAPC   H4X 2784   1.686   1.821  10.070  0.5355 -1.0612  1.0187
   21SAPC   H4Y 2785   1.856   1.761  10.073  2.4062  1.3964  0.6147
   21SAPC   C35 2786   1.795   1.833   9.877 -0.6989 -0.1141  0.4747
   21SAPC   H5X 2787   1.729   1.910   9.831 -0.5362 -0.4188 -0.2737
   21SAPC   H5Y 2788   1.745   1.742   9.840 -0.9754  0.3470 -0.3024
   21SAPC   C36 2789   1.941   1.844   9.833  0.2348 -0.8282 -0.0139
   21SAPC   H6X 2790   2.004   1.770   9.887 -0.0354 -0.3082  1.0432
   21SAPC   H6Y 2791   1.972   1.944   9.871  0.1202  0.0792 -2.1620
   21SAPC   C37 2792   1.954   1.841   9.680  0.1578 -0.5299  0.3592
   21SAPC   H7X 2793   1.905   1.936   9.650 -2.2432 -1.2873  1.5839
   21SAPC   H7Y 2794   1.880   1.762   9.654 -1.7478 -0.2054  4.0914
   21SAPC   C38 2795   2.095   1.820   9.643 -0.6544 -0.0529 -0.2912
   21SAPC   H8X 2796   2.133   1.718   9.662 -2.5050 -0.8904 -0.8470
   21SAPC   H8Y 2797   2.162   1.893   9.694  0.9322 -0.4967 -1.6320
   21SAPC   C39 2798   2.109   1.843   9.490 -0.1612 -0.8829 -0.5556
   21SAPC   H9X 2799   2.218   1.848   9.471  0.0254  2.9915  0.6633
   21SAPC   H9Y 2800   2.077   1.943   9.454  1.0370 -0.0001  0.7532
   21SAPC  C310 2801   2.044   1.742   9.397 -0.2105 -0.0762 -0.1967
   21SAPC  H10X 2802   1.943   1.704   9.425 -0.4337 -1.0428 -2.1443
   21SAPC  H10Y 2803   2.110   1.653   9.408  0.1089  0.0700 -0.8966
   21SAPC  C311 2804   2.024   1.784   9.254  0.2385 -0.1697  1.2290
   21SAPC  H11X 2805   1.972   1.882   9.247 -3.2152 -1.9340 -0.2150
   21SAPC  H11Y 2806   1.950   1.724   9.196  0.5071  0.6185  0.0224
   21SAPC  C312 2807   2.159   1.791   9.174  0.1491 -0.1084 -0.0937
   21SAPC  H12X 2808   2.199   1.687   9.166 -1.2952 -0.6183 -1.2249
   21SAPC  H12Y 2809   2.233   1.844   9.236  0.2883 -0.7287  0.2817
   21SAPC  C313 2810   2.155   1.860   9.036 -0.2604 -0.6372 -0.0938
   21SAPC  H13X 2811   2.144   1.969   9.054 -0.6624 -0.6308 -0.3622
   21SAPC  H13Y 2812   2.063   1.830   8.981 -1.3830  2.0061  0.2133
   21SAPC  C314 2813   2.279   1.817   8.956  0.3334  0.3767  0.0849
   21SAPC  H14X 2814   2.276   1.706   8.964 -0.4026  0.4747  1.5609
   21SAPC  H14Y 2815   2.365   1.867   9.006 -0.6505  2.2334  0.0077
   21SAPC  C315 2816   2.268   1.857   8.808 -0.3306  0.1303 -0.2446
   21SAPC  H15X 2817   2.366   1.846   8.757  0.3567  2.0345  0.5881
   21SAPC  H15Y 2818   2.259   1.967   8.802 -0.7377  0.1744  1.0015
   21SAPC  C316 2819   2.172   1.778   8.721  0.8498 -0.3080 -0.0445
   21SAPC  H16X 2820   2.068   1.790   8.759  0.9611 -1.8513  0.8259
   21SAPC  H16Y 2821   2.203   1.672   8.731  1.7469 -0.0150  0.4051
   21SAPC  C317 2822   2.183   1.830   8.574  0.3582  0.5721 -1.2516
   21SAPC  H17X 2823   2.123   1.752   8.522  1.5343 -0.9430 -0.4305
   21SAPC  H17Y 2824   2.288   1.818   8.540  0.5728  0.6835 -0.6311
   21SAPC  C318 2825   2.127   1.969   8.550  0.2781 -1.0584 -0.4859
   21SAPC  H18X 2826   2.118   2.001   8.444 -1.1052  0.3543  0.0100
   21SAPC  H18Y 2827   2.197   2.044   8.592  0.5810 -0.4686 -1.9799
   21SAPC  H18Z 2828   2.026   1.985   8.594  1.5532  2.5471  1.5859
   22SAPC     N 2829   1.104   5.224  10.713  0.3014  0.1433 -0.1313
   22SAPC   C12 2830   1.102   5.374  10.715 -0.1513  0.1954 -0.5815
   22SAPC  H12A 2831   1.073   5.419  10.621  0.4113  3.1187  0.5410
   22SAPC  H12B 2832   1.203   5.408  10.728  0.5835 -1.3837 -1.7601
   22SAPC   C13 2833   1.214   5.168  10.629 -0.7720 -0.0645  0.1060
   22SAPC  H13A 2834   1.189   5.163  10.524  0.5104 -0.1864 -0.2051
   22SAPC  H13B 2835   1.310   5.217  10.640  0.5104 -2.0811 -1.3666
   22SAPC  H13C 2836   1.232   5.065  10.659  1.8580 -0.3804 -2.1392
   22SAPC   C14 2837   1.132   5.166  10.844  0.1504  0.2202  0.3976
   22SAPC  H14A 2838   1.216   5.218  10.889  1.7277 -1.1820 -0.7815
   22SAPC  H14B 2839   1.045   5.175  10.908  0.8526 -2.7522  1.9970
   22SAPC  H14C 2840   1.169   5.064  10.841  1.8689  0.8259  0.0632
   22SAPC   C15 2841   0.966   5.176  10.663 -0.3434 -0.3996 -0.8815
   22SAPC  H15A 2842   0.953   5.069  10.676  0.3210 -0.3417  0.4448
   22SAPC  H15B 2843   0.889   5.222  10.724 -0.7775 -1.5489 -0.5192
   22SAPC  H15C 2844   0.940   5.205  10.563 -0.4062  2.5650 -0.0938
   22SAPC   C11 2845   1.012   5.452  10.811 -0.0890 -0.2101  0.1009
   22SAPC  H11A 2846   1.047   5.557  10.813  0.6703 -0.4582  1.0616
   22SAPC  H11B 2847   1.042   5.412  10.911  0.9731 -1.9454 -0.8591
   22SAPC     P 2848   0.809   5.549  10.692  0.5601 -0.2332  0.0023
   22SAPC   O13 2849   0.681   5.493  10.649 -0.5398  1.0800 -0.1470
   22SAPC   O14 2850   0.797   5.670  10.770  0.5295 -0.5778 -0.6541
   22SAPC   O12 2851   0.874   5.442  10.793  0.1028  0.0223 -0.2177
   22SAPC   O11 2852   0.908   5.546  10.571  0.5534 -0.7851 -0.4727
   22SAPC    C1 2853   0.961   5.669  10.523 -0.5755  0.7132 -0.3911
   22SAPC    HA 2854   1.011   5.727  10.603  2.5729 -1.7570 -0.3572
   22SAPC    HB 2855   1.041   5.645  10.450  0.1454  3.4149 -0.6070
   22SAPC    C2 2856   0.859   5.755  10.437 -0.0874 -0.1343 -0.1337
   22SAPC    HS 2857   0.761   5.760  10.489 -0.2365  0.3672 -0.4582
   22SAPC   O21 2858   0.846   5.706  10.299 -0.7922  0.0431 -0.0978
   22SAPC   C21 2859   0.748   5.745  10.224 -0.2313 -0.2540  0.9521
   22SAPC   O22 2860   0.641   5.786  10.255  0.3160 -0.3938 -0.3861
   22SAPC   C22 2861   0.793   5.725  10.079  0.1640 -0.1747  0.5479
   22SAPC   H2R 2862   0.873   5.649  10.074 -1.9573 -2.4494 -2.2998
   22SAPC   H2S 2863   0.702   5.685  10.030  0.3299 -1.4884  1.2719
   22SAPC    C3 2864   0.908   5.897  10.430  0.1380 -0.8428  0.3933
   22SAPC    HX 2865   1.013   5.883  10.395 -0.2895 -0.2143 -1.2605
   22SAPC    HY 2866   0.916   5.937  10.533 -1.0637 -1.6195  0.8192
   22SAPC   O31 2867   0.841   5.984  10.333 -0.0224  0.6087  0.3369
   22SAPC   C31 2868   0.778   6.089  10.379  0.0839 -0.1465 -0.7417
   22SAPC   O32 2869   0.780   6.145  10.487  0.2406  0.3388  0.4646
   22SAPC   C32 2870   0.718   6.138  10.248 -0.1490  0.0648  0.1294
   22SAPC   H2X 2871   0.643   6.216  10.273  1.8693  2.3978 -0.6948
   22SAPC   H2Y 2872   0.682   6.058  10.180  1.1793 -0.4988  0.0585
   22SAPC   C23 2873   0.831   5.851  10.006 -0.2904  0.0012 -0.7415
   22SAPC   H3R 2874   0.927   5.880  10.053 -0.3485 -1.4302  0.3347
   22SAPC   H3S 2875   0.752   5.928  10.018 -0.7201 -0.8536  2.8247
   22SAPC   C24 2876   0.846   5.831   9.854  0.4617  0.1278  0.4317
   22SAPC   H4R 2877   0.755   5.781   9.814  0.2762  1.6960 -1.2595
   22SAPC   H4S 2878   0.932   5.763   9.836 -0.0930 -0.0902 -1.7138
   22SAPC   C25 2879   0.870   5.961   9.785 -0.6991  0.3459 -0.7882
   22SAPC   H5R 2880   0.929   6.028   9.849 -0.5353 -1.1583  0.7105
   22SAPC   C26 2881   0.818   6.000   9.669  0.5404  0.6102  0.4417
   22SAPC   H6R 2882   0.840   6.101   9.633 -0.1875  0.2482 -1.0894
   22SAPC   C27 2883   0.728   5.932   9.573  0.2943  0.0555 -0.3697
   22SAPC   H7R 2884   0.755   5.825   9.564 -2.8755 -0.9145  0.2032
   22SAPC   H7S 2885   0.749   5.975   9.473 -1.9429 -0.2100 -1.0133
   22SAPC   C28 2886   0.579   5.941   9.600  0.2600  0.5093 -1.0610
   22SAPC   H8R 2887   0.546   5.889   9.691  2.3015  1.1930  0.1240
   22SAPC   C29 2888   0.488   6.015   9.530  0.0265 -0.3669 -0.4686
   22SAPC   H9R 2889   0.381   6.001   9.554  0.2880 -1.1840  0.2541
   22SAPC  C210 2890   0.516   6.105   9.417 -0.4716  0.6999  0.3531
   22SAPC  H10R 2891   0.620   6.141   9.434  0.3152 -1.7480  1.2110
   22SAPC  H10S 2892   0.455   6.197   9.428 -0.0545  0.9695  0.4169
   22SAPC  C211 2893   0.517   6.043   9.282 -0.1110 -0.0216 -0.6068
   22SAPC  H11R 2894   0.600   5.970   9.276  1.3484  1.2747  2.1476
   22SAPC  C212 2895   0.433   6.076   9.178 -0.2757 -0.2305 -0.6775
   22SAPC  H12R 2896   0.441   6.022   9.083  0.6664 -0.2454 -0.5992
   22SAPC  C213 2897   0.326   6.178   9.187 -0.1778  0.5516 -0.9167
   22SAPC  H13R 2898   0.288   6.201   9.085 -1.9655 -0.2932 -0.4908
   22SAPC  H13S 2899   0.366   6.267   9.239  0.1621  0.2825 -0.7094
   22SAPC  C214 2900   0.206   6.127   9.262 -0.1392  0.4986  0.2463
   22SAPC  H14R 2901   0.229   6.131   9.370  0.4065  1.5923  0.1016
   22SAPC  C215 2902   0.085   6.097   9.211  0.0667  0.0333 -0.0339
   22SAPC  H15R 2903   0.006   6.071   9.284 -0.3967  0.3239 -0.4276
   22SAPC  C216 2904   0.048   6.100   9.066 -0.8671  0.2146  0.6364
   22SAPC  H16R 2905   0.090   6.013   9.010 -1.0376  0.4777  0.0907
   22SAPC  H16S 2906   0.078   6.188   9.005 -1.6174  1.6266  2.2120
   22SAPC  C217 2907  -0.102   6.085   9.061  0.0232 -0.2877 -0.1215
   22SAPC  H17R 2908  -0.147   6.171   9.114  1.0576  0.0810  0.1835
   22SAPC  H17S 2909  -0.128   6.003   9.132  0.1099 -0.9522 -0.8429
   22SAPC  C218 2910  -0.164   6.050   8.919  0.6460  0.2942 -0.4509
   22SAPC  H18R 2911  -0.118   5.952   8.894 -1.1169 -1.3247  2.1767
   22SAPC  H18S 2912  -0.136   6.131   8.849  2.9263 -1.6539 -1.9312
   22SAPC  C219 2913  -0.318   6.048   8.923  0.1502  0.0943  0.1669
   22SAPC  H19R 2914  -0.351   6.141   8.974  2.2840  0.9460  0.1242
   22SAPC  H19S 2915  -0.334   5.968   8.999  0.8774 -0.2349 -0.0175
   22SAPC  C220 2916  -0.379   6.016   8.790  1.1300  0.8621  0.1821
   22SAPC  H20R 2917  -0.391   5.905   8.790 -0.8323  1.0369 -0.4019
   22SAPC  H20S 2918  -0.321   6.034   8.697  0.2423  2.3678 -0.1049
   22SAPC  H20T 2919  -0.477   6.064   8.770  0.3053 -1.3071 -1.4080
   22SAPC   C33 2920   0.830   6.216  10.172 -0.0377  0.4019  0.2057
   22SAPC   H3X 2921   0.928   6.163  10.163  0.0638  0.6590 -0.2364
   22SAPC   H3Y 2922   0.864   6.293  10.244  2.0165 -1.9340  1.9099
   22SAPC   C34 2923   0.790   6.282  10.037  0.3286 -0.8003  0.4722
   22SAPC   H4X 2924   0.686   6.321  10.041  0.4884 -0.2865 -0.2013
   22SAPC   H4Y 2925   0.786   6.203   9.959 -0.1067 -0.9364  0.6266
   22SAPC   C35 2926   0.868   6.405   9.992  0.3469  0.4283  0.1270
   22SAPC   H5X 2927   0.972   6.375   9.969  0.4348  1.1435 -0.4625
   22SAPC   H5Y 2928   0.875   6.478  10.076  1.2490  1.1907 -0.5952
   22SAPC   C36 2929   0.799   6.469   9.867 -0.2217 -0.1892  0.2070
   22SAPC   H6X 2930   0.877   6.545   9.846 -1.3783  0.5595 -1.6116
   22SAPC   H6Y 2931   0.701   6.514   9.893  1.0106  3.3256 -0.6832
   22SAPC   C37 2932   0.795   6.378   9.743 -0.1027  0.1170 -0.4431
   22SAPC   H7X 2933   0.698   6.327   9.753  0.8020 -1.3926  1.1065
   22SAPC   H7Y 2934   0.877   6.303   9.738  0.5597  0.8560 -1.1557
   22SAPC   C38 2935   0.803   6.457   9.613  0.1596 -0.4473 -0.1070
   22SAPC   H8X 2936   0.906   6.448   9.570 -0.8414  2.5441 -3.6533
   22SAPC   H8Y 2937   0.792   6.565   9.634  0.2071 -0.1994 -1.3088
   22SAPC   C39 2938   0.709   6.426   9.504  0.3425 -0.2546 -0.5436
   22SAPC   H9X 2939   0.603   6.426   9.539  0.0696 -0.2792 -1.3320
   22SAPC   H9Y 2940   0.738   6.328   9.462 -0.7854 -0.3408 -1.1888
   22SAPC  C310 2941   0.713   6.533   9.398  0.4524  0.1689 -0.3936
   22SAPC  H10X 2942   0.820   6.537   9.368  0.9317 -2.9670  0.5272
   22SAPC  H10Y 2943   0.683   6.624   9.454 -0.7240 -0.6054  0.2789
   22SAPC  C311 2944   0.609   6.511   9.286 -0.1472 -0.4440  0.1766
   22SAPC  H11X 2945   0.505   6.499   9.321  0.4226 -3.3023  1.1814
   22SAPC  H11Y 2946   0.630   6.416   9.232  0.6491 -0.4425  0.4711
   22SAPC  C312 2947   0.615   6.627   9.175 -0.5204  0.5424 -0.0142
   22SAPC  H12X 2948   0.708   6.625   9.115 -0.0529 -1.4937  0.6867
   22SAPC  H12Y 2949   0.596   6.721   9.231  1.0643  0.0038  1.5026
   22SAPC  C313 2950   0.507   6.613   9.065  0.2797 -0.3516 -0.0240
   22SAPC  H13X 2951   0.518   6.508   9.030  2.8687 -0.0061 -0.4649
   22SAPC  H13Y 2952   0.516   6.684   8.980  0.3032 -0.1810  0.1210
   22SAPC  C314 2953   0.364   6.628   9.115 -0.0830 -0.2359 -0.5360
   22SAPC  H14X 2954   0.370   6.719   9.180 -3.3219 -0.0278 -0.3557
   22SAPC  H14Y 2955   0.340   6.534   9.170  2.4560 -1.2709 -1.0916
   22SAPC  C315 2956   0.259   6.627   8.998 -0.2058  0.1625 -0.0469
   22SAPC  H15X 2957   0.294   6.706   8.929 -1.1109  1.9493  1.4417
   22SAPC  H15Y 2958   0.156   6.650   9.032 -0.4613 -0.9345 -0.0439
   22SAPC  C316 2959   0.251   6.484   8.931  1.1783  0.0355 -0.7025
   22SAPC  H16X 2960   0.247   6.409   9.013 -0.0503  0.0120 -0.7658
   22SAPC  H16Y 2961   0.341   6.467   8.867  0.6874 -1.7983 -0.9576
   22SAPC  C317 2962   0.131   6.457   8.837 -0.2300 -1.0341  0.0721
   22SAPC  H17X 2963   0.144   6.353   8.801  0.2638 -2.0165  2.8888
   22SAPC  H17Y 2964   0.141   6.536   8.759 -0.6855 -1.6543 -0.6354
   22SAPC  C318 2965  -0.009   6.484   8.893  0.2995  0.4844 -0.3171
   22SAPC  H18X 2966  -0.083   6.448   8.818  1.6464  1.2368 -2.0739
   22SAPC  H18Y 2967  -0.036   6.588   8.921 -0.9659  0.2756 -0.7025
   22SAPC  H18Z 2968  -0.018   6.419   8.983 -2.0662 -0.8549 -1.4370
   23SAPC     N 2969   2.457   1.414  11.246  0.3731 -0.2317  0.1751
   23SAPC   C12 2970   2.423   1.502  11.123 -0.1067 -0.3788 -0.2351
   23SAPC  H12A 2971   2.372   1.590  11.159  3.0984  1.6881 -0.3267
   23SAPC  H12B 2972   2.347   1.449  11.067 -0.8075 -2.0355  2.1048
   23SAPC   C13 2973   2.327   1.347  11.294 -0.4759  0.1057  0.3270
   23SAPC  H13A 2974   2.247   1.415  11.318  0.9222  1.7011  0.7276
   23SAPC  H13B 2975   2.285   1.287  11.215 -1.2696  1.5752 -0.4155
   23SAPC  H13C 2976   2.354   1.293  11.384 -1.5881  1.1300  1.3122
   23SAPC   C14 2977   2.552   1.306  11.216 -0.5817 -0.5377 -0.6590
   23SAPC  H14A 2978   2.516   1.243  11.136 -2.7103 -2.8133  1.8972
   23SAPC  H14B 2979   2.651   1.345  11.200  0.2372 -0.3418  3.7168
   23SAPC  H14C 2980   2.569   1.242  11.301  0.7308  1.0384  0.3328
   23SAPC   C15 2981   2.513   1.499  11.355  0.0238  0.5592 -0.3879
   23SAPC  H15A 2982   2.585   1.568  11.314  0.4585  1.1298  1.2382
   23SAPC  H15B 2983   2.436   1.558  11.403  0.4551  0.7020  0.1398
   23SAPC  H15C 2984   2.561   1.434  11.427  1.2545  1.5848 -0.2543
   23SAPC   C11 2985   2.543   1.552  11.043  0.1003  0.6918  0.3233
   23SAPC  H11A 2986   2.630   1.588  11.102  2.0868  1.2863 -2.7070
   23SAPC  H11B 2987   2.514   1.642  10.984 -0.2946 -0.1911 -0.8638
   23SAPC     P 2988   2.523   1.409  10.829  0.0667  0.3838  0.0415
   23SAPC   O13 2989   2.578   1.284  10.772 -0.3212  0.4991 -0.3053
   23SAPC   O14 2990   2.374   1.411  10.844  0.0418 -0.3747  0.2779
   23SAPC   O12 2991   2.590   1.438  10.964 -0.4951  0.1058  1.1756
   23SAPC   O11 2992   2.569   1.530  10.748  0.1668  0.0963  0.1813
   23SAPC    C1 2993   2.709   1.562  10.720 -0.0791 -0.6174 -0.1125
   23SAPC    HA 2994   2.728   1.667  10.752  0.5675 -1.2500  1.6967
   23SAPC    HB 2995   2.775   1.487  10.768 -1.3096 -1.7119 -0.0720
   23SAPC    C2 2996   2.743   1.569  10.569  0.7328  0.5466 -0.7429
   23SAPC    HS 2997   2.673   1.645  10.526  0.4302 -0.0648 -1.3510
   23SAPC   O21 2998   2.711   1.446  10.511  0.8289 -0.2657  0.8927
   23SAPC   C21 2999   2.592   1.431  10.454  0.9831 -0.9068 -0.1315
   23SAPC   O22 3000   2.513   1.525  10.430 -0.0404 -0.1679 -0.0615
   23SAPC   C22 3001   2.555   1.285  10.429 -0.8768  0.0280 -0.4678
   23SAPC   H2R 3002   2.648   1.225  10.440 -1.1252 -0.1878  0.5307
   23SAPC   H2S 3003   2.479   1.265  10.508 -0.8685 -1.5104 -0.8138
   23SAPC    C3 3004   2.896   1.600  10.533  0.8195  0.4814 -0.6848
   23SAPC    HX 3005   2.948   1.507  10.563 -1.1148 -0.6016 -0.5010
   23SAPC    HY 3006   2.938   1.684  10.592 -1.0937  0.7415  0.3864
   23SAPC   O31 3007   2.901   1.608  10.387 -0.0438  0.2840  0.0302
   23SAPC   C31 3008   3.027   1.603  10.331 -0.1908  0.0795  0.3400
   23SAPC   O32 3009   3.128   1.587  10.400  0.1710  0.2130  0.1955
   23SAPC   C32 3010   3.028   1.598  10.182 -0.2726 -0.2919  0.2460
   23SAPC   H2X 3011   2.989   1.695  10.145  2.0520  0.6734  0.1407
   23SAPC   H2Y 3012   2.958   1.523  10.140 -1.8353  0.9036  0.6680
   23SAPC   C23 3013   2.504   1.263  10.285 -0.4150 -0.1721  0.3705
   23SAPC   H3R 3014   2.419   1.333  10.275  1.7838  2.4552 -1.6298
   23SAPC   H3S 3015   2.467   1.158  10.279 -2.3992  0.5136  0.1635
   23SAPC   C24 3016   2.614   1.281  10.172  0.3946 -0.5424  0.2719
   23SAPC   H4R 3017   2.699   1.214  10.197  1.1205  0.6466  1.0550
   23SAPC   H4S 3018   2.650   1.384  10.188  2.5252 -1.3800  1.2202
   23SAPC   C25 3019   2.577   1.247  10.026  0.1970  0.6746 -0.2289
   23SAPC   H5R 3020   2.505   1.166  10.007  0.2799  0.4392  0.4235
   23SAPC   C26 3021   2.649   1.283   9.920 -0.2972  0.8181  0.4119
   23SAPC   H6R 3022   2.607   1.262   9.820  2.0799 -2.0226 -0.1274
   23SAPC   C27 3023   2.770   1.374   9.918 -0.2289 -0.4755 -0.5628
   23SAPC   H7R 3024   2.862   1.317   9.897  1.8593  1.5531  2.3596
   23SAPC   H7S 3025   2.780   1.428  10.014 -0.4845 -0.4743 -0.5360
   23SAPC   C28 3026   2.727   1.478   9.812  0.4944 -0.0007 -0.8381
   23SAPC   H8R 3027   2.623   1.514   9.807  0.0159 -0.9996  1.0532
   23SAPC   C29 3028   2.796   1.516   9.705 -0.3207  0.4716 -0.5502
   23SAPC   H9R 3029   2.746   1.572   9.625  1.1794 -0.3269 -2.1072
   23SAPC  C210 3030   2.936   1.468   9.669 -0.5469  0.5067 -0.4948
   23SAPC  H10R 3031   2.988   1.421   9.755 -1.1171  0.0105 -0.4132
   23SAPC  H10S 3032   3.003   1.554   9.649 -0.8158  1.6341  2.8276
   23SAPC  C211 3033   2.935   1.364   9.554 -0.0199 -0.0136 -0.3065
   23SAPC  H11R 3034   2.872   1.275   9.569  0.0597 -0.2141 -1.0963
   23SAPC  C212 3035   3.000   1.371   9.438  0.5436 -0.1328  0.3710
   23SAPC  H12R 3036   2.978   1.295   9.361  2.8470 -0.4824 -0.0100
   23SAPC  C213 3037   3.084   1.487   9.394 -0.4090  0.3238  0.9375
   23SAPC  H13R 3038   3.165   1.447   9.328 -0.2343 -2.0923  2.5111
   23SAPC  H13S 3039   3.141   1.522   9.482  0.1934  1.8316 -0.0035
   23SAPC  C214 3040   3.021   1.597   9.316 -0.2169 -0.9247 -0.0956
   23SAPC  H14R 3041   2.984   1.571   9.215  0.3785  1.1654 -0.8958
   23SAPC  C215 3042   3.020   1.731   9.357 -1.2336  0.1046 -0.0684
   23SAPC  H15R 3043   2.972   1.807   9.294  1.5739  2.8438  0.8613
   23SAPC  C216 3044   3.090   1.787   9.484  0.0620  0.6620 -0.3295
   23SAPC  H16R 3045   3.183   1.730   9.501  0.2364  1.1700  0.4518
   23SAPC  H16S 3046   3.030   1.792   9.577 -1.4681 -0.1131 -1.2235
   23SAPC  C217 3047   3.149   1.930   9.462  0.1960 -0.2843 -0.4182
   23SAPC  H17R 3048   3.205   1.943   9.367 -0.5123  1.4495 -0.6494
   23SAPC  H17S 3049   3.224   1.943   9.543 -0.9576 -1.8438  0.9578
   23SAPC  C218 3050   3.039   2.040   9.456 -0.2511 -0.0113  0.2571
   23SAPC  H18R 3051   2.986   2.048   9.553  0.6731 -2.1414  1.0039
   23SAPC  H18S 3052   2.969   2.024   9.371  0.2120 -0.0495 -0.1272
   23SAPC  C219 3053   3.090   2.181   9.426 -1.1015 -0.1760  0.1162
   23SAPC  H19R 3054   3.173   2.183   9.351 -1.2232 -0.4318 -0.0286
   23SAPC  H19S 3055   3.122   2.235   9.517  1.1706 -1.7182  0.3198
   23SAPC  C220 3056   2.976   2.270   9.372 -0.1647 -0.3662 -0.2920
   23SAPC  H20R 3057   2.900   2.273   9.452  0.4100  1.7861  0.2293
   23SAPC  H20S 3058   2.931   2.229   9.278  0.3607 -0.2054 -0.6182
   23SAPC  H20T 3059   3.004   2.375   9.349 -1.5640  0.4417  1.4443
   23SAPC   C33 3060   3.168   1.574  10.113 -0.0862  0.6557 -0.0631
   23SAPC   H3X 3061   3.229   1.504  10.174 -2.4577 -2.6215 -1.1763
   23SAPC   H3Y 3062   3.220   1.672  10.114  1.5979 -0.1915 -0.8114
   23SAPC   C34 3063   3.171   1.512   9.967 -0.3320 -0.3250 -0.9944
   23SAPC   H4X 3064   3.122   1.584   9.898 -1.2903  0.5607  0.5468
   23SAPC   H4Y 3065   3.109   1.420   9.958 -2.6526  1.0552 -0.1307
   23SAPC   C35 3066   3.309   1.463   9.924 -0.4023 -0.9623  0.0817
   23SAPC   H5X 3067   3.347   1.394  10.002 -1.4339 -1.7690 -0.1107
   23SAPC   H5Y 3068   3.376   1.550   9.910  0.4828 -1.8823 -1.7331
   23SAPC   C36 3069   3.311   1.371   9.793  0.3951  0.5823  0.1625
   23SAPC   H6X 3070   3.211   1.326   9.777  0.4225  0.8536 -0.7898
   23SAPC   H6Y 3071   3.391   1.296   9.806  0.3612  0.4830 -0.2004
   23SAPC   C37 3072   3.335   1.447   9.663  0.3228 -0.3379  0.0433
   23SAPC   H7X 3073   3.298   1.552   9.667 -0.3632 -0.6213  2.6787
   23SAPC   H7Y 3074   3.273   1.397   9.586  0.4012  0.9214 -0.8745
   23SAPC   C38 3075   3.475   1.444   9.602  0.2113 -0.4778  0.6280
   23SAPC   H8X 3076   3.517   1.343   9.620 -0.6841 -0.5866  2.3606
   23SAPC   H8Y 3077   3.537   1.522   9.651  1.9081 -0.6615 -1.1322
   23SAPC   C39 3078   3.477   1.451   9.447 -0.1494 -0.5031 -0.0658
   23SAPC   H9X 3079   3.403   1.370   9.428 -2.0975  0.5720  2.4110
   23SAPC   H9Y 3080   3.577   1.432   9.404 -0.5346 -0.2174 -1.1395
   23SAPC  C310 3081   3.444   1.591   9.385 -0.1905 -0.4639 -0.2241
   23SAPC  H10X 3082   3.503   1.671   9.434 -1.2567 -0.8677  1.8418
   23SAPC  H10Y 3083   3.337   1.603   9.413  0.0117 -2.5659  1.8227
   23SAPC  C311 3084   3.443   1.591   9.236 -0.4165  0.7986  0.4955
   23SAPC  H11X 3085   3.363   1.524   9.200 -0.6977 -0.2021  2.8584
   23SAPC  H11Y 3086   3.538   1.550   9.194 -0.0030  1.3247  0.8929
   23SAPC  C312 3087   3.413   1.736   9.181 -0.2471 -0.2352  0.0819
   23SAPC  H12X 3088   3.468   1.809   9.245 -0.4602  0.1470 -0.1677
   23SAPC  H12Y 3089   3.305   1.757   9.195 -0.0957  0.4610  0.2786
   23SAPC  C313 3090   3.450   1.762   9.038 -0.0920  0.4735  0.9523
   23SAPC  H13X 3091   3.555   1.732   9.019 -0.1936  0.1644  0.8797
   23SAPC  H13Y 3092   3.450   1.871   9.016  1.2520 -0.0324 -1.9328
   23SAPC  C314 3093   3.370   1.680   8.941 -0.0339 -0.2918 -0.3475
   23SAPC  H14X 3094   3.266   1.685   8.980  0.0209 -0.1192 -0.2214
   23SAPC  H14Y 3095   3.407   1.575   8.935 -1.2867 -0.7656 -0.0868
   23SAPC  C315 3096   3.348   1.733   8.803  0.0394  0.3858  0.3909
   23SAPC  H15X 3097   3.323   1.840   8.819 -1.2579 -0.2044  2.7628
   23SAPC  H15Y 3098   3.271   1.667   8.757  1.3201 -0.4981 -0.5584
   23SAPC  C316 3099   3.472   1.740   8.704  0.3171  0.1304  0.1418
   23SAPC  H16X 3100   3.545   1.805   8.757 -0.0203 -0.4566  1.3643
   23SAPC  H16Y 3101   3.447   1.790   8.609 -2.4229 -0.9365  0.1966
   23SAPC  C317 3102   3.542   1.607   8.670  0.9771  0.2856 -0.4090
   23SAPC  H17X 3103   3.463   1.532   8.649 -0.1368  1.8358 -2.0238
   23SAPC  H17Y 3104   3.602   1.576   8.758 -0.1458 -1.9710 -0.3726
   23SAPC  C318 3105   3.636   1.623   8.551  0.2573  0.1835  0.8644
   23SAPC  H18X 3106   3.593   1.661   8.456 -0.2473  0.8122  1.3397
   23SAPC  H18Y 3107   3.688   1.527   8.527 -0.7741 -0.9825  2.9758
   23SAPC  H18Z 3108   3.710   1.703   8.569  1.7673 -0.4581 -1.7986
   24SAPC     N 3109   4.892   0.110  11.261  0.2161 -0.3690  0.5677
   24SAPC   C12 3110   4.975   0.048  11.149 -0.2724 -0.3485  0.4311
   24SAPC  H12A 3111   4.915  -0.033  11.112 -2.3437  1.8041 -1.2185
   24SAPC  H12B 3112   5.071   0.017  11.187 -0.0784 -0.3954 -0.0934
   24SAPC   C13 3113   4.770   0.177  11.209 -0.0597 -0.0439 -1.2212
   24SAPC  H13A 3114   4.804   0.267  11.160 -0.6670  1.1246  0.4195
   24SAPC  H13B 3115   4.716   0.122  11.133  0.5780 -1.7769 -0.4624
   24SAPC  H13C 3116   4.702   0.204  11.289  1.1294  2.7479 -1.0260
   24SAPC   C14 3117   4.846   0.009  11.360 -0.1778  0.4629 -1.0723
   24SAPC  H14A 3118   4.764  -0.054  11.327 -0.3380  0.8903 -1.5014
   24SAPC  H14B 3119   4.918  -0.063  11.395 -3.8101 -2.5101  1.1643
   24SAPC  H14C 3120   4.814   0.067  11.445 -0.1388  0.2657 -0.9232
   24SAPC   C15 3121   4.980   0.200  11.339  0.3731  0.2546 -0.2558
   24SAPC  H15A 3122   4.931   0.246  11.424 -0.4484 -1.0463 -0.0018
   24SAPC  H15B 3123   5.069   0.151  11.376  0.6890 -1.1250 -2.6356
   24SAPC  H15C 3124   5.024   0.277  11.277 -0.7329  1.8441  0.8518
   24SAPC   C11 3125   5.009   0.135  11.027 -0.4244 -0.5410 -0.1945
   24SAPC  H11A 3126   4.914   0.175  10.987 -0.7833 -1.9519 -0.7926
   24SAPC  H11B 3127   5.060   0.067  10.956 -2.8784 -2.5424 -0.1589
   24SAPC     P 3128   5.127   0.370  10.994 -0.2115  0.1056  0.1847
   24SAPC   O13 3129   4.993   0.430  10.996  0.6407 -0.2856  0.1028
   24SAPC   O14 3130   5.245   0.434  11.057 -0.3945  0.3419 -0.2678
   24SAPC   O12 3131   5.102   0.239  11.069 -0.2227  0.2967  0.1958
   24SAPC   O11 3132   5.166   0.314  10.850  0.2411 -0.3551 -0.2391
   24SAPC    C1 3133   5.276   0.220  10.844 -0.5554 -0.0465  1.0212
   24SAPC    HA 3134   5.316   0.187  10.942 -1.2227  0.5979  1.5182
   24SAPC    HB 3135   5.230   0.129  10.801 -3.3219  1.8287 -0.3215
   24SAPC    C2 3136   5.383   0.271  10.750 -0.3443  1.2574  0.0774
   24SAPC    HS 3137   5.429   0.359  10.800 -0.4947  2.6220 -2.0609
   24SAPC   O21 3138   5.326   0.311  10.625 -0.6277  0.6923  0.2226
   24SAPC   C21 3139   5.271   0.436  10.616 -0.0316 -0.0954 -0.3452
   24SAPC   O22 3140   5.290   0.524  10.695  0.2833  0.3038 -0.2988
   24SAPC   C22 3141   5.188   0.445  10.490  0.5955  0.2076  0.2860
   24SAPC   H2R 3142   5.142   0.345  10.476 -0.0063  0.6865 -1.3520
   24SAPC   H2S 3143   5.107   0.520  10.499  3.2568  3.6787 -1.9500
   24SAPC    C3 3144   5.498   0.161  10.734  0.6739  0.2238  0.5949
   24SAPC    HX 3145   5.445   0.079  10.682  0.4721  0.5314  0.3072
   24SAPC    HY 3146   5.546   0.129  10.829  0.0375 -0.0552  0.8259
   24SAPC   O31 3147   5.597   0.218  10.648  0.0308  0.2735  0.2919
   24SAPC   C31 3148   5.678   0.308  10.706 -0.2898  0.3649  0.4485
   24SAPC   O32 3149   5.673   0.343  10.823 -0.1786 -0.3455 -0.7829
   24SAPC   C32 3150   5.789   0.358  10.612  0.2137 -0.0820  0.1255
   24SAPC   H2X 3151   5.791   0.287  10.526 -0.3981  1.2015 -0.9900
   24SAPC   H2Y 3152   5.878   0.334  10.675  0.5476 -3.9049 -1.5257
   24SAPC   C23 3153   5.255   0.473  10.350  0.2045 -0.7015  0.1182
   24SAPC   H3R 3154   5.319   0.383  10.333 -1.1212 -1.4072 -1.3877
   24SAPC   H3S 3155   5.316   0.565  10.361  2.2077 -1.9976  0.3883
   24SAPC   C24 3156   5.171   0.518  10.227 -0.0940  0.2743 -0.0389
   24SAPC   H4R 3157   5.237   0.576  10.160  0.9974  1.0037  1.5939
   24SAPC   H4S 3158   5.075   0.571  10.244 -0.9656 -0.3793 -2.5513
   24SAPC   C25 3159   5.147   0.392  10.155  0.3220 -0.2952 -0.4907
   24SAPC   H5R 3160   5.139   0.297  10.209 -1.5249 -2.0658 -3.5451
   24SAPC   C26 3161   5.127   0.379  10.022  0.1692 -0.2258  0.3280
   24SAPC   H6R 3162   5.101   0.279   9.985  0.4193 -0.7002  1.3908
   24SAPC   C27 3163   5.123   0.498   9.926 -0.0726  0.5962  0.1202
   24SAPC   H7R 3164   5.227   0.516   9.889  0.8948 -2.6380  0.9182
   24SAPC   H7S 3165   5.084   0.593   9.966  1.0839  0.7439  0.9647
   24SAPC   C28 3166   5.044   0.461   9.807 -0.4471 -0.0517  1.3632
   24SAPC   H8R 3167   4.936   0.469   9.828 -0.6924 -0.8409  0.4545
   24SAPC   C29 3168   5.073   0.411   9.691  0.7858  0.6840  0.8678
   24SAPC   H9R 3169   4.993   0.391   9.618 -0.7708 -0.3783  2.7663
   24SAPC  C210 3170   5.207   0.376   9.634 -0.3170  0.5127  0.7799
   24SAPC  H10R 3171   5.293   0.389   9.703 -1.1745  0.7910  1.8281
   24SAPC  H10S 3172   5.224   0.451   9.554  0.6180  0.0461  0.5328
   24SAPC  C211 3173   5.220   0.237   9.570  0.4510  0.3184 -0.0273
   24SAPC  H11R 3174   5.253   0.165   9.646 -1.3809  1.8429  2.3670
   24SAPC  C212 3175   5.216   0.211   9.435  0.0001 -0.2852 -0.8227
   24SAPC  H12R 3176   5.220   0.105   9.405 -1.8391 -0.6101 -0.0591
   24SAPC  C213 3177   5.194   0.316   9.323  0.3808  0.2571 -0.0056
   24SAPC  H13R 3178   5.253   0.410   9.327  2.9700 -1.2274 -0.8539
   24SAPC  H13S 3179   5.089   0.349   9.331  0.7327  0.9039  2.7517
   24SAPC  C214 3180   5.240   0.255   9.192 -0.0479 -0.4810  0.3510
   24SAPC  H14R 3181   5.342   0.216   9.198 -0.7235 -2.2520  1.1476
   24SAPC  C215 3182   5.190   0.258   9.071  0.3583 -0.5002 -1.0514
   24SAPC  H15R 3183   5.249   0.215   8.988 -0.4945 -3.2100 -0.3482
   24SAPC  C216 3184   5.061   0.323   9.029  0.0728 -0.7151 -0.4026
   24SAPC  H16R 3185   5.004   0.370   9.112  1.1635 -3.1979  1.9015
   24SAPC  H16S 3186   4.992   0.259   8.971 -0.6416 -0.7309  0.4590
   24SAPC  C217 3187   5.103   0.437   8.932  0.2995 -0.5612 -0.4036
   24SAPC  H17R 3188   5.012   0.479   8.884  0.3285 -1.3555 -1.1874
   24SAPC  H17S 3189   5.158   0.390   8.848  0.3687  0.8126 -1.1639
   24SAPC  C218 3190   5.174   0.560   8.997  0.9957  1.3287  0.3514
   24SAPC  H18R 3191   5.267   0.513   9.038 -0.9908 -0.9480  2.6161
   24SAPC  H18S 3192   5.116   0.585   9.088 -0.2546 -0.6303  0.1436
   24SAPC  C219 3193   5.191   0.666   8.891 -0.0777 -0.0128 -0.6614
   24SAPC  H19R 3194   5.095   0.706   8.852 -0.0222 -0.1557 -0.9513
   24SAPC  H19S 3195   5.242   0.627   8.800 -1.6963 -0.3276 -1.4787
   24SAPC  C220 3196   5.273   0.792   8.940 -0.5381  0.0621  0.6485
   24SAPC  H20R 3197   5.383   0.776   8.946 -0.4815 -0.2448 -0.8746
   24SAPC  H20S 3198   5.223   0.835   9.029  0.0241 -0.4280  1.2145
   24SAPC  H20T 3199   5.275   0.886   8.882 -0.5802 -0.0320  0.4954
   24SAPC   C33 3200   5.788   0.505  10.568 -0.4166  0.2576  0.2582
   24SAPC   H3X 3201   5.891   0.523  10.531  0.1516 -2.4658  0.2661
   24SAPC   H3Y 3202   5.767   0.568  10.657  0.5454  1.9182 -0.6368
   24SAPC   C34 3203   5.700   0.541  10.454  0.4137 -0.5045  0.5029
   24SAPC   H4X 3204   5.684   0.651  10.452  1.1153 -0.3476  1.9001
   24SAPC   H4Y 3205   5.601   0.499  10.482 -0.3890 -0.5099 -2.1582
   24SAPC   C35 3206   5.727   0.499  10.305 -0.5822  0.4795  1.0153
   24SAPC   H5X 3207   5.630   0.482  10.254 -1.0845  0.7925  1.8480
   24SAPC   H5Y 3208   5.777   0.400  10.303  0.9128  1.2143  0.0991
   24SAPC   C36 3209   5.822   0.598  10.235 -1.1343  0.0570  0.3290
   24SAPC   H6X 3210   5.921   0.586  10.283 -2.0541 -1.1281  2.0033
   24SAPC   H6Y 3211   5.794   0.702  10.262 -1.9776  0.3185 -1.3724
   24SAPC   C37 3212   5.831   0.599  10.083  0.0045 -0.1182  0.3134
   24SAPC   H7X 3213   5.735   0.567  10.038 -0.2529  1.4617 -0.3266
   24SAPC   H7Y 3214   5.909   0.534  10.038 -0.6152  0.0886 -1.1271
   24SAPC   C38 3215   5.865   0.743  10.031  0.5512  0.2105  0.1258
   24SAPC   H8X 3216   5.959   0.768  10.085  0.5527 -0.7162  0.5776
   24SAPC   H8Y 3217   5.788   0.820  10.054 -1.8510 -1.9236 -0.2124
   24SAPC   C39 3218   5.882   0.762   9.875  0.2877  0.1341 -0.3845
   24SAPC   H9X 3219   5.797   0.718   9.818 -1.2909  2.2003  0.2266
   24SAPC   H9Y 3220   5.977   0.718   9.839 -0.2541 -1.5507  0.1162
   24SAPC  C310 3221   5.890   0.908   9.842  0.4428 -0.2214 -0.3427
   24SAPC  H10X 3222   5.990   0.951   9.864  1.2237 -1.0473 -2.0846
   24SAPC  H10Y 3223   5.818   0.969   9.900  0.6576  0.1895 -0.5080
   24SAPC  C311 3224   5.859   0.927   9.691 -0.1498 -0.3064  0.5004
   24SAPC  H11X 3225   5.880   1.034   9.671 -2.8611  0.2292  0.1381
   24SAPC  H11Y 3226   5.751   0.907   9.671  0.2943 -1.3299 -1.0118
   24SAPC  C312 3227   5.944   0.850   9.592  0.7096 -0.2992  0.0641
   24SAPC  H12X 3228   5.934   0.740   9.602  1.3359 -0.4124 -0.5593
   24SAPC  H12Y 3229   6.048   0.883   9.612  0.8950 -1.6182  1.4629
   24SAPC  C313 3230   5.910   0.889   9.444 -0.5481  0.9440  0.1175
   24SAPC  H13X 3231   5.870   0.992   9.429 -1.6613  0.6489  0.9629
   24SAPC  H13Y 3232   5.826   0.818   9.429 -0.4866  0.5719  1.4166
   24SAPC  C314 3233   6.024   0.863   9.339 -0.1149 -0.6177 -0.0823
   24SAPC  H14X 3234   6.066   0.764   9.365  0.4817 -0.7741 -1.5835
   24SAPC  H14Y 3235   6.112   0.930   9.350  0.3445 -1.2638  0.2285
   24SAPC  C315 3236   5.967   0.854   9.195 -0.0547  0.3357  0.5570
   24SAPC  H15X 3237   5.943   0.956   9.157 -2.6871 -0.6239 -0.6448
   24SAPC  H15Y 3238   5.869   0.802   9.206  0.1669 -0.1179  0.3741
   24SAPC  C316 3239   6.081   0.797   9.106  0.2888  0.1387 -0.0272
   24SAPC  H16X 3240   6.084   0.687   9.096  1.8561  0.3249 -2.5400
   24SAPC  H16Y 3241   6.181   0.821   9.149  0.1630  1.1931 -0.2987
   24SAPC  C317 3242   6.068   0.841   8.962  0.4142 -1.0213  0.5182
   24SAPC  H17X 3243   6.048   0.949   8.950 -2.0154 -1.0690  3.0149
   24SAPC  H17Y 3244   5.994   0.790   8.896  1.5537  1.9580 -3.4801
   24SAPC  C318 3245   6.199   0.808   8.892  0.2835 -0.9360  0.2681
   24SAPC  H18X 3246   6.224   0.700   8.900 -2.3973 -1.6374  0.2384
   24SAPC  H18Y 3247   6.272   0.876   8.939 -2.3207  2.0210  0.3396
   24SAPC  H18Z 3248   6.192   0.829   8.783 -1.2113  1.0113  0.6870
   25SAPC     N 3249   2.448   4.791   5.977  0.1142  0.1637 -0.0303
   25SAPC   C12 3250   2.410   4.737   6.115  0.2675 -0.2776 -0.3409
   25SAPC  H12A 3251   2.441   4.634   6.126  2.1395  0.1228 -1.4069
   25SAPC  H12B 3252   2.302   4.742   6.119  0.1053 -1.8877 -1.6164
   25SAPC   C13 3253   2.428   4.934   5.955 -0.3608 -0.1166 -0.2079
   25SAPC  H13A 3254   2.487   4.964   5.869  0.4287  0.5719  0.5455
   25SAPC  H13B 3255   2.329   4.967   5.931 -0.6698 -0.5963  0.3835
   25SAPC  H13C 3256   2.476   4.989   6.034  2.2276 -0.0851 -1.6767
   25SAPC   C14 3257   2.597   4.767   5.959  0.3171  0.6054 -1.4745
   25SAPC  H14A 3258   2.622   4.808   5.862  0.0587  0.8366 -1.4463
   25SAPC  H14B 3259   2.634   4.820   6.045  0.4079 -0.0047 -1.1327
   25SAPC  H14C 3260   2.618   4.663   5.978 -1.6820  0.3584 -0.3331
   25SAPC   C15 3261   2.365   4.709   5.881  0.3970  0.4573  0.3327
   25SAPC  H15A 3262   2.369   4.603   5.899 -0.1675 -0.1111 -2.4066
   25SAPC  H15B 3263   2.260   4.729   5.896  0.2390  0.1614 -0.3281
   25SAPC  H15C 3264   2.388   4.738   5.780 -0.0446 -2.0907 -0.5711
   25SAPC   C11 3265   2.468   4.811   6.237 -0.0306  0.1148 -0.1087
   25SAPC  H11A 3266   2.417   4.773   6.328  0.7690 -0.0947  0.2621
   25SAPC  H11B 3267   2.436   4.917   6.222 -1.6785 -0.5806 -1.9366
   25SAPC     P 3268   2.681   4.675   6.301 -0.3169  0.0404 -0.5647
   25SAPC   O13 3269   2.647   4.547   6.237  0.8609  0.0082  0.0624
   25SAPC   O14 3270   2.830   4.704   6.303  0.2769  0.0680  0.7684
   25SAPC   O12 3271   2.608   4.801   6.247  0.3493  0.2637  0.2964
   25SAPC   O11 3272   2.634   4.668   6.453 -0.1941 -0.2817  0.5460
   25SAPC    C1 3273   2.626   4.785   6.532 -1.0248  0.2734 -0.1356
   25SAPC    HA 3274   2.727   4.826   6.553 -0.4071 -1.1567 -0.2112
   25SAPC    HB 3275   2.557   4.862   6.490 -3.0969  0.6326  3.5482
   25SAPC    C2 3276   2.563   4.751   6.670 -0.2261 -0.5516  0.1935
   25SAPC    HS 3277   2.569   4.847   6.725  0.0407 -0.3716 -0.1416
   25SAPC   O21 3278   2.642   4.648   6.730  0.0482  0.6332  0.1045
   25SAPC   C21 3279   2.759   4.690   6.779  0.6024 -0.4778 -0.3693
   25SAPC   O22 3280   2.784   4.813   6.791  0.1698 -0.2101  0.2357
   25SAPC   C22 3281   2.854   4.580   6.818 -0.0700 -0.2603  0.3358
   25SAPC   H2R 3282   2.818   4.553   6.920  0.6489  1.4341  1.0721
   25SAPC   H2S 3283   2.854   4.500   6.741  0.6819 -0.5353  0.6113
   25SAPC    C3 3284   2.416   4.705   6.661  0.3330 -0.1195 -0.2416
   25SAPC    HX 3285   2.419   4.620   6.589  0.2075  1.4545 -2.2095
   25SAPC    HY 3286   2.362   4.795   6.624 -0.4156 -0.8586 -0.9915
   25SAPC   O31 3287   2.367   4.664   6.794 -0.2051 -0.2649  0.0409
   25SAPC   C31 3288   2.363   4.539   6.832  0.2853 -0.1319  0.5692
   25SAPC   O32 3289   2.412   4.437   6.782  0.4888 -0.6284 -0.5440
   25SAPC   C32 3290   2.275   4.540   6.964  0.3319  0.4225 -0.8755
   25SAPC   H2X 3291   2.263   4.431   6.974  2.3408  0.1915 -0.5375
   25SAPC   H2Y 3292   2.173   4.580   6.946  0.5201  1.5593  0.4205
   25SAPC   C23 3293   2.998   4.635   6.844 -0.1526  0.5393  0.0184
   25SAPC   H3R 3294   3.016   4.705   6.929  0.7392 -1.8428  1.8925
   25SAPC   H3S 3295   3.036   4.698   6.761  0.9035  2.2042  1.6844
   25SAPC   C24 3296   3.103   4.524   6.849  0.4011 -0.7309 -0.2801
   25SAPC   H4R 3297   3.099   4.479   6.951  1.1501 -0.6246 -0.1945
   25SAPC   H4S 3298   3.196   4.585   6.848 -0.3192  0.5027  1.8295
   25SAPC   C25 3299   3.096   4.415   6.749  0.0502 -0.4044 -0.0884
   25SAPC   H5R 3300   3.066   4.450   6.649 -1.8490  1.6025  1.0969
   25SAPC   C26 3301   3.108   4.283   6.765  0.0344 -0.6724 -0.4219
   25SAPC   H6R 3302   3.099   4.211   6.682 -0.1505 -2.2498  0.9046
   25SAPC   C27 3303   3.132   4.210   6.894 -0.0867  0.3882  0.1746
   25SAPC   H7R 3304   3.047   4.205   6.965  0.3269  2.2307  0.8572
   25SAPC   H7S 3305   3.221   4.259   6.938  1.6411 -1.2862 -1.2778
   25SAPC   C28 3306   3.194   4.073   6.856 -0.0140 -0.0629 -0.3368
   25SAPC   H8R 3307   3.137   4.015   6.783 -3.6789  1.3279  1.2077
   25SAPC   C29 3308   3.310   4.022   6.909  0.1302  0.3966  0.4391
   25SAPC   H9R 3309   3.331   3.918   6.881 -1.8064  0.2049 -0.4620
   25SAPC  C210 3310   3.415   4.086   6.996  0.0200  0.2672 -0.5305
   25SAPC  H10R 3311   3.394   4.193   7.014 -1.5567  0.0403 -0.9041
   25SAPC  H10S 3312   3.510   4.097   6.939  0.8449 -0.4374  0.6501
   25SAPC  C211 3313   3.434   4.000   7.118 -0.5046  0.0939  0.2649
   25SAPC  H11R 3314   3.435   3.892   7.096  1.9633  0.0358  0.3373
   25SAPC  C212 3315   3.449   4.043   7.244 -0.1604 -0.3295 -0.1185
   25SAPC  H12R 3316   3.479   3.972   7.323  0.1685  0.0595  0.1116
   25SAPC  C213 3317   3.452   4.189   7.284 -0.7015  0.3333 -0.1459
   25SAPC  H13R 3318   3.347   4.224   7.289 -0.8519  0.1188 -1.4226
   25SAPC  H13S 3319   3.499   4.243   7.199 -2.2182  1.7767 -0.1104
   25SAPC  C214 3320   3.535   4.211   7.405  0.2490 -0.0745 -0.1492
   25SAPC  H14R 3321   3.608   4.132   7.429 -0.4390 -0.2229  1.5923
   25SAPC  C215 3322   3.510   4.293   7.504  0.2512 -0.0003 -0.4455
   25SAPC  H15R 3323   3.580   4.303   7.589  1.3820  0.1559 -1.3612
   25SAPC  C216 3324   3.388   4.383   7.508  0.0116  0.4695  0.2001
   25SAPC  H16R 3325   3.301   4.341   7.453  1.6859 -0.3944 -1.9717
   25SAPC  H16S 3326   3.413   4.475   7.450 -2.7189  0.4857 -1.0867
   25SAPC  C217 3327   3.329   4.418   7.644  0.0121 -0.1411  0.5838
   25SAPC  H17R 3328   3.396   4.486   7.701 -0.0292 -0.2368  0.7471
   25SAPC  H17S 3329   3.315   4.329   7.710  0.1569  0.3606  1.3048
   25SAPC  C218 3330   3.192   4.486   7.632 -0.1264 -0.8476  0.8985
   25SAPC  H18R 3331   3.113   4.423   7.586 -0.2745 -0.1515  0.1705
   25SAPC  H18S 3332   3.205   4.571   7.561 -2.3264  0.2434  1.7185
   25SAPC  C219 3333   3.141   4.547   7.764 -0.1410 -0.7641 -0.9294
   25SAPC  H19R 3334   3.195   4.635   7.806  1.3164 -2.4714  0.9446
   25SAPC  H19S 3335   3.152   4.477   7.849 -1.3468  1.4421  1.1719
   25SAPC  C220 3336   2.990   4.571   7.758 -0.2738 -0.6108  0.1930
   25SAPC  H20R 3337   2.962   4.619   7.854  0.9783  1.9803 -0.6248
   25SAPC  H20S 3338   2.936   4.476   7.741 -0.3595 -0.5184 -0.0570
   25SAPC  H20T 3339   2.954   4.641   7.679 -3.0398 -0.2541  1.6784
   25SAPC   C33 3340   2.329   4.618   7.093 -0.0603  0.4603  0.3830
   25SAPC   H3X 3341   2.334   4.728   7.075 -0.2426  0.7042  1.7131
   25SAPC   H3Y 3342   2.427   4.577   7.126  0.2392 -1.0284 -2.1285
   25SAPC   C34 3343   2.236   4.587   7.216  0.1373  0.0879 -0.0510
   25SAPC   H4X 3344   2.223   4.477   7.216 -0.3800  0.1496 -0.1628
   25SAPC   H4Y 3345   2.135   4.632   7.207  0.3320  0.3163 -1.1448
   25SAPC   C35 3346   2.296   4.623   7.352  0.0943  0.1384  0.3929
   25SAPC   H5X 3347   2.315   4.731   7.370  0.7290 -0.3625  3.1462
   25SAPC   H5Y 3348   2.397   4.576   7.357  0.0655 -0.2385 -1.5901
   25SAPC   C36 3349   2.212   4.568   7.464  0.0685  0.6054 -0.0974
   25SAPC   H6X 3350   2.203   4.458   7.465 -2.5556  0.7393 -0.4604
   25SAPC   H6Y 3351   2.110   4.611   7.449  0.0487 -0.2112 -2.7491
   25SAPC   C37 3352   2.270   4.618   7.600  0.0098 -0.8685  0.0175
   25SAPC   H7X 3353   2.303   4.724   7.586  1.0707 -1.2493 -0.5021
   25SAPC   H7Y 3354   2.364   4.561   7.617  0.4240  0.3601  2.2591
   25SAPC   C38 3355   2.171   4.614   7.714 -0.2647 -0.4222  0.4150
   25SAPC   H8X 3356   2.135   4.512   7.740 -3.6030  0.5511  0.1632
   25SAPC   H8Y 3357   2.078   4.670   7.688  1.0229  1.6191 -0.0462
   25SAPC   C39 3358   2.221   4.676   7.843 -0.2553  0.5082  0.0187
   25SAPC   H9X 3359   2.269   4.776   7.836  3.5287 -1.2336 -1.4909
   25SAPC   H9Y 3360   2.312   4.614   7.860 -0.0072  0.7181 -0.5379
   25SAPC  C310 3361   2.131   4.662   7.963  0.3072 -0.3532 -0.4885
   25SAPC  H10X 3362   2.098   4.557   7.973 -0.1558 -0.0918  0.9484
   25SAPC  H10Y 3363   2.044   4.727   7.939  0.5898 -0.7711 -2.8884
   25SAPC  C311 3364   2.198   4.709   8.097 -0.3205 -0.1291 -0.0020
   25SAPC  H11X 3365   2.110   4.703   8.164 -0.2150  1.6949  0.3350
   25SAPC  H11Y 3366   2.222   4.817   8.098 -0.2660 -0.1419  1.5283
   25SAPC  C312 3367   2.324   4.628   8.136  0.2236 -0.2004  0.4142
   25SAPC  H12X 3368   2.402   4.674   8.072 -3.4592  1.7980 -3.0429
   25SAPC  H12Y 3369   2.316   4.523   8.103  1.8359  0.4270 -2.2790
   25SAPC  C313 3370   2.367   4.646   8.279 -0.3291 -0.2543 -0.2823
   25SAPC  H13X 3371   2.300   4.581   8.338  1.1712 -0.3301  1.4192
   25SAPC  H13Y 3372   2.363   4.753   8.308 -0.5769 -0.3734  0.1188
   25SAPC  C314 3373   2.512   4.592   8.298 -0.1078  1.1694 -0.0411
   25SAPC  H14X 3374   2.548   4.620   8.399 -0.0556  1.2984 -0.0959
   25SAPC  H14Y 3375   2.578   4.636   8.221 -1.9616  1.7724 -1.3416
   25SAPC  C315 3376   2.516   4.443   8.285  0.1203  0.2653  0.5487
   25SAPC  H15X 3377   2.466   4.426   8.187  1.2692  2.8300 -0.5837
   25SAPC  H15Y 3378   2.460   4.402   8.371  0.0287  1.2913  0.9985
   25SAPC  C316 3379   2.659   4.384   8.296  0.3568 -0.5473  0.1189
   25SAPC  H16X 3380   2.719   4.422   8.211  0.2135 -0.7777 -0.0853
   25SAPC  H16Y 3381   2.648   4.275   8.275  1.5508 -1.2326  2.6730
   25SAPC  C317 3382   2.742   4.415   8.418  0.3370 -0.2492  0.1177
   25SAPC  H17X 3383   2.707   4.358   8.508  1.6245  0.7240  1.2771
   25SAPC  H17Y 3384   2.730   4.523   8.441  0.0645 -0.6239  1.8712
   25SAPC  C318 3385   2.890   4.394   8.404  0.4600  0.0060  0.6512
   25SAPC  H18X 3386   2.929   4.442   8.312 -2.8249  0.7891 -0.4766
   25SAPC  H18Y 3387   2.909   4.287   8.384 -0.1118  0.3271 -1.9851
   25SAPC  H18Z 3388   2.939   4.415   8.501 -0.3866  1.1643  0.8560
   26SAPC     N 3389   1.520   0.507   6.116 -0.2697 -0.6523 -0.0785
   26SAPC   C12 3390   1.489   0.540   6.261  0.6296 -0.0295  0.9884
   26SAPC  H12A 3391   1.553   0.478   6.322  0.8879 -2.8258 -1.8403
   26SAPC  H12B 3392   1.386   0.521   6.288  0.5240  1.5455  1.8280
   26SAPC   C13 3393   1.425   0.583   6.028  0.0880 -0.6530 -0.3149
   26SAPC  H13A 3394   1.323   0.555   6.047  0.2177  0.5959  3.0496
   26SAPC  H13B 3395   1.427   0.689   6.052 -1.6799 -0.5845 -0.3487
   26SAPC  H13C 3396   1.449   0.562   5.925 -1.6024 -0.3771 -0.7869
   26SAPC   C14 3397   1.656   0.566   6.085  0.0909  0.2927  0.1807
   26SAPC  H14A 3398   1.690   0.552   5.984  1.3839  1.0879  0.4917
   26SAPC  H14B 3399   1.654   0.672   6.105 -0.4787 -0.0062  1.9286
   26SAPC  H14C 3400   1.735   0.509   6.131  2.1029  1.4866 -1.6282
   26SAPC   C15 3401   1.508   0.362   6.089 -0.4949 -0.0685 -0.5812
   26SAPC  H15A 3402   1.554   0.297   6.162  0.0038  1.0210  0.0979
   26SAPC  H15B 3403   1.408   0.323   6.095 -0.4854  0.0924  0.8827
   26SAPC  H15C 3404   1.562   0.335   5.998  0.4425  3.2602 -1.1417
   26SAPC   C11 3405   1.504   0.692   6.299  0.2199  0.0433 -0.0511
   26SAPC  H11A 3406   1.609   0.726   6.287 -0.3886  1.9845 -0.3188
   26SAPC  H11B 3407   1.481   0.705   6.407  0.5371 -1.3867  0.2023
   26SAPC     P 3408   1.265   0.801   6.256 -0.4087  0.2732  0.0429
   26SAPC   O13 3409   1.218   0.885   6.148  0.1261 -0.1246  0.1636
   26SAPC   O14 3410   1.197   0.669   6.277 -0.4968  0.0928  0.4836
   26SAPC   O12 3411   1.424   0.780   6.222 -0.4252  0.1365  0.3375
   26SAPC   O11 3412   1.281   0.874   6.392 -0.0874 -0.5358 -0.0720
   26SAPC    C1 3413   1.153   0.918   6.442  0.3478 -0.2373 -1.0024
   26SAPC    HA 3414   1.092   0.978   6.372 -2.4655 -2.1886 -0.3933
   26SAPC    HB 3415   1.087   0.839   6.483 -3.0009  1.3392 -2.9915
   26SAPC    C2 3416   1.181   1.028   6.552 -0.0007  0.1886  0.0843
   26SAPC    HS 3417   1.244   1.113   6.521  0.4026  0.5937  1.9179
   26SAPC   O21 3418   1.240   0.959   6.655  0.3642 -0.1746  0.1280
   26SAPC   C21 3419   1.370   0.982   6.669  0.4618 -1.0900 -0.4105
   26SAPC   O22 3420   1.441   1.061   6.613  0.0288 -0.1335 -0.4117
   26SAPC   C22 3421   1.415   0.883   6.771 -0.2855 -1.0676 -0.3893
   26SAPC   H2R 3422   1.330   0.872   6.842  1.3955  1.2135  2.1556
   26SAPC   H2S 3423   1.422   0.795   6.703 -0.4892 -0.3591 -1.3413
   26SAPC    C3 3424   1.048   1.088   6.599  0.7491  0.4973  0.3758
   26SAPC    HX 3425   1.000   1.005   6.655  0.2847 -0.3416 -1.2082
   26SAPC    HY 3426   0.991   1.106   6.505  0.0704 -1.5722  0.3335
   26SAPC   O31 3427   1.073   1.213   6.667  1.2337  0.0372 -0.2822
   26SAPC   C31 3428   1.079   1.219   6.798 -0.5132  0.1623 -0.4080
   26SAPC   O32 3429   1.062   1.131   6.879 -0.1365 -0.2001 -0.7685
   26SAPC   C32 3430   1.128   1.365   6.842 -0.0432  0.5914 -0.1679
   26SAPC   H2X 3431   1.032   1.420   6.851 -0.1489  0.3894 -0.0663
   26SAPC   H2Y 3432   1.189   1.409   6.760  2.3283  0.3431  1.3973
   26SAPC   C23 3433   1.533   0.930   6.849 -0.1979 -0.3111  0.4596
   26SAPC   H3R 3434   1.617   0.947   6.779 -2.2810  2.6053 -1.6132
   26SAPC   H3S 3435   1.559   0.849   6.921  1.2255  0.4527  0.8389
   26SAPC   C24 3436   1.517   1.060   6.925 -0.0708  0.0825  0.3153
   26SAPC   H4R 3437   1.507   1.142   6.852  0.7317 -0.7076 -0.7045
   26SAPC   H4S 3438   1.614   1.069   6.978  0.5684 -0.5454 -0.7068
   26SAPC   C25 3439   1.402   1.057   7.028  0.5800  0.5849 -0.2618
   26SAPC   H5R 3440   1.300   1.074   6.993 -0.0190  0.5302  1.3664
   26SAPC   C26 3441   1.420   1.046   7.159  0.5385  0.5862 -0.4781
   26SAPC   H6R 3442   1.327   1.033   7.215  0.5358  0.5098 -0.5001
   26SAPC   C27 3443   1.557   1.037   7.241  0.6208 -0.3030 -0.3289
   26SAPC   H7R 3444   1.612   0.961   7.182  0.8313 -1.6875  1.5848
   26SAPC   H7S 3445   1.525   0.995   7.339 -1.4791 -0.4274 -1.0096
   26SAPC   C28 3446   1.617   1.179   7.252  0.3764  0.1932  0.1999
   26SAPC   H8R 3447   1.661   1.228   7.164 -0.9101  4.5175  1.7320
   26SAPC   C29 3448   1.626   1.253   7.361  0.6951  0.0348  0.2707
   26SAPC   H9R 3449   1.684   1.346   7.349  0.0929  0.2154 -1.6868
   26SAPC  C210 3450   1.578   1.220   7.500  0.0411  0.0732  0.0714
   26SAPC  H10R 3451   1.553   1.112   7.510  0.3114 -0.1109 -1.0643
   26SAPC  H10S 3452   1.480   1.271   7.510  0.1304  0.2240  0.1798
   26SAPC  C211 3453   1.669   1.269   7.607 -0.2874  0.5942 -0.1022
   26SAPC  H11R 3454   1.777   1.273   7.588 -0.8637  1.3540 -3.9056
   26SAPC  C212 3455   1.640   1.316   7.732  0.7873 -1.1453  0.7662
   26SAPC  H12R 3456   1.719   1.361   7.793 -0.5724  1.8168  0.4852
   26SAPC  C213 3457   1.500   1.319   7.792 -0.8306 -0.0744  0.2006
   26SAPC  H13R 3458   1.495   1.230   7.859 -2.2248 -0.5712 -0.5135
   26SAPC  H13S 3459   1.414   1.305   7.722 -1.0781 -2.1445  0.8474
   26SAPC  C214 3460   1.487   1.456   7.852 -0.0399  0.6775  0.5884
   26SAPC  H14R 3461   1.421   1.524   7.795 -0.4124 -0.3998 -0.3091
   26SAPC  C215 3462   1.539   1.493   7.968  0.3645 -0.5605 -0.8653
   26SAPC  H15R 3463   1.518   1.596   8.000 -1.3087 -0.9548 -0.6046
   26SAPC  C216 3464   1.628   1.426   8.069  0.4306  0.4319  0.4962
   26SAPC  H16R 3465   1.728   1.474   8.061  1.3068 -1.5654 -1.6922
   26SAPC  H16S 3466   1.638   1.316   8.054 -4.1354 -0.4968  2.6267
   26SAPC  C217 3467   1.562   1.442   8.208  0.3273 -0.2484  0.1736
   26SAPC  H17R 3468   1.459   1.400   8.215 -0.8014  2.5658  2.2389
   26SAPC  H17S 3469   1.540   1.548   8.229  0.1434 -0.5318  1.4860
   26SAPC  C218 3470   1.633   1.378   8.328 -0.4773  0.1742 -0.0465
   26SAPC  H18R 3471   1.735   1.424   8.329 -0.8763  1.0805 -0.1019
   26SAPC  H18S 3472   1.645   1.268   8.318  0.4311 -0.2229  3.7698
   26SAPC  C219 3473   1.573   1.415   8.463  0.7892  0.3299  0.4347
   26SAPC  H19R 3474   1.465   1.391   8.462  0.5971  1.0808  1.7598
   26SAPC  H19S 3475   1.573   1.525   8.482 -1.2427  0.5457 -0.5337
   26SAPC  C220 3476   1.636   1.328   8.577 -0.5004 -0.1536 -0.5271
   26SAPC  H20R 3477   1.747   1.339   8.576 -0.5591  0.4838 -1.9055
   26SAPC  H20S 3478   1.612   1.219   8.573  0.3830 -0.3927  0.2676
   26SAPC  H20T 3479   1.606   1.366   8.677  0.2678 -2.7310  0.7679
   26SAPC   C33 3480   1.207   1.369   6.973  0.0384  0.8929 -0.5219
   26SAPC   H3X 3481   1.222   1.479   6.983 -3.2689  1.5495 -1.4106
   26SAPC   H3Y 3482   1.299   1.307   6.968 -0.4541  0.2072 -1.3471
   26SAPC   C34 3483   1.145   1.331   7.106 -0.3038 -0.0308  0.0653
   26SAPC   H4X 3484   1.211   1.260   7.161 -0.7788 -2.0000 -1.7725
   26SAPC   H4Y 3485   1.049   1.280   7.082  1.4749 -3.8075  0.2554
   26SAPC   C35 3486   1.117   1.437   7.202  0.7117 -0.8182  0.1724
   26SAPC   H5X 3487   1.044   1.508   7.156  2.6153  3.3967  3.0059
   26SAPC   H5Y 3488   1.205   1.504   7.211 -0.1324  0.1353  1.7650
   26SAPC   C36 3489   1.066   1.381   7.332  0.2717  0.0243 -1.1047
   26SAPC   H6X 3490   1.125   1.294   7.369  0.9964  0.9822  0.0706
   26SAPC   H6Y 3491   0.961   1.345   7.321 -0.1125 -0.1813  2.1767
   26SAPC   C37 3492   1.061   1.500   7.441 -0.1750 -0.3377  0.8596
   26SAPC   H7X 3493   0.967   1.475   7.496 -0.1266 -2.0553  0.2376
   26SAPC   H7Y 3494   1.037   1.591   7.382 -0.1049  0.6760  2.3362
   26SAPC   C38 3495   1.185   1.500   7.533 -0.1524 -0.4344 -0.2361
   26SAPC   H8X 3496   1.269   1.505   7.461  0.3555  0.2440  0.3962
   26SAPC   H8Y 3497   1.198   1.409   7.595 -0.2040  0.0271  0.4636
   26SAPC   C39 3498   1.187   1.628   7.627  0.0189  0.1533  0.5172
   26SAPC   H9X 3499   1.199   1.717   7.560  0.1707 -0.5421 -0.3969
   26SAPC   H9Y 3500   1.282   1.624   7.685  1.1969  1.6371 -1.1861
   26SAPC  C310 3501   1.065   1.638   7.724 -0.2539 -0.3894  0.6341
   26SAPC  H10X 3502   0.976   1.579   7.694  1.0126 -1.8466 -0.3976
   26SAPC  H10Y 3503   1.052   1.749   7.730 -0.8905 -0.4704  0.9397
   26SAPC  C311 3504   1.095   1.594   7.865 -0.3200 -0.1362 -0.7391
   26SAPC  H11X 3505   1.026   1.652   7.930 -0.7449 -0.2373 -1.0988
   26SAPC  H11Y 3506   1.195   1.630   7.896 -1.0206  1.4138 -0.1638
   26SAPC  C312 3507   1.085   1.445   7.888  0.0231  0.6609 -0.0932
   26SAPC  H12X 3508   1.174   1.396   7.842 -0.6231  0.8035 -1.5625
   26SAPC  H12Y 3509   1.003   1.391   7.836  0.7906  0.5764 -1.2689
   26SAPC  C313 3510   1.078   1.399   8.032 -0.2481 -0.0028 -0.3996
   26SAPC  H13X 3511   1.156   1.443   8.098  0.6077 -2.9668  0.7499
   26SAPC  H13Y 3512   1.098   1.290   8.035 -0.3777 -0.0138  0.1778
   26SAPC  C314 3513   0.945   1.424   8.105 -0.3741  0.4826  0.9654
   26SAPC  H14X 3514   0.863   1.399   8.034 -0.9929  1.5417  1.2866
   26SAPC  H14Y 3515   0.925   1.533   8.113  3.4638  1.3604  0.3611
   26SAPC  C315 3516   0.924   1.353   8.244 -0.0117 -0.3702 -0.0449
   26SAPC  H15X 3517   0.941   1.243   8.241  0.9795 -0.3107  1.9814
   26SAPC  H15Y 3518   0.817   1.368   8.271 -0.6422 -2.8737 -0.8833
   26SAPC  C316 3519   1.019   1.404   8.345  0.0240 -0.3136 -0.8029
   26SAPC  H16X 3520   1.024   1.514   8.336  0.3309  0.1036  3.0341
   26SAPC  H16Y 3521   1.117   1.363   8.312 -0.4728 -2.0911 -0.1798
   26SAPC  C317 3522   0.992   1.357   8.493  0.5493 -0.2067 -0.3694
   26SAPC  H17X 3523   0.902   1.409   8.531  0.6925 -0.6525  0.6065
   26SAPC  H17Y 3524   1.084   1.369   8.554  0.9254 -2.7215 -0.3107
   26SAPC  C318 3525   0.958   1.207   8.509  0.1563  0.2431 -0.2682
   26SAPC  H18X 3526   0.866   1.177   8.454  0.7556 -0.2320 -1.0271
   26SAPC  H18Y 3527   0.940   1.177   8.615  2.8726 -0.3563  0.0938
   26SAPC  H18Z 3528   1.044   1.149   8.470  1.3512  0.9130  1.2675
   27SAPC     N 3529   6.145   6.775   6.714  0.1234  0.4193 -0.0412
   27SAPC   C12 3530   6.176   6.834   6.845  0.1295  0.1396  0.1097
   27SAPC  H12A 3531   6.280   6.817   6.866  0.1908  1.2636  0.7706
   27SAPC  H12B 3532   6.119   6.782   6.921 -0.4319  1.5152  0.6597
   27SAPC   C13 3533   5.997   6.775   6.697  0.0960 -0.0654 -0.2616
   27SAPC  H13A 3534   5.971   6.703   6.620  1.3640 -0.8550  0.0257
   27SAPC  H13B 3535   5.945   6.732   6.781 -0.7367 -1.1390 -1.2834
   27SAPC  H13C 3536   5.952   6.872   6.680 -0.3206  0.2553  2.2693
   27SAPC   C14 3537   6.201   6.862   6.608  0.5317 -0.2274  0.6390
   27SAPC  H14A 3538   6.168   6.831   6.510  0.6980 -2.5561  1.2680
   27SAPC  H14B 3539   6.164   6.963   6.619  0.0989 -0.2472 -0.4987
   27SAPC  H14C 3540   6.307   6.877   6.621  0.2844  0.8382  1.5678
   27SAPC   C15 3541   6.200   6.630   6.705 -0.1494 -0.3661  0.3490
   27SAPC  H15A 3542   6.140   6.570   6.771 -1.1355 -0.8006 -0.9083
   27SAPC  H15B 3543   6.181   6.587   6.608  3.2497 -2.4491  0.4191
   27SAPC  H15C 3544   6.307   6.627   6.720 -0.0097 -2.3064 -0.7544
   27SAPC   C11 3545   6.144   6.986   6.854 -0.2407 -0.2868 -0.3651
   27SAPC  H11A 3546   6.153   7.018   6.960  1.2344  4.3709 -1.6757
   27SAPC  H11B 3547   6.040   7.006   6.820  0.5689  4.0146 -0.8816
   27SAPC     P 3548   6.383   7.094   6.804  0.2247  0.4022  0.0141
   27SAPC   O13 3549   6.460   7.016   6.702 -0.2577 -0.1827 -0.0084
   27SAPC   O14 3550   6.416   7.234   6.823  0.2476 -0.6592  0.1902
   27SAPC   O12 3551   6.228   7.071   6.778  0.0596 -0.3625  0.1842
   27SAPC   O11 3552   6.413   7.013   6.935  0.0969  0.2215 -0.1889
   27SAPC    C1 3553   6.536   6.946   6.963 -0.2272  0.3365 -0.5467
   27SAPC    HA 3554   6.617   6.970   6.890  0.5373 -1.8595 -0.4847
   27SAPC    HB 3555   6.576   6.972   7.063 -0.1800 -0.1007 -0.4519
   27SAPC    C2 3556   6.524   6.790   6.965 -0.3271  0.6255 -0.3094
   27SAPC    HS 3557   6.499   6.761   6.861 -0.9335  1.2391 -0.3422
   27SAPC   O21 3558   6.421   6.750   7.061 -0.5481 -0.1040  0.3745
   27SAPC   C21 3559   6.374   6.622   7.039 -0.3547  0.1640 -0.7379
   27SAPC   O22 3560   6.390   6.555   6.941 -0.0558  0.1418  0.0957
   27SAPC   C22 3561   6.305   6.573   7.172  0.0773  0.5304 -0.4061
   27SAPC   H2R 3562   6.211   6.529   7.133 -0.1028  0.3338  0.2464
   27SAPC   H2S 3563   6.368   6.488   7.207  0.4153  1.0672  0.3182
   27SAPC    C3 3564   6.670   6.737   7.003 -0.1323  1.0822 -0.2210
   27SAPC    HX 3565   6.738   6.786   6.929  1.7671 -2.1112 -0.7534
   27SAPC    HY 3566   6.675   6.629   6.979 -2.1688  0.6474  1.1059
   27SAPC   O31 3567   6.710   6.771   7.134  0.1417 -0.0781 -0.1473
   27SAPC   C31 3568   6.671   6.679   7.225 -0.2291 -0.1860  0.5043
   27SAPC   O32 3569   6.634   6.571   7.191  0.4437  0.2433 -0.4649
   27SAPC   C32 3570   6.712   6.726   7.369 -0.2317 -0.5103 -0.7039
   27SAPC   H2X 3571   6.624   6.711   7.434  0.2731 -1.2147 -0.1728
   27SAPC   H2Y 3572   6.724   6.835   7.348 -0.0261 -0.6284 -1.2257
   27SAPC   C23 3573   6.271   6.686   7.275  0.1578 -0.4698  0.6291
   27SAPC   H3R 3574   6.201   6.752   7.220  0.9592  1.4902  1.8792
   27SAPC   H3S 3575   6.359   6.751   7.292  1.1910 -1.5863 -0.2410
   27SAPC   C24 3576   6.218   6.640   7.417 -0.1981 -0.5408  0.7494
   27SAPC   H4R 3577   6.152   6.550   7.410  1.0188 -1.3015 -3.2456
   27SAPC   H4S 3578   6.162   6.726   7.460  1.7908  1.1557  0.0997
   27SAPC   C25 3579   6.347   6.598   7.486 -0.2562  0.5380 -0.5262
   27SAPC   H5R 3580   6.426   6.540   7.435  1.4288  0.8075  1.6261
   27SAPC   C26 3581   6.367   6.620   7.616  0.5561 -0.6851  0.0054
   27SAPC   H6R 3582   6.468   6.609   7.658  1.1820 -0.8384 -1.4689
   27SAPC   C27 3583   6.269   6.695   7.701 -0.5785  0.1004 -0.2899
   27SAPC   H7R 3584   6.248   6.791   7.650  1.5126  0.7147 -0.1075
   27SAPC   H7S 3585   6.323   6.717   7.796  0.8591 -1.0059 -0.8110
   27SAPC   C28 3586   6.143   6.619   7.739  0.7900  0.3016  0.1871
   27SAPC   H8R 3587   6.102   6.567   7.652  1.1621  0.8186 -0.3022
   27SAPC   C29 3588   6.099   6.601   7.861  0.4793  0.4101 -0.5407
   27SAPC   H9R 3589   6.018   6.527   7.868  2.3663 -1.8339 -0.9815
   27SAPC  C210 3590   6.151   6.658   7.993 -0.0000  0.3002  0.5475
   27SAPC  H10R 3591   6.063   6.706   8.040  0.2232  1.9630 -0.6340
   27SAPC  H10S 3592   6.219   6.744   7.977  0.6020 -0.3803 -0.8102
   27SAPC  C211 3593   6.212   6.542   8.079 -0.0828 -0.0365 -0.0765
   27SAPC  H11R 3594   6.309   6.501   8.048  1.3256  3.2054 -0.3900
   27SAPC  C212 3595   6.155   6.494   8.195 -0.8092  0.3441 -0.7679
   27SAPC  H12R 3596   6.222   6.419   8.240 -0.7407 -0.4545 -2.1428
   27SAPC  C213 3597   6.030   6.536   8.267 -0.3834 -0.7043  0.1839
   27SAPC  H13R 3598   6.003   6.442   8.320 -0.0041 -0.5433  0.6787
   27SAPC  H13S 3599   5.954   6.557   8.189  1.2575  0.8988 -1.0355
   27SAPC  C214 3600   6.047   6.646   8.375 -0.0035  0.9001 -0.1005
   27SAPC  H14R 3601   6.112   6.730   8.348  0.4870  1.3314  2.2573
   27SAPC  C215 3602   5.980   6.649   8.494 -0.6323  0.4511  0.2953
   27SAPC  H15R 3603   5.999   6.734   8.561 -1.2723  0.8388 -0.0018
   27SAPC  C216 3604   5.879   6.552   8.546 -0.1664  0.0751 -0.5268
   27SAPC  H16R 3605   5.900   6.458   8.490 -0.3863 -0.7423  0.7011
   27SAPC  H16S 3606   5.781   6.589   8.509 -0.5583  0.3431  0.7153
   27SAPC  C217 3607   5.886   6.530   8.696  0.4209  0.1659 -0.1257
   27SAPC  H17R 3608   5.861   6.626   8.746  0.0830  0.0652 -0.0986
   27SAPC  H17S 3609   5.983   6.492   8.735 -1.4175 -2.9960  1.7813
   27SAPC  C218 3610   5.782   6.428   8.745  0.2903  0.3407 -0.1714
   27SAPC  H18R 3611   5.792   6.436   8.855 -0.7227  0.7808 -0.0941
   27SAPC  H18S 3612   5.812   6.326   8.713  0.6533  0.4710 -0.2549
   27SAPC  C219 3613   5.633   6.449   8.709 -0.1005  0.3172  0.6853
   27SAPC  H19R 3614   5.618   6.437   8.600 -0.5942  1.4824  0.6114
   27SAPC  H19S 3615   5.596   6.550   8.736 -1.4985  0.0909 -0.2806
   27SAPC  C220 3616   5.529   6.349   8.762 -1.0096  0.4410 -0.0769
   27SAPC  H20R 3617   5.551   6.319   8.866  0.0732  0.9259 -0.1480
   27SAPC  H20S 3618   5.540   6.256   8.702 -2.1221 -0.3946  0.9676
   27SAPC  H20T 3619   5.428   6.392   8.747 -1.2428 -0.5249 -1.4807
   27SAPC   C33 3620   6.838   6.651   7.413 -0.6646  0.0791  0.4985
   27SAPC   H3X 3621   6.927   6.686   7.356 -0.4324  0.8875  1.3247
   27SAPC   H3Y 3622   6.822   6.541   7.410 -0.9268  0.0621  1.7155
   27SAPC   C34 3623   6.876   6.676   7.557  0.4488 -0.5306 -0.1569
   27SAPC   H4X 3624   6.894   6.786   7.565  0.7715 -0.6301  0.5731
   27SAPC   H4Y 3625   6.969   6.618   7.576  0.4153 -0.7455 -0.6218
   27SAPC   C35 3626   6.772   6.622   7.654  0.5513  1.0559 -0.4193
   27SAPC   H5X 3627   6.795   6.514   7.670  1.7476  1.5810  1.8879
   27SAPC   H5Y 3628   6.667   6.642   7.625  0.7081  0.8376 -1.1540
   27SAPC   C36 3629   6.784   6.691   7.794  0.0196  0.3194  0.2698
   27SAPC   H6X 3630   6.770   6.801   7.785 -0.4161  0.1425 -1.6141
   27SAPC   H6Y 3631   6.886   6.677   7.835 -0.1582  0.9899  0.9509
   27SAPC   C37 3632   6.674   6.652   7.892  0.5326 -0.3360  0.4116
   27SAPC   H7X 3633   6.679   6.545   7.923  0.4390 -1.2505 -2.4520
   27SAPC   H7Y 3634   6.573   6.670   7.850  0.3606 -1.4988  0.2852
   27SAPC   C38 3635   6.677   6.739   8.014 -0.4335 -0.7216  0.0902
   27SAPC   H8X 3636   6.661   6.845   7.984 -0.3676 -1.1206 -1.4268
   27SAPC   H8Y 3637   6.778   6.741   8.060 -0.0596 -0.8654 -0.6958
   27SAPC   C39 3638   6.564   6.710   8.112  0.3301  0.0577  0.3176
   27SAPC   H9X 3639   6.574   6.606   8.149 -1.4246 -0.0065  0.6760
   27SAPC   H9Y 3640   6.469   6.739   8.062  1.0421  1.3846 -0.3335
   27SAPC  C310 3641   6.574   6.798   8.242 -0.6442  0.5211  0.0973
   27SAPC  H10X 3642   6.581   6.899   8.196 -0.0830  1.4253  2.0856
   27SAPC  H10Y 3643   6.662   6.793   8.309 -1.9617  1.5378  1.9858
   27SAPC  C311 3644   6.448   6.783   8.321 -0.7667 -0.3378 -0.5462
   27SAPC  H11X 3645   6.428   6.676   8.340  2.0450 -1.1176 -1.4464
   27SAPC  H11Y 3646   6.375   6.833   8.254 -1.1179 -1.5869 -1.1284
   27SAPC  C312 3647   6.450   6.867   8.452 -0.4864 -0.4866 -0.5313
   27SAPC  H12X 3648   6.460   6.975   8.428 -2.6973 -0.4201 -1.4666
   27SAPC  H12Y 3649   6.539   6.844   8.515 -1.2025 -0.2303  0.6115
   27SAPC  C313 3650   6.318   6.860   8.525  0.2444  0.5484 -0.4680
   27SAPC  H13X 3651   6.305   6.761   8.572  0.3079 -1.1990 -3.8521
   27SAPC  H13Y 3652   6.235   6.872   8.452 -0.4701  0.2150  0.2765
   27SAPC  C314 3653   6.296   6.965   8.634  0.6075  0.8002 -0.3878
   27SAPC  H14X 3654   6.289   7.057   8.572  0.1468 -0.4496 -2.2860
   27SAPC  H14Y 3655   6.387   6.975   8.697  0.5658  1.3543 -0.4076
   27SAPC  C315 3656   6.168   6.941   8.711  0.4570 -0.1820  0.4639
   27SAPC  H15X 3657   6.187   6.859   8.784  0.5104 -1.0821 -0.5282
   27SAPC  H15Y 3658   6.097   6.898   8.636  0.3484  0.4735  0.1817
   27SAPC  C316 3659   6.090   7.055   8.776  0.3243 -0.0271  0.5626
   27SAPC  H16X 3660   6.078   7.127   8.691 -1.0126  0.3167  1.0187
   27SAPC  H16Y 3661   6.158   7.101   8.850 -2.1108  0.4539  2.6752
   27SAPC  C317 3662   5.957   7.027   8.843  0.3820  0.0223 -0.3666
   27SAPC  H17X 3663   5.910   7.118   8.886  0.9519  0.4768 -0.6854
   27SAPC  H17Y 3664   5.974   6.967   8.935  1.8199 -0.6961 -1.0658
   27SAPC  C318 3665   5.850   6.961   8.761  0.3759  0.0974  0.1075
   27SAPC  H18X 3666   5.833   7.009   8.662 -0.5114 -1.7405 -0.6935
   27SAPC  H18Y 3667   5.749   6.948   8.806  0.0181  0.9815 -0.4125
   27SAPC  H18Z 3668   5.889   6.859   8.740  2.8010  0.8152  0.8837
   28SAPC     N 3669   5.635   4.251   5.974  0.2389  0.0807  0.7059
   28SAPC   C12 3670   5.683   4.193   6.110 -0.3057 -0.6777 -0.3663
   28SAPC  H12A 3671   5.786   4.225   6.115 -0.7393  0.7243  0.2027
   28SAPC  H12B 3672   5.677   4.086   6.108 -0.7837 -0.6559 -0.2188
   28SAPC   C13 3673   5.491   4.210   5.959 -0.4669  0.1687  0.1471
   28SAPC  H13A 3674   5.480   4.104   5.979 -1.2859  0.2949  0.3951
   28SAPC  H13B 3675   5.429   4.241   6.042  0.3027 -0.6895  1.0710
   28SAPC  H13C 3676   5.447   4.226   5.861  1.8320  0.1705 -0.9602
   28SAPC   C14 3677   5.654   4.399   5.963 -0.2901  1.0711 -0.5034
   28SAPC  H14A 3678   5.567   4.449   6.004 -1.4716 -2.2619  1.4408
   28SAPC  H14B 3679   5.740   4.424   6.024  0.1352  1.3007 -1.1886
   28SAPC  H14C 3680   5.674   4.424   5.860 -0.0107 -2.7947 -1.5398
   28SAPC   C15 3681   5.709   4.186   5.861  0.0911  0.4020 -0.5569
   28SAPC  H15A 3682   5.714   4.078   5.866  0.1964  0.4094 -0.4894
   28SAPC  H15B 3683   5.667   4.202   5.763  2.0075  0.5312 -1.4186
   28SAPC  H15C 3684   5.813   4.217   5.862  0.3205 -0.3414 -0.6144
   28SAPC   C11 3685   5.595   4.230   6.242  0.3800 -1.1051 -0.1195
   28SAPC  H11A 3686   5.634   4.161   6.320 -1.0841 -1.1559  0.6206
   28SAPC  H11B 3687   5.488   4.208   6.219  0.3292  0.8505 -2.1441
   28SAPC     P 3688   5.514   4.434   6.384 -0.0295  0.6350 -0.1141
   28SAPC   O13 3689   5.586   4.542   6.461  0.1854 -0.0118  0.3362
   28SAPC   O14 3690   5.385   4.476   6.328  0.7512 -0.3876 -0.1570
   28SAPC   O12 3691   5.607   4.368   6.274 -0.4375  0.2490 -0.2408
   28SAPC   O11 3692   5.477   4.317   6.479 -0.5234  0.3953 -0.8086
   28SAPC    C1 3693   5.542   4.276   6.592  0.0447  0.1113 -0.7589
   28SAPC    HA 3694   5.577   4.171   6.582  2.0240  0.6242  0.2017
   28SAPC    HB 3695   5.642   4.321   6.610  0.4472 -1.0375 -0.0236
   28SAPC    C2 3696   5.463   4.284   6.730 -0.2626  0.3273 -0.1144
   28SAPC    HS 3697   5.362   4.238   6.720 -0.8519  1.4719  0.3365
   28SAPC   O21 3698   5.455   4.421   6.778  0.0592 -0.0251  0.4514
   28SAPC   C21 3699   5.337   4.472   6.727  0.9139  0.5545 -0.7600
   28SAPC   O22 3700   5.254   4.417   6.663  0.4220  0.2629  0.4507
   28SAPC   C22 3701   5.325   4.620   6.772  0.5373  0.3437 -0.0934
   28SAPC   H2R 3702   5.412   4.648   6.834 -0.0025  0.5694  0.5855
   28SAPC   H2S 3703   5.337   4.683   6.682 -2.1772 -0.7830 -1.3761
   28SAPC    C3 3704   5.529   4.201   6.843 -0.3592  0.4491 -0.3748
   28SAPC    HX 3705   5.614   4.264   6.877 -1.3525  1.2904  0.6085
   28SAPC    HY 3706   5.550   4.098   6.805  2.2781  0.9210 -0.4084
   28SAPC   O31 3707   5.440   4.187   6.952  0.4272  0.3309  0.2100
   28SAPC   C31 3708   5.460   4.270   7.056  0.1076 -0.2168  0.7100
   28SAPC   O32 3709   5.545   4.356   7.074 -0.0757  0.1032  0.5844
   28SAPC   C32 3710   5.374   4.211   7.178 -0.1543 -0.4444 -0.2147
   28SAPC   H2X 3711   5.371   4.101   7.161 -1.0812 -0.5738  0.6842
   28SAPC   H2Y 3712   5.267   4.238   7.170 -0.0466  0.2468  0.5224
   28SAPC   C23 3713   5.195   4.660   6.850 -0.3729  0.6710  0.5104
   28SAPC   H3R 3714   5.109   4.646   6.781  0.0750  0.3629  0.0152
   28SAPC   H3S 3715   5.208   4.768   6.872 -1.3522  0.7586  0.7031
   28SAPC   C24 3716   5.182   4.577   6.979  0.1260  0.2923  0.0186
   28SAPC   H4R 3717   5.082   4.588   7.027 -0.2772 -0.3412 -0.6606
   28SAPC   H4S 3718   5.183   4.469   6.950 -0.8817 -0.1725  1.5729
   28SAPC   C25 3719   5.292   4.602   7.081  0.0876  0.3270  0.0590
   28SAPC   H5R 3720   5.392   4.582   7.041  0.7733  2.2013  0.7338
   28SAPC   C26 3721   5.280   4.664   7.193  0.6576 -0.0967  0.3941
   28SAPC   H6R 3722   5.365   4.676   7.262 -0.6396 -1.0373  2.2465
   28SAPC   C27 3723   5.148   4.719   7.245 -0.0176  0.1805  0.0728
   28SAPC   H7R 3724   5.132   4.711   7.355 -2.4988 -0.3899 -0.2608
   28SAPC   H7S 3725   5.066   4.650   7.216  0.1232 -0.2853  0.7521
   28SAPC   C28 3726   5.107   4.860   7.204  0.1347  0.3288  0.3483
   28SAPC   H8R 3727   5.106   4.883   7.096  1.3634 -0.5741  0.1237
   28SAPC   C29 3728   5.107   4.967   7.280  0.7543  0.1738 -0.4031
   28SAPC   H9R 3729   5.087   5.060   7.225 -0.5747 -0.6786 -1.4601
   28SAPC  C210 3730   5.119   4.977   7.432  0.0938  0.0865  0.6194
   28SAPC  H10R 3731   5.155   5.079   7.457 -0.0942  0.3959 -0.3728
   28SAPC  H10S 3732   5.201   4.910   7.468  1.5650  0.9271 -1.0277
   28SAPC  C211 3733   4.980   4.956   7.485  0.6243 -0.4592 -0.9214
   28SAPC  H11R 3734   4.898   4.949   7.413 -1.8028 -0.3522  1.6323
   28SAPC  C212 3735   4.943   4.937   7.618  0.2490 -0.2351  0.8706
   28SAPC  H12R 3736   4.836   4.916   7.633  0.5489 -1.7042  1.1487
   28SAPC  C213 3737   5.015   4.940   7.747 -0.2205  0.2875 -0.9862
   28SAPC  H13R 3738   5.118   4.980   7.732 -0.1397  2.5308  3.8359
   28SAPC  H13S 3739   5.042   4.837   7.780 -0.0852  0.2222 -1.2941
   28SAPC  C214 3740   4.938   5.011   7.855 -0.8577 -0.1602  0.0086
   28SAPC  H14R 3741   4.849   5.068   7.824 -0.7426 -0.3850 -0.7321
   28SAPC  C215 3742   4.960   4.993   7.989 -0.3069 -0.3065  0.2274
   28SAPC  H15R 3743   4.905   5.052   8.064 -0.9293 -0.7704  0.1464
   28SAPC  C216 3744   5.072   4.919   8.056 -0.0948 -0.0205  0.2148
   28SAPC  H16R 3745   5.160   4.901   7.991  0.9103 -0.3357  1.5933
   28SAPC  H16S 3746   5.048   4.814   8.085  1.2110 -0.8152 -1.4087
   28SAPC  C217 3747   5.124   4.988   8.176 -0.4582 -0.2949 -0.1830
   28SAPC  H17R 3748   5.103   5.096   8.162 -0.0268 -0.0509  0.9570
   28SAPC  H17S 3749   5.234   4.977   8.165 -0.3009  2.3748 -1.9555
   28SAPC  C218 3750   5.082   4.931   8.315  0.7278  0.4244  0.1165
   28SAPC  H18R 3751   4.974   4.955   8.325  0.9961  1.4214  0.7756
   28SAPC  H18S 3752   5.149   4.990   8.382  2.5019  0.1070 -1.3020
   28SAPC  C219 3753   5.110   4.779   8.336  0.2856  0.3196  0.4460
   28SAPC  H19R 3754   5.056   4.709   8.269  1.6028 -0.3873  0.0936
   28SAPC  H19S 3755   5.082   4.746   8.438  0.3060 -1.6382 -0.1592
   28SAPC  C220 3756   5.255   4.740   8.316  0.5491 -0.0190  0.4415
   28SAPC  H20R 3757   5.325   4.809   8.368  0.6397 -0.2266  0.5950
   28SAPC  H20S 3758   5.269   4.736   8.206  0.4158  3.3330  0.1977
   28SAPC  H20T 3759   5.285   4.641   8.356  2.1407 -0.1012 -0.8280
   28SAPC   C33 3760   5.421   4.254   7.320 -0.3199  0.5032  0.3565
   28SAPC   H3X 3761   5.532   4.252   7.316 -0.1300  2.0917  2.8136
   28SAPC   H3Y 3762   5.376   4.185   7.395 -2.0897  1.6333  0.3761
   28SAPC   C34 3763   5.389   4.394   7.373  0.1631  0.0575 -0.3139
   28SAPC   H4X 3764   5.280   4.411   7.361  0.0406  1.5534  2.2161
   28SAPC   H4Y 3765   5.455   4.463   7.316  1.3019 -0.4702  0.3210
   28SAPC   C35 3766   5.418   4.411   7.528 -0.1578  0.0761  0.4988
   28SAPC   H5X 3767   5.528   4.414   7.549  0.3146 -0.5045 -1.6751
   28SAPC   H5Y 3768   5.363   4.333   7.584 -0.6412  0.0208 -0.0537
   28SAPC   C36 3769   5.362   4.549   7.563 -0.8222  0.6225  0.0931
   28SAPC   H6X 3770   5.256   4.551   7.528 -0.7331  0.3610 -0.1982
   28SAPC   H6Y 3771   5.423   4.616   7.499 -1.1085 -0.9955 -1.9930
   28SAPC   C37 3772   5.382   4.580   7.711  0.3725 -0.6083  0.4420
   28SAPC   H7X 3773   5.340   4.682   7.728  1.0922 -0.3943  0.9984
   28SAPC   H7Y 3774   5.491   4.587   7.731  0.1980  2.1242  0.8182
   28SAPC   C38 3775   5.303   4.485   7.792  0.4232 -0.4295 -0.4123
   28SAPC   H8X 3776   5.348   4.388   7.822 -1.1243 -0.9535  0.3135
   28SAPC   H8Y 3777   5.224   4.445   7.724 -0.9748 -1.4106  1.6746
   28SAPC   C39 3778   5.209   4.538   7.902 -0.0727 -0.0013 -0.6197
   28SAPC   H9X 3779   5.135   4.605   7.853 -1.1548 -0.4366  0.3622
   28SAPC   H9Y 3780   5.267   4.589   7.981 -1.6287 -0.8703  1.1860
   28SAPC  C310 3781   5.146   4.421   7.972  0.0983  0.6466 -0.6116
   28SAPC  H10X 3782   5.229   4.358   8.012 -0.8600  1.2118  2.6263
   28SAPC  H10Y 3783   5.091   4.370   7.891  0.7473  1.7371 -1.7832
   28SAPC  C311 3784   5.063   4.468   8.090 -0.0453  0.2865 -0.1473
   28SAPC  H11X 3785   4.978   4.524   8.046  0.0054 -0.1633 -0.8473
   28SAPC  H11Y 3786   5.125   4.537   8.151 -1.5480  1.8750 -0.3597
   28SAPC  C312 3787   5.027   4.347   8.179  0.1978 -0.9227 -0.0034
   28SAPC  H12X 3788   5.115   4.301   8.229  1.5553 -0.2613 -1.6646
   28SAPC  H12Y 3789   4.961   4.278   8.123 -0.1188 -1.3806  0.9175
   28SAPC  C313 3790   4.948   4.405   8.299 -0.1269 -0.3860 -0.1847
   28SAPC  H13X 3791   4.868   4.470   8.256 -0.2140 -0.9673 -0.9305
   28SAPC  H13Y 3792   5.024   4.477   8.337 -2.1017  2.3524 -1.0419
   28SAPC  C314 3793   4.907   4.296   8.398 -0.1055  0.3827  0.3772
   28SAPC  H14X 3794   4.834   4.352   8.460 -1.7074  1.2197 -2.1236
   28SAPC  H14Y 3795   4.993   4.251   8.452 -0.2497 -1.2187 -0.6707
   28SAPC  C315 3796   4.825   4.186   8.329  0.3744  0.5375  0.4163
   28SAPC  H15X 3797   4.885   4.123   8.261  0.4584 -0.2874  1.2300
   28SAPC  H15Y 3798   4.742   4.228   8.268 -0.7897 -2.6326 -0.3556
   28SAPC  C316 3799   4.759   4.092   8.434 -0.5750  0.2088  0.4033
   28SAPC  H16X 3800   4.695   4.155   8.498 -0.1838 -0.1099  1.1157
   28SAPC  H16Y 3801   4.837   4.046   8.499  0.4104  1.3066  0.0285
   28SAPC  C317 3802   4.694   3.966   8.365 -0.3834 -0.0442  0.0761
   28SAPC  H17X 3803   4.774   3.913   8.310 -0.2716 -0.2142  0.3967
   28SAPC  H17Y 3804   4.618   3.997   8.290  0.7995 -0.3913 -1.3047
   28SAPC  C318 3805   4.633   3.868   8.463 -0.8555 -0.0500 -0.2427
   28SAPC  H18X 3806   4.551   3.910   8.524 -1.2607  0.7153 -1.2914
   28SAPC  H18Y 3807   4.713   3.840   8.536 -3.1777 -1.1253  2.0588
   28SAPC  H18Z 3808   4.596   3.774   8.417  0.4334 -0.6561 -0.0967
   29SAPC     N 3809   1.328   1.580   6.305 -0.5544 -0.4511  0.0831
   29SAPC   C12 3810   1.279   1.601   6.446  0.0609  0.7295  0.7116
   29SAPC  H12A 3811   1.264   1.708   6.451  0.6680  1.0361 -2.0946
   29SAPC  H12B 3812   1.353   1.570   6.518  2.4814 -1.5934 -2.4333
   29SAPC   C13 3813   1.356   1.435   6.273  0.1454  0.2913  0.0733
   29SAPC  H13A 3814   1.421   1.387   6.344  0.8512  2.4473  0.9420
   29SAPC  H13B 3815   1.260   1.385   6.275 -0.1590  0.7710 -1.1770
   29SAPC  H13C 3816   1.402   1.425   6.176 -0.9772 -1.7830 -0.3157
   29SAPC   C14 3817   1.240   1.634   6.204  0.1335  0.0833 -0.2956
   29SAPC  H14A 3818   1.231   1.741   6.203  1.2628  0.2266 -2.7211
   29SAPC  H14B 3819   1.263   1.606   6.102 -2.4163  0.6815 -1.1277
   29SAPC  H14C 3820   1.139   1.600   6.223 -0.3143 -0.5664 -3.2013
   29SAPC   C15 3821   1.462   1.654   6.290  0.1749  0.5876 -0.4985
   29SAPC  H15A 3822   1.454   1.756   6.326  0.1915 -0.2618  2.1117
   29SAPC  H15B 3823   1.531   1.600   6.353 -0.2599  1.1267  0.4458
   29SAPC  H15C 3824   1.502   1.645   6.190  1.3087 -0.0199 -0.0021
   29SAPC   C11 3825   1.148   1.542   6.506  0.5078  0.5855  0.1960
   29SAPC  H11A 3826   1.126   1.572   6.610  0.1081  1.9518 -0.2638
   29SAPC  H11B 3827   1.156   1.431   6.511  0.7085  0.3962 -2.6222
   29SAPC     P 3828   0.974   1.724   6.432 -0.1170  0.4674 -0.4900
   29SAPC   O13 3829   1.059   1.805   6.524 -0.2898 -0.0542  0.1500
   29SAPC   O14 3830   0.969   1.775   6.296  0.0933 -0.1563 -0.2603
   29SAPC   O12 3831   1.031   1.576   6.429  0.4895  0.1293 -0.1455
   29SAPC   O11 3832   0.827   1.717   6.486 -0.4738  0.2584 -0.5454
   29SAPC    C1 3833   0.782   1.614   6.573  0.5138  0.6437 -0.3187
   29SAPC    HA 3834   0.679   1.588   6.542 -0.4112  2.8491  0.6733
   29SAPC    HB 3835   0.836   1.519   6.553 -0.6336 -0.3370  1.1402
   29SAPC    C2 3836   0.783   1.664   6.720  0.0427 -0.2630 -0.9065
   29SAPC    HS 3837   0.721   1.757   6.715 -1.2582 -1.1082 -0.9074
   29SAPC   O21 3838   0.924   1.682   6.758 -0.2081  0.8038 -0.3807
   29SAPC   C21 3839   0.948   1.781   6.843 -0.2096  0.6405 -0.1739
   29SAPC   O22 3840   0.882   1.879   6.858  0.9818  0.1897  0.3249
   29SAPC   C22 3841   1.087   1.757   6.904  0.2755  0.3199 -0.2635
   29SAPC   H2R 3842   1.126   1.654   6.889 -0.3667  0.2159 -1.2981
   29SAPC   H2S 3843   1.152   1.836   6.859 -0.0489  2.1808  2.3107
   29SAPC    C3 3844   0.706   1.576   6.823  0.0539  0.1011  0.8860
   29SAPC    HX 3845   0.740   1.473   6.799 -0.1176 -0.2114  1.9383
   29SAPC    HY 3846   0.601   1.556   6.793  0.2822 -0.2844  0.3104
   29SAPC   O31 3847   0.739   1.610   6.957  0.0090 -0.0264 -0.4119
   29SAPC   C31 3848   0.639   1.678   7.014 -0.2192  0.6445  0.0270
   29SAPC   O32 3849   0.543   1.724   6.953  0.4451  0.2346  0.0061
   29SAPC   C32 3850   0.657   1.701   7.163 -0.1228 -0.0176 -0.6475
   29SAPC   H2X 3851   0.697   1.611   7.213 -0.9654  0.1115  0.3019
   29SAPC   H2Y 3852   0.555   1.711   7.206 -0.9462 -3.6989 -1.4537
   29SAPC   C23 3853   1.093   1.809   7.048 -0.3962 -0.5836 -0.0831
   29SAPC   H3R 3854   1.035   1.740   7.113 -0.0698 -2.2792 -1.5113
   29SAPC   H3S 3855   1.055   1.913   7.054 -0.2309 -0.5545  0.5117
   29SAPC   C24 3856   1.236   1.826   7.107 -0.0304 -0.4629 -0.1799
   29SAPC   H4R 3857   1.281   1.919   7.065 -1.5949  0.7654  0.7329
   29SAPC   H4S 3858   1.305   1.752   7.062  0.0383 -0.3410 -0.2783
   29SAPC   C25 3859   1.253   1.815   7.257  0.1285  0.7824  0.4055
   29SAPC   H5R 3860   1.248   1.713   7.297 -2.0838  0.4129 -0.6409
   29SAPC   C26 3861   1.269   1.924   7.335 -0.6156  1.1465  0.1004
   29SAPC   H6R 3862   1.292   1.906   7.441  0.6434 -0.2384 -0.3775
   29SAPC   C27 3863   1.257   2.064   7.294  0.7657 -0.0057 -0.1896
   29SAPC   H7R 3864   1.231   2.115   7.389  1.7277 -1.1433  0.7091
   29SAPC   H7S 3865   1.170   2.071   7.225  0.9800  0.0213 -0.4575
   29SAPC   C28 3866   1.384   2.118   7.241  0.2472 -0.2232 -0.0066
   29SAPC   H8R 3867   1.403   2.102   7.134 -0.2924  0.0606 -0.1474
   29SAPC   C29 3868   1.482   2.175   7.311 -0.2960  0.2328  0.3072
   29SAPC   H9R 3869   1.572   2.199   7.251  0.8428 -1.1513  1.3830
   29SAPC  C210 3870   1.479   2.196   7.464  0.0976  0.2798  0.3881
   29SAPC  H10R 3871   1.583   2.182   7.499  0.3280 -0.4095 -0.5354
   29SAPC  H10S 3872   1.428   2.108   7.510  1.2405 -0.9281 -0.5788
   29SAPC  C211 3873   1.416   2.330   7.501 -0.0432  0.8870  0.4663
   29SAPC  H11R 3874   1.339   2.365   7.431 -1.3182 -0.2797  1.2213
   29SAPC  C212 3875   1.428   2.393   7.618 -0.1180 -0.2202  0.4313
   29SAPC  H12R 3876   1.372   2.485   7.640  1.3228  0.7177  0.3663
   29SAPC  C213 3877   1.514   2.352   7.734  0.2182  0.1483 -0.3927
   29SAPC  H13R 3878   1.620   2.343   7.700 -0.6224  0.9405 -3.6697
   29SAPC  H13S 3879   1.475   2.251   7.759 -1.8273  1.4020  1.8691
   29SAPC  C214 3880   1.502   2.437   7.856  0.0192  0.3443  0.0938
   29SAPC  H14R 3881   1.412   2.499   7.870 -0.3479 -0.4565  1.3746
   29SAPC  C215 3882   1.588   2.435   7.964 -0.8345  0.4001  0.0605
   29SAPC  H15R 3883   1.575   2.507   8.045 -2.3792 -3.0473  3.1585
   29SAPC  C216 3884   1.710   2.354   7.976 -0.0335  0.3946  0.2765
   29SAPC  H16R 3885   1.796   2.425   7.971 -0.1604  0.6770  1.6332
   29SAPC  H16S 3886   1.723   2.272   7.902 -0.1641  1.6098 -1.1423
   29SAPC  C217 3887   1.694   2.289   8.114  0.0908  0.8436 -0.5987
   29SAPC  H17R 3888   1.777   2.216   8.112 -1.4185 -0.9849 -0.0048
   29SAPC  H17S 3889   1.599   2.231   8.121  1.2006 -1.2965 -2.1309
   29SAPC  C218 3890   1.728   2.376   8.244  0.4935  0.6550 -0.1601
   29SAPC  H18R 3891   1.644   2.446   8.264  2.0656  2.1097  1.8149
   29SAPC  H18S 3892   1.824   2.429   8.223  1.2061 -0.4584  0.1744
   29SAPC  C219 3893   1.747   2.286   8.369  0.5243  0.5251 -0.2165
   29SAPC  H19R 3894   1.830   2.216   8.345  1.4928  2.2182 -2.1499
   29SAPC  H19S 3895   1.653   2.228   8.385  3.2641 -3.6778  2.7485
   29SAPC  C220 3896   1.777   2.365   8.494  0.2737  0.1155 -0.0661
   29SAPC  H20R 3897   1.862   2.435   8.480 -0.2066  0.8696  0.6914
   29SAPC  H20S 3898   1.800   2.302   8.583 -1.2881 -2.9657 -1.6735
   29SAPC  H20T 3899   1.687   2.423   8.525 -0.9958 -2.7352  2.0126
   29SAPC   C33 3900   0.729   1.834   7.202  0.4709  0.3388  0.9714
   29SAPC   H3X 3901   0.651   1.912   7.200 -1.5282 -1.5516 -2.0220
   29SAPC   H3Y 3902   0.807   1.851   7.124 -1.1735 -2.6684 -1.5551
   29SAPC   C34 3903   0.783   1.831   7.348 -0.0333  0.0557 -0.1195
   29SAPC   H4X 3904   0.843   1.924   7.352 -0.2978  0.3270 -1.9684
   29SAPC   H4Y 3905   0.847   1.741   7.368  0.0695  0.6149  2.4451
   29SAPC   C35 3906   0.681   1.849   7.465 -0.0172  0.5566 -0.4215
   29SAPC   H5X 3907   0.591   1.785   7.447 -0.2410  0.4523  0.9350
   29SAPC   H5Y 3908   0.636   1.951   7.466 -1.2820  0.0222  0.3860
   29SAPC   C36 3909   0.727   1.811   7.600  0.0461  0.3410 -0.3614
   29SAPC   H6X 3910   0.789   1.893   7.643 -0.6873 -0.5377  2.5983
   29SAPC   H6Y 3911   0.786   1.717   7.606  0.2520  0.5367  1.4516
   29SAPC   C37 3912   0.608   1.796   7.704 -0.1120 -0.2404 -0.7307
   29SAPC   H7X 3913   0.573   1.693   7.683 -1.1288  0.2043 -1.2271
   29SAPC   H7Y 3914   0.526   1.870   7.694  0.9039  1.1629  0.7251
   29SAPC   C38 3915   0.669   1.807   7.846 -1.1562 -0.6101  0.0025
   29SAPC   H8X 3916   0.702   1.912   7.864  2.6836 -1.1626 -2.7128
   29SAPC   H8Y 3917   0.760   1.744   7.853 -2.0685 -1.7453  3.5583
   29SAPC   C39 3918   0.580   1.744   7.951 -0.2091  0.0199 -0.4801
   29SAPC   H9X 3919   0.547   1.652   7.898  1.1056  0.1738 -1.6312
   29SAPC   H9Y 3920   0.497   1.815   7.971  0.3553  0.8587 -1.0224
   29SAPC  C310 3921   0.638   1.719   8.088  0.2341 -0.1999 -0.3367
   29SAPC  H10X 3922   0.689   1.808   8.129  0.1778 -0.9196  1.3483
   29SAPC  H10Y 3923   0.721   1.644   8.083  0.6352  0.2388 -0.3837
   29SAPC  C311 3924   0.534   1.662   8.193  0.0868 -0.7159  0.1508
   29SAPC  H11X 3925   0.509   1.559   8.161  0.9873 -0.4649 -1.4861
   29SAPC  H11Y 3926   0.448   1.731   8.198  0.9232  0.3896 -0.2976
   29SAPC  C312 3927   0.618   1.659   8.324  0.4549 -0.3072  0.7818
   29SAPC  H12X 3928   0.652   1.761   8.352  0.8529 -0.4683  0.8966
   29SAPC  H12Y 3929   0.710   1.597   8.316  0.5318 -0.2038  0.8695
   29SAPC  C313 3930   0.547   1.596   8.445 -0.0632 -0.7190 -0.2033
   29SAPC  H13X 3931   0.441   1.627   8.443 -0.6495 -1.5655  4.8324
   29SAPC  H13Y 3932   0.576   1.627   8.547  0.0113 -1.8430  0.1366
   29SAPC  C314 3933   0.539   1.438   8.438 -0.1377  0.0263  0.3741
   29SAPC  H14X 3934   0.645   1.406   8.429  0.4217  1.6783  0.5704
   29SAPC  H14Y 3935   0.492   1.407   8.343  1.1571  0.0334 -0.2883
   29SAPC  C315 3936   0.456   1.377   8.549 -0.0300 -0.7964  0.5615
   29SAPC  H15X 3937   0.356   1.418   8.525  1.0700  2.6419  1.3473
   29SAPC  H15Y 3938   0.495   1.423   8.643  0.1146 -0.2342  0.2287
   29SAPC  C316 3939   0.463   1.225   8.542  0.2442 -0.0577  1.0538
   29SAPC  H16X 3940   0.500   1.187   8.444  0.9654 -1.2138  1.7419
   29SAPC  H16Y 3941   0.366   1.180   8.572  0.2757 -1.3432 -0.6153
   29SAPC  C317 3942   0.562   1.160   8.645  0.1018  0.1046  0.0217
   29SAPC  H17X 3943   0.549   1.211   8.743 -2.4906 -1.3884  0.5384
   29SAPC  H17Y 3944   0.658   1.191   8.598 -0.5811 -0.7785 -2.1152
   29SAPC  C318 3945   0.546   1.007   8.669  0.1248  0.1608  0.0193
   29SAPC  H18X 3946   0.553   0.946   8.576 -1.8140 -0.2262  0.1026
   29SAPC  H18Y 3947   0.446   0.995   8.716  0.4319 -0.1032  0.6288
   29SAPC  H18Z 3948   0.610   0.968   8.752  0.0582 -0.6004 -0.2724
   30SAPC     N 3949   2.436   1.547   5.615  0.1494 -0.5193 -0.6541
   30SAPC   C12 3950   2.389   1.534   5.768  0.0781  0.3495  0.0800
   30SAPC  H12A 3951   2.454   1.456   5.805 -1.2762 -1.2114 -0.7206
   30SAPC  H12B 3952   2.287   1.498   5.766  0.1663  0.1059 -0.1565
   30SAPC   C13 3953   2.377   1.671   5.545 -0.5780  0.3397  0.3770
   30SAPC  H13A 3954   2.403   1.676   5.441  4.2721  2.1687  1.4140
   30SAPC  H13B 3955   2.272   1.675   5.569 -0.2162  2.6151  1.9169
   30SAPC  H13C 3956   2.423   1.759   5.590 -0.6213  0.7849 -0.4327
   30SAPC   C14 3957   2.584   1.554   5.613  0.2054 -0.2494  0.3471
   30SAPC  H14A 3958   2.616   1.459   5.653  0.5287  0.2933  1.4064
   30SAPC  H14B 3959   2.614   1.548   5.510 -2.0728 -0.5917 -0.3468
   30SAPC  H14C 3960   2.613   1.645   5.664  1.4329  0.0845 -0.8816
   30SAPC   C15 3961   2.401   1.419   5.541  0.3523  0.1367  0.4272
   30SAPC  H15A 3962   2.446   1.423   5.443 -0.5131  0.9388  0.0559
   30SAPC  H15B 3963   2.430   1.329   5.595  1.3331 -0.3228 -0.8004
   30SAPC  H15C 3964   2.298   1.412   5.509  0.6317  0.8044 -0.6770
   30SAPC   C11 3965   2.416   1.653   5.861 -0.2021 -0.7059 -0.4036
   30SAPC  H11A 3966   2.380   1.624   5.962  1.8866 -2.5872 -0.1200
   30SAPC  H11B 3967   2.366   1.743   5.820  2.5026  0.8563 -0.5337
   30SAPC     P 3968   2.647   1.611   5.956 -0.2243 -0.2594  0.1534
   30SAPC   O13 3969   2.643   1.466   5.916  0.2644  0.0416  0.0826
   30SAPC   O14 3970   2.781   1.673   5.949  0.0973 -0.1034 -0.0996
   30SAPC   O12 3971   2.556   1.686   5.859  0.4495 -0.1938  0.1308
   30SAPC   O11 3972   2.576   1.641   6.092 -0.0162  0.0519 -0.9297
   30SAPC    C1 3973   2.573   1.772   6.148 -0.5433 -0.2960  0.2636
   30SAPC    HA 3974   2.644   1.844   6.103 -0.9134  0.4999  0.9401
   30SAPC    HB 3975   2.473   1.818   6.135 -1.0325 -1.8233 -1.9442
   30SAPC    C2 3976   2.594   1.762   6.303  0.3323 -0.3875  0.0537
   30SAPC    HS 3977   2.594   1.865   6.344  0.0159 -0.4689  0.2627
   30SAPC   O21 3978   2.725   1.703   6.334  0.4009 -0.0872  0.1718
   30SAPC   C21 3979   2.834   1.767   6.301  0.4478  0.4833 -0.1927
   30SAPC   O22 3980   2.839   1.867   6.233  0.5485 -0.4514 -0.6975
   30SAPC   C22 3981   2.955   1.700   6.360 -1.0573  0.1822 -0.4727
   30SAPC   H2R 3982   2.935   1.591   6.359 -0.9411  0.1565 -0.1477
   30SAPC   H2S 3983   3.045   1.704   6.294 -0.4641  0.8433  0.3626
   30SAPC    C3 3984   2.483   1.679   6.373  0.1663  0.7058  0.4807
   30SAPC    HX 3985   2.508   1.579   6.332 -2.3455  0.2912 -0.2429
   30SAPC    HY 3986   2.382   1.707   6.336  0.5910  2.6924  0.7384
   30SAPC   O31 3987   2.486   1.700   6.511  0.4351 -0.1132 -0.2693
   30SAPC   C31 3988   2.517   1.594   6.583  0.3155 -0.0158  0.0228
   30SAPC   O32 3989   2.532   1.478   6.548 -0.1024 -0.1132  0.3240
   30SAPC   C32 3990   2.536   1.643   6.725 -0.2534 -0.4544 -0.2889
   30SAPC   H2X 3991   2.552   1.753   6.722  0.9007 -0.6350 -2.2990
   30SAPC   H2Y 3992   2.626   1.592   6.765  1.0370 -1.0148 -3.5889
   30SAPC   C23 3993   3.004   1.751   6.496 -0.3901 -0.4800  0.2468
   30SAPC   H3R 3994   3.043   1.855   6.493 -1.1425 -0.2073 -0.4428
   30SAPC   H3S 3995   3.096   1.691   6.514 -0.2179  0.3517  2.3626
   30SAPC   C24 3996   2.910   1.738   6.613  0.8437 -0.2474 -0.3408
   30SAPC   H4R 3997   2.815   1.785   6.581  1.9814  1.0183 -2.0589
   30SAPC   H4S 3998   2.949   1.796   6.700 -1.6702 -1.5207  1.7841
   30SAPC   C25 3999   2.894   1.596   6.652 -0.4027 -0.3768 -0.0551
   30SAPC   H5R 4000   2.879   1.529   6.566 -1.5982  0.1813 -0.3109
   30SAPC   C26 4001   2.897   1.545   6.774  0.2221  0.8597 -0.9107
   30SAPC   H6R 4002   2.890   1.436   6.786  0.2801  1.0783  1.5842
   30SAPC   C27 4003   2.909   1.632   6.900 -0.0544 -0.5956  0.0720
   30SAPC   H7R 4004   2.863   1.732   6.888  1.0471  0.2018  2.0855
   30SAPC   H7S 4005   3.010   1.667   6.929 -0.2491  0.3618 -0.3836
   30SAPC   C28 4006   2.853   1.556   7.016  0.9270 -0.3737 -0.7174
   30SAPC   H8R 4007   2.777   1.481   6.991  1.3340 -1.2565  0.6412
   30SAPC   C29 4008   2.913   1.552   7.142  0.5212 -0.1656  0.2734
   30SAPC   H9R 4009   2.869   1.487   7.219  2.3371 -0.0332  1.4913
   30SAPC  C210 4010   3.033   1.632   7.184 -0.2619  0.3376  0.9266
   30SAPC  H10R 4011   3.085   1.691   7.105 -0.4983 -0.5387  0.0948
   30SAPC  H10S 4012   3.103   1.551   7.211 -1.1984 -0.2980  1.5104
   30SAPC  C211 4013   3.004   1.713   7.308  0.4949 -0.5178 -0.3147
   30SAPC  H11R 4014   2.909   1.693   7.360 -0.7444 -0.4597 -2.4737
   30SAPC  C212 4015   3.087   1.814   7.354 -0.7692 -0.2259  0.0418
   30SAPC  H12R 4016   3.061   1.866   7.447 -1.1961 -0.4332  0.0390
   30SAPC  C213 4017   3.223   1.849   7.293  0.0507  0.1288 -0.2217
   30SAPC  H13R 4018   3.231   1.960   7.303  2.0062  0.1924 -1.7682
   30SAPC  H13S 4019   3.208   1.838   7.183 -2.3652  0.9996 -0.0312
   30SAPC  C214 4020   3.348   1.779   7.348  0.6078  0.0986  1.1684
   30SAPC  H14R 4021   3.370   1.683   7.299  1.7602  1.5873 -1.4368
   30SAPC  C215 4022   3.433   1.834   7.442 -0.2442 -0.1160 -0.1728
   30SAPC  H15R 4023   3.528   1.785   7.470 -0.3061  0.0621  0.3595
   30SAPC  C216 4024   3.401   1.957   7.521  0.8242  0.0406  0.7160
   30SAPC  H16R 4025   3.359   2.033   7.452 -0.6567 -0.7692  0.6881
   30SAPC  H16S 4026   3.497   1.998   7.559  0.2376  2.0760  0.1305
   30SAPC  C217 4027   3.307   1.933   7.642  0.0246 -0.2060 -0.0860
   30SAPC  H17R 4028   3.217   1.884   7.599  1.4960 -2.5815 -0.6534
   30SAPC  H17S 4029   3.281   2.032   7.684  0.3723  0.0200 -0.3992
   30SAPC  C218 4030   3.360   1.853   7.763 -0.8511  0.4377  0.5873
   30SAPC  H18R 4031   3.447   1.913   7.795  0.8292 -1.1307 -0.8369
   30SAPC  H18S 4032   3.395   1.754   7.727 -0.8016 -0.4573  2.9100
   30SAPC  C219 4033   3.262   1.829   7.874  0.0435 -0.1354 -0.9155
   30SAPC  H19R 4034   3.182   1.754   7.851 -2.3493  2.3220 -1.0969
   30SAPC  H19S 4035   3.187   1.910   7.873 -0.2184 -0.3656 -2.2353
   30SAPC  C220 4036   3.320   1.822   8.013 -0.6984  0.3354 -0.9226
   30SAPC  H20R 4037   3.374   1.913   8.048  1.0919 -0.3535 -1.7631
   30SAPC  H20S 4038   3.396   1.741   8.012  1.0315  1.8955 -1.4968
   30SAPC  H20T 4039   3.253   1.790   8.096 -0.6090  0.5653 -0.7611
   30SAPC   C33 4040   2.416   1.599   6.817 -0.3121  0.6882 -0.3543
   30SAPC   H3X 4041   2.416   1.488   6.826  2.4771  0.7516  3.1655
   30SAPC   H3Y 4042   2.324   1.648   6.779 -0.0292  1.4370 -0.0975
   30SAPC   C34 4043   2.437   1.633   6.971  0.0373  0.1221  0.1793
   30SAPC   H4X 4044   2.435   1.743   6.984  1.8684  0.4649 -1.8621
   30SAPC   H4Y 4045   2.535   1.589   6.998 -0.6511  0.0211  2.8747
   30SAPC   C35 4046   2.337   1.556   7.059 -0.3374 -0.1755 -0.4856
   30SAPC   H5X 4047   2.334   1.450   7.026  1.6127 -0.2756 -0.4501
   30SAPC   H5Y 4048   2.231   1.588   7.055  0.1408  1.5463 -0.1964
   30SAPC   C36 4049   2.387   1.556   7.202 -0.2037  0.1161 -0.4279
   30SAPC   H6X 4050   2.382   1.662   7.233 -0.8153  0.3855 -1.4079
   30SAPC   H6Y 4051   2.495   1.530   7.206 -0.2113 -0.1365 -1.6264
   30SAPC   C37 4052   2.299   1.477   7.306  0.2107  0.1280 -0.6378
   30SAPC   H7X 4053   2.306   1.369   7.282  0.4142  0.4018 -1.8539
   30SAPC   H7Y 4054   2.196   1.513   7.285 -0.0644  0.5542  1.2731
   30SAPC   C38 4055   2.340   1.512   7.442  0.1277 -0.1867 -0.0443
   30SAPC   H8X 4056   2.316   1.620   7.449 -1.1313 -0.5263  1.4227
   30SAPC   H8Y 4057   2.450   1.500   7.454  0.1344 -0.0781  0.0091
   30SAPC   C39 4058   2.259   1.440   7.551 -0.3538 -0.0102 -0.6530
   30SAPC   H9X 4059   2.255   1.329   7.548 -2.6051 -0.2997  4.0767
   30SAPC   H9Y 4060   2.155   1.478   7.551 -1.6596 -3.1708  1.3101
   30SAPC  C310 4061   2.322   1.461   7.695 -0.3816  0.1233  1.1287
   30SAPC  H10X 4062   2.430   1.433   7.696 -0.6417 -1.4486 -1.7912
   30SAPC  H10Y 4063   2.295   1.383   7.769  2.2731 -1.8869  0.1447
   30SAPC  C311 4064   2.319   1.609   7.737  0.2365  0.5934 -0.1951
   30SAPC  H11X 4065   2.218   1.643   7.766  0.2768 -1.1028  2.3177
   30SAPC  H11Y 4066   2.351   1.686   7.664  2.5464  1.1513  1.2720
   30SAPC  C312 4067   2.415   1.628   7.855 -0.2001 -0.0738  0.5380
   30SAPC  H12X 4068   2.520   1.612   7.825 -0.0794 -0.5600  1.1871
   30SAPC  H12Y 4069   2.388   1.554   7.933 -0.8443 -1.4308 -0.9084
   30SAPC  C313 4070   2.406   1.762   7.919  0.3515  0.3268  0.3808
   30SAPC  H13X 4071   2.321   1.803   7.860 -0.7574 -1.9424  0.2617
   30SAPC  H13Y 4072   2.495   1.818   7.886  0.8959 -0.8588 -0.2284
   30SAPC  C314 4073   2.397   1.767   8.071 -0.5742 -0.3031  0.3997
   30SAPC  H14X 4074   2.477   1.709   8.121 -0.3634 -0.3080  0.0601
   30SAPC  H14Y 4075   2.299   1.724   8.104 -0.3931  0.4693  2.0698
   30SAPC  C315 4076   2.427   1.905   8.140 -0.2687 -0.2345 -0.6964
   30SAPC  H15X 4077   2.369   1.988   8.094 -0.4090  0.4284  0.6097
   30SAPC  H15Y 4078   2.535   1.916   8.115  0.0523 -2.1540 -0.2768
   30SAPC  C316 4079   2.428   1.912   8.288  0.2383  0.2564  0.7289
   30SAPC  H16X 4080   2.482   1.825   8.330 -0.7032 -0.1404  1.1332
   30SAPC  H16Y 4081   2.323   1.901   8.322  0.8828  1.1896  3.2212
   30SAPC  C317 4082   2.482   2.049   8.334  0.2503 -0.1198 -0.1979
   30SAPC  H17X 4083   2.456   2.056   8.441  1.9218 -1.2634  0.3195
   30SAPC  H17Y 4084   2.431   2.126   8.272  0.2328 -1.0106 -1.3186
   30SAPC  C318 4085   2.635   2.066   8.324  0.1743 -0.0126 -1.0140
   30SAPC  H18X 4086   2.688   1.969   8.334 -1.4397 -1.0188 -1.8689
   30SAPC  H18Y 4087   2.679   2.134   8.401 -0.0919  0.9091 -1.6557
   30SAPC  H18Z 4088   2.664   2.101   8.222 -1.3090 -0.0959 -1.4930
   31SAPC     N 4089   4.646   3.200   6.101 -0.1200 -0.0141  0.2737
   31SAPC   C12 4090   4.603   3.187   6.243  0.6140 -0.3880  0.0891
   31SAPC  H12A 4091   4.618   3.280   6.296 -1.6670 -0.5024  1.0510
   31SAPC  H12B 4092   4.664   3.110   6.287  0.4604 -0.6532 -0.1596
   31SAPC   C13 4093   4.570   3.304   6.023 -0.1592 -0.0715 -0.6362
   31SAPC  H13A 4094   4.581   3.406   6.057 -1.0261 -0.2587  0.2503
   31SAPC  H13B 4095   4.610   3.299   5.923  1.2156  3.1475 -0.3622
   31SAPC  H13C 4096   4.467   3.273   6.033  0.2072 -1.6300 -1.2628
   31SAPC   C14 4097   4.791   3.233   6.087  0.2089 -0.8883  0.7053
   31SAPC  H14A 4098   4.851   3.191   6.167 -0.3197 -0.3048  1.4080
   31SAPC  H14B 4099   4.835   3.207   5.991  0.2619 -0.4352  0.6034
   31SAPC  H14C 4100   4.802   3.339   6.072 -0.0959 -1.2352 -3.2241
   31SAPC   C15 4101   4.611   3.070   6.021  0.9653  0.2674 -0.5649
   31SAPC  H15A 4102   4.664   3.071   5.927 -1.7327 -0.4393 -2.2089
   31SAPC  H15B 4103   4.637   2.983   6.080  3.0658  0.4322 -1.1541
   31SAPC  H15C 4104   4.504   3.079   6.006  1.1401  1.5685 -1.1949
   31SAPC   C11 4105   4.452   3.145   6.268 -0.6489 -1.0869  0.2018
   31SAPC  H11A 4106   4.421   3.125   6.373 -1.7778 -0.8211 -0.0676
   31SAPC  H11B 4107   4.417   3.053   6.217 -1.2179 -0.2492 -0.9452
   31SAPC     P 4108   4.290   3.353   6.280  0.0475  0.3760  0.5033
   31SAPC   O13 4109   4.380   3.447   6.355  0.4329  0.2003  0.5930
   31SAPC   O14 4110   4.208   3.411   6.171 -0.5427  0.2606  0.0982
   31SAPC   O12 4111   4.372   3.241   6.220 -0.1979  0.2438 -0.0748
   31SAPC   O11 4112   4.194   3.280   6.375 -0.8436  0.7458 -0.0526
   31SAPC    C1 4113   4.127   3.345   6.492 -0.5672  1.6856 -0.5422
   31SAPC    HA 4114   4.122   3.456   6.480  0.7519  1.6488 -1.5981
   31SAPC    HB 4115   4.027   3.298   6.505  0.7960 -1.6024 -0.9675
   31SAPC    C2 4116   4.210   3.327   6.622 -0.0068 -0.0504  0.7421
   31SAPC    HS 4117   4.298   3.393   6.606 -1.7830  1.7884 -2.4180
   31SAPC   O21 4118   4.247   3.186   6.649  0.2119 -0.1503  0.6488
   31SAPC   C21 4119   4.356   3.172   6.714  0.3509 -0.7483  0.2153
   31SAPC   O22 4120   4.444   3.257   6.725  1.1549  0.0214 -0.0566
   31SAPC   C22 4121   4.333   3.048   6.799  0.4385 -0.4343 -0.6534
   31SAPC   H2R 4122   4.264   3.075   6.881  1.8091 -0.7552  0.6339
   31SAPC   H2S 4123   4.294   2.964   6.737  1.4370 -1.1691 -0.3092
   31SAPC    C3 4124   4.119   3.382   6.736  0.1344 -0.5237 -0.3318
   31SAPC    HX 4125   4.031   3.314   6.730 -1.9552  1.8331  1.3523
   31SAPC    HY 4126   4.091   3.486   6.710 -0.2677  0.0227  2.0504
   31SAPC   O31 4127   4.177   3.365   6.864 -0.2040  0.3665 -0.1401
   31SAPC   C31 4128   4.248   3.469   6.912  0.2718  0.0335  1.2793
   31SAPC   O32 4129   4.267   3.578   6.852  0.7845  0.3883 -0.1599
   31SAPC   C32 4130   4.274   3.439   7.053  0.0999 -0.9190 -0.6369
   31SAPC   H2X 4131   4.359   3.497   7.096  0.2295 -2.1962  0.9433
   31SAPC   H2Y 4132   4.302   3.332   7.061  0.3015 -0.8766 -0.7784
   31SAPC   C23 4133   4.460   3.009   6.881 -0.5969 -0.1378 -0.7159
   31SAPC   H3R 4134   4.486   3.085   6.958 -1.8919  0.5156 -0.8932
   31SAPC   H3S 4135   4.541   2.993   6.807 -1.0154  1.1357 -1.5038
   31SAPC   C24 4136   4.431   2.874   6.956 -0.3386 -0.0939  0.6110
   31SAPC   H4R 4137   4.411   2.790   6.886  1.7964 -1.3725  1.4548
   31SAPC   H4S 4138   4.338   2.894   7.012 -1.4589 -1.2413 -0.7547
   31SAPC   C25 4139   4.545   2.824   7.042  0.0665  0.1715 -0.7145
   31SAPC   H5R 4140   4.642   2.800   6.997  0.7118  0.2069  0.5937
   31SAPC   C26 4141   4.535   2.814   7.173  0.2083  0.5424 -0.4157
   31SAPC   H6R 4142   4.626   2.777   7.222 -1.0270  1.3674  2.8054
   31SAPC   C27 4143   4.420   2.839   7.266 -0.5474  0.3370  0.7161
   31SAPC   H7R 4144   4.385   2.740   7.300 -0.2609  0.5196  1.5738
   31SAPC   H7S 4145   4.336   2.892   7.215  0.5663  1.7736  0.2998
   31SAPC   C28 4146   4.466   2.912   7.393 -0.3469 -0.0446  0.0235
   31SAPC   H8R 4147   4.526   2.859   7.468  1.3399  0.4522 -0.9081
   31SAPC   C29 4148   4.451   3.050   7.420 -0.0131 -1.6763  0.8831
   31SAPC   H9R 4149   4.478   3.099   7.515  2.4070  3.2943 -1.9806
   31SAPC  C210 4150   4.395   3.148   7.321  0.3653  0.9581  0.1996
   31SAPC  H10R 4151   4.332   3.220   7.377 -0.6403 -0.4792  0.9734
   31SAPC  H10S 4152   4.327   3.106   7.244 -1.2714  1.7921  1.1368
   31SAPC  C211 4153   4.506   3.220   7.259  1.0562 -0.2977 -0.1090
   31SAPC  H11R 4154   4.536   3.179   7.162  0.6517 -0.7784 -0.0336
   31SAPC  C212 4155   4.571   3.330   7.303 -0.1628  0.5823 -0.2653
   31SAPC  H12R 4156   4.659   3.357   7.243 -1.2159  2.4805 -1.0469
   31SAPC  C213 4157   4.549   3.402   7.433  0.4424 -0.4810  1.2009
   31SAPC  H13R 4158   4.447   3.393   7.475 -0.7463  1.4346 -1.0068
   31SAPC  H13S 4159   4.562   3.513   7.431 -1.1278 -0.2868 -0.8386
   31SAPC  C214 4160   4.654   3.351   7.529  0.0896 -0.1477  0.3360
   31SAPC  H14R 4161   4.751   3.369   7.480 -0.6452  1.1846 -0.6817
   31SAPC  C215 4162   4.645   3.297   7.651 -0.3701 -0.2929 -0.7025
   31SAPC  H15R 4163   4.740   3.274   7.703 -0.3649  0.5625 -0.3230
   31SAPC  C216 4164   4.531   3.284   7.742 -0.2288  0.5116 -0.3041
   31SAPC  H16R 4165   4.432   3.296   7.693 -0.4746 -0.4854 -0.0714
   31SAPC  H16S 4166   4.543   3.353   7.828  0.2303 -1.0901  0.9814
   31SAPC  C217 4167   4.537   3.145   7.806  0.1650  0.3291  0.0148
   31SAPC  H17R 4168   4.536   3.064   7.729  0.8948 -0.9598  1.3061
   31SAPC  H17S 4169   4.444   3.129   7.864 -0.5208  2.7406 -0.3003
   31SAPC  C218 4170   4.658   3.116   7.900  0.0066 -0.2282  0.6705
   31SAPC  H18R 4171   4.654   3.211   7.958  0.1538  0.9845 -1.2186
   31SAPC  H18S 4172   4.751   3.116   7.840 -1.1296  0.8508 -1.1992
   31SAPC  C219 4173   4.653   2.995   7.986  0.0766  0.2328 -0.2159
   31SAPC  H19R 4174   4.615   2.908   7.927  1.1751  0.4657 -1.2937
   31SAPC  H19S 4175   4.581   3.003   8.070  0.2506 -0.0528 -0.0368
   31SAPC  C220 4176   4.789   2.948   8.032  0.0261 -0.1401  0.0617
   31SAPC  H20R 4177   4.776   2.854   8.090 -1.6699  0.7403  1.1995
   31SAPC  H20S 4178   4.828   3.034   8.090  0.3990  0.0283 -0.4400
   31SAPC  H20T 4179   4.854   2.924   7.945 -0.2336 -2.9134  0.5433
   31SAPC   C33 4180   4.145   3.474   7.144 -0.3635 -0.3550 -0.0729
   31SAPC   H3X 4181   4.064   3.402   7.117  0.6448 -1.7831  0.6003
   31SAPC   H3Y 4182   4.117   3.579   7.120  0.6698  0.0019  0.2323
   31SAPC   C34 4183   4.174   3.449   7.287 -0.0420 -0.1739  0.2878
   31SAPC   H4X 4184   4.285   3.456   7.290 -0.0059  0.2266 -1.1311
   31SAPC   H4Y 4185   4.142   3.346   7.310  1.1218 -0.0302  2.9928
   31SAPC   C35 4186   4.113   3.552   7.377  0.3289  0.0739  0.4464
   31SAPC   H5X 4187   4.006   3.552   7.347  0.1205 -0.3798  1.1871
   31SAPC   H5Y 4188   4.134   3.657   7.344  2.9666 -0.9719 -1.5440
   31SAPC   C36 4189   4.145   3.533   7.527  0.0766 -0.0187 -0.1296
   31SAPC   H6X 4190   4.100   3.613   7.588  1.3497 -0.5636  1.5982
   31SAPC   H6Y 4191   4.255   3.545   7.536  0.0627 -0.5669  0.9177
   31SAPC   C37 4192   4.105   3.392   7.587 -0.1202  0.3453  0.5017
   31SAPC   H7X 4193   4.179   3.322   7.544  0.0851  1.3537 -0.8602
   31SAPC   H7Y 4194   3.999   3.374   7.557 -0.2461 -0.8352  1.5931
   31SAPC   C38 4195   4.127   3.390   7.743  0.7052 -0.6641  0.2309
   31SAPC   H8X 4196   4.074   3.467   7.802 -0.5830 -3.2214  2.6481
   31SAPC   H8Y 4197   4.237   3.398   7.732  0.6693 -2.0565 -1.6822
   31SAPC   C39 4198   4.099   3.253   7.808 -0.4075 -0.3275 -0.0396
   31SAPC   H9X 4199   4.146   3.174   7.746 -0.4743 -1.7199  1.6117
   31SAPC   H9Y 4200   3.989   3.234   7.809 -0.1235 -2.5061  3.0412
   31SAPC  C310 4201   4.154   3.258   7.961  1.1573 -0.0037  0.3764
   31SAPC  H10X 4202   4.101   3.332   8.024 -0.5624  1.1654 -2.2383
   31SAPC  H10Y 4203   4.263   3.272   7.946  0.7696  1.1201 -1.9452
   31SAPC  C311 4204   4.136   3.120   8.027  0.0524  0.2043 -0.5699
   31SAPC  H11X 4205   4.172   3.041   7.957  0.3652  0.7521 -1.0280
   31SAPC  H11Y 4206   4.026   3.112   8.044 -0.0518  2.4441  0.0354
   31SAPC  C312 4207   4.211   3.108   8.156  0.1683  0.0152  0.8547
   31SAPC  H12X 4208   4.188   3.194   8.223 -1.9444  0.5413 -0.4546
   31SAPC  H12Y 4209   4.320   3.112   8.134 -0.2120 -0.0579 -1.2452
   31SAPC  C313 4210   4.179   2.973   8.223  0.9714  0.0624  0.0497
   31SAPC  H13X 4211   4.209   2.887   8.159  0.0170 -0.7398  0.6470
   31SAPC  H13Y 4212   4.068   2.967   8.228  0.8902 -1.3548 -2.1236
   31SAPC  C314 4213   4.227   2.955   8.363  0.5728  0.3300  0.6112
   31SAPC  H14X 4214   4.173   2.875   8.418 -1.2942 -0.2427 -1.8670
   31SAPC  H14Y 4215   4.199   3.046   8.420  1.4991  2.1305 -1.6342
   31SAPC  C315 4216   4.376   2.926   8.387 -0.1523 -0.4874  0.1058
   31SAPC  H15X 4217   4.436   2.984   8.314  1.4071  0.1865  1.8541
   31SAPC  H15Y 4218   4.398   2.818   8.371  0.0907 -0.4037 -0.1288
   31SAPC  C316 4219   4.414   2.946   8.527 -0.9047  0.3389 -0.0383
   31SAPC  H16X 4220   4.516   2.904   8.535 -0.0687  1.8978 -1.9370
   31SAPC  H16Y 4221   4.347   2.883   8.590 -1.4094  1.1588  0.2604
   31SAPC  C317 4222   4.424   3.091   8.573  0.3116 -0.3461  0.2733
   31SAPC  H17X 4223   4.323   3.124   8.605  1.6300  1.2825  3.1662
   31SAPC  H17Y 4224   4.463   3.157   8.493  0.7260  1.1452  1.6673
   31SAPC  C318 4225   4.521   3.116   8.692 -0.2640 -0.2895  0.3123
   31SAPC  H18X 4226   4.514   3.224   8.717  0.4507  0.1845 -1.3472
   31SAPC  H18Y 4227   4.626   3.088   8.668 -0.9259 -1.8592 -0.8618
   31SAPC  H18Z 4228   4.486   3.069   8.785  0.5156 -1.0095  0.2542
   32SAPC     N 4229   6.028   4.771   6.084 -0.3224 -0.0954  0.4257
   32SAPC   C12 4230   6.071   4.727   6.218  0.4756  0.7070 -0.2363
   32SAPC  H12A 4231   6.008   4.639   6.229 -2.1595  2.3891 -0.9823
   32SAPC  H12B 4232   6.041   4.805   6.286 -1.5907 -0.6476  0.5433
   32SAPC   C13 4233   6.100   4.896   6.044  0.2607 -0.6262 -0.6500
   32SAPC  H13A 4234   6.063   4.921   5.945 -2.8113  1.7911  0.9408
   32SAPC  H13B 4235   6.082   4.981   6.108 -1.6177 -0.8168 -0.8754
   32SAPC  H13C 4236   6.207   4.881   6.044  0.1938 -1.1478 -0.3947
   32SAPC   C14 4237   6.046   4.665   5.974 -0.9108 -0.1213 -0.2460
   32SAPC  H14A 4238   6.154   4.652   5.976 -1.1229 -2.4243  2.1960
   32SAPC  H14B 4239   6.009   4.564   5.981  0.4298 -0.8406 -2.5604
   32SAPC  H14C 4240   6.010   4.695   5.877 -1.4140 -0.7835 -0.2726
   32SAPC   C15 4241   5.881   4.807   6.088  0.2614  0.7214  0.2512
   32SAPC  H15A 4242   5.843   4.857   6.001  0.5426 -1.4342 -1.2082
   32SAPC  H15B 4243   5.819   4.719   6.102 -3.0904  2.9047  0.1649
   32SAPC  H15C 4244   5.855   4.863   6.176  1.6421  1.1395  0.4161
   32SAPC   C11 4245   6.219   4.682   6.250  0.0154 -0.0924  0.6059
   32SAPC  H11A 4246   6.228   4.683   6.361  0.1526 -0.0178  0.5948
   32SAPC  H11B 4247   6.295   4.760   6.228 -1.9599  2.1580  1.2823
   32SAPC     P 4248   6.225   4.424   6.232 -0.0647  0.4253 -0.4040
   32SAPC   O13 4249   6.084   4.399   6.192 -0.2829 -0.5852  0.2634
   32SAPC   O14 4250   6.325   4.343   6.170  0.1116 -0.2682  0.0256
   32SAPC   O12 4251   6.261   4.562   6.182 -0.0079 -0.7326 -0.3834
   32SAPC   O11 4252   6.246   4.418   6.388  0.1290 -0.1279  0.7454
   32SAPC    C1 4253   6.367   4.455   6.454 -0.3833 -0.2420 -0.2192
   32SAPC    HA 4254   6.436   4.508   6.385 -0.5562 -0.7790 -0.8090
   32SAPC    HB 4255   6.346   4.520   6.542 -1.4708  0.7645 -1.1842
   32SAPC    C2 4256   6.432   4.323   6.508 -0.0819  0.1295  0.3597
   32SAPC    HS 4257   6.459   4.267   6.416  1.4408  1.1549  0.1418
   32SAPC   O21 4258   6.329   4.249   6.582 -0.1782  0.3087 -0.3508
   32SAPC   C21 4259   6.341   4.122   6.579  0.3656  0.3669 -0.3461
   32SAPC   O22 4260   6.420   4.061   6.507  0.9680 -0.4098 -0.0665
   32SAPC   C22 4261   6.237   4.062   6.674  0.0177 -1.3920 -0.6620
   32SAPC   H2R 4262   6.192   4.139   6.741  1.8377 -2.0509  1.4566
   32SAPC   H2S 4263   6.158   4.015   6.612  0.6277 -1.5156 -1.3596
   32SAPC    C3 4264   6.567   4.340   6.586 -0.2882  0.1921  0.2564
   32SAPC    HX 4265   6.641   4.396   6.524  0.0106  1.7810  1.9603
   32SAPC    HY 4266   6.618   4.242   6.573  1.1777  0.4570  3.1023
   32SAPC   O31 4267   6.552   4.386   6.719 -0.5268  0.1478  0.0994
   32SAPC   C31 4268   6.562   4.300   6.822 -0.3537 -0.4399 -0.3699
   32SAPC   O32 4269   6.576   4.179   6.814 -0.4985 -0.1325 -0.0282
   32SAPC   C32 4270   6.557   4.386   6.948  0.4566  0.6785 -0.7030
   32SAPC   H2X 4271   6.490   4.474   6.953  1.2561  1.2596  3.6516
   32SAPC   H2Y 4272   6.660   4.417   6.975 -0.1230 -0.1474  2.9907
   32SAPC   C23 4273   6.292   3.958   6.778 -0.5734  0.1818  0.6972
   32SAPC   H3R 4274   6.376   3.998   6.839 -2.2648  0.1824  3.1557
   32SAPC   H3S 4275   6.333   3.874   6.718 -1.6161  0.3951 -0.3511
   32SAPC   C24 4276   6.191   3.899   6.872 -0.8052 -0.0640  0.2102
   32SAPC   H4R 4277   6.244   3.827   6.937 -2.2606  1.2200  3.0096
   32SAPC   H4S 4278   6.129   3.833   6.809 -0.3306 -1.3494  1.0565
   32SAPC   C25 4279   6.119   3.998   6.958  0.4327 -0.2951 -0.2554
   32SAPC   H5R 4280   6.038   4.054   6.909  1.5627  1.1074 -0.5795
   32SAPC   C26 4281   6.151   4.029   7.082  0.0537  0.0726  0.2025
   32SAPC   H6R 4282   6.091   4.106   7.133 -1.4095  0.4730 -1.9734
   32SAPC   C27 4283   6.265   3.977   7.161 -0.4452  0.1865  0.0958
   32SAPC   H7R 4284   6.313   4.065   7.209  0.8330 -0.4537  0.0330
   32SAPC   H7S 4285   6.343   3.931   7.097 -2.3814 -1.8342 -0.9436
   32SAPC   C28 4286   6.209   3.877   7.260  0.6568 -0.4789 -1.3462
   32SAPC   H8R 4287   6.182   3.785   7.207 -0.0813 -1.7048  0.9898
   32SAPC   C29 4288   6.192   3.877   7.394 -0.5723 -0.3851  0.6491
   32SAPC   H9R 4289   6.139   3.791   7.440 -1.6007  0.2114  0.6026
   32SAPC  C210 4290   6.221   3.984   7.495  0.4585  0.2166  0.5564
   32SAPC  H10R 4291   6.127   4.034   7.527 -0.7168 -2.2553  1.1741
   32SAPC  H10S 4292   6.285   4.062   7.448 -0.8957  2.1709  1.8352
   32SAPC  C211 4293   6.301   3.916   7.604 -0.3385  0.5874  0.6042
   32SAPC  H11R 4294   6.407   3.907   7.577 -0.5015 -1.4764  0.5054
   32SAPC  C212 4295   6.256   3.880   7.726  0.3265 -0.4752 -0.0188
   32SAPC  H12R 4296   6.323   3.832   7.800  0.9372 -1.6864 -1.3089
   32SAPC  C213 4297   6.115   3.908   7.774 -0.6431 -0.8780 -0.6532
   32SAPC  H13R 4298   6.068   3.821   7.825 -1.2502 -0.4795 -0.5231
   32SAPC  H13S 4299   6.054   3.924   7.682 -0.3908  1.2082 -0.5032
   32SAPC  C214 4300   6.109   4.030   7.864  0.3894 -0.0327  0.3165
   32SAPC  H14R 4301   6.132   4.129   7.823  2.0770 -0.5104  0.0267
   32SAPC  C215 4302   6.080   4.016   7.997  0.3668  0.3678 -0.8510
   32SAPC  H15R 4303   6.078   4.099   8.069  0.8708 -0.5178  0.2156
   32SAPC  C216 4304   6.064   3.884   8.070 -0.0475 -0.0153 -0.1051
   32SAPC  H16R 4305   6.021   3.807   8.003 -3.6515  0.6328  1.2394
   32SAPC  H16S 4306   6.008   3.894   8.165  1.4292  0.5844  0.7331
   32SAPC  C217 4307   6.188   3.811   8.129 -0.1520 -0.3342 -0.3394
   32SAPC  H17R 4308   6.254   3.781   8.045 -0.0374 -1.2108  0.0557
   32SAPC  H17S 4309   6.175   3.712   8.177  0.7269  0.2816  1.2408
   32SAPC  C218 4310   6.267   3.914   8.219  0.5262  0.1706  0.4393
   32SAPC  H18R 4311   6.285   4.000   8.151 -2.7710  0.8108  0.2289
   32SAPC  H18S 4312   6.367   3.873   8.247  1.5933  1.8262 -0.7709
   32SAPC  C219 4313   6.190   3.951   8.351  0.6254  0.5845  0.1514
   32SAPC  H19R 4314   6.084   3.985   8.344  0.9447  1.2634 -3.1771
   32SAPC  H19S 4315   6.260   4.026   8.395 -0.0166  1.0499  0.3917
   32SAPC  C220 4316   6.195   3.828   8.444 -0.3719 -0.0637  0.3555
   32SAPC  H20R 4317   6.134   3.835   8.537  0.8240  0.5009  1.1209
   32SAPC  H20S 4318   6.298   3.794   8.468 -0.7277  0.2996  2.6854
   32SAPC  H20T 4319   6.153   3.742   8.386  0.2677 -0.4015  0.3884
   32SAPC   C33 4320   6.509   4.303   7.070 -0.0791  0.5210 -0.2314
   32SAPC   H3X 4321   6.583   4.220   7.073  0.1838  0.6998 -1.4358
   32SAPC   H3Y 4322   6.411   4.262   7.037 -0.8073  1.8415  0.2075
   32SAPC   C34 4323   6.516   4.381   7.204  0.0914 -0.4093  0.3027
   32SAPC   H4X 4324   6.455   4.471   7.181 -0.1458 -1.2910 -3.0432
   32SAPC   H4Y 4325   6.620   4.409   7.232 -1.1441  1.2769  3.7768
   32SAPC   C35 4326   6.441   4.316   7.323  0.3160  0.2673 -1.0078
   32SAPC   H5X 4327   6.477   4.211   7.318 -1.8370 -0.4940 -1.2429
   32SAPC   H5Y 4328   6.331   4.314   7.316  0.2589 -0.9168 -0.1746
   32SAPC   C36 4329   6.485   4.393   7.449 -0.7186  0.2579 -0.0642
   32SAPC   H6X 4330   6.459   4.500   7.442  0.3355  0.6048  0.9467
   32SAPC   H6Y 4331   6.596   4.393   7.461 -0.7664 -1.1689  0.6280
   32SAPC   C37 4332   6.416   4.338   7.578 -0.0633 -0.5873 -0.6592
   32SAPC   H7X 4333   6.419   4.228   7.585 -3.2411 -1.0248 -3.2887
   32SAPC   H7Y 4334   6.311   4.373   7.565  0.6452  1.4843 -1.3013
   32SAPC   C38 4335   6.465   4.397   7.714  0.1623  0.0899 -0.8345
   32SAPC   H8X 4336   6.456   4.508   7.711  0.1343  0.0583 -2.9261
   32SAPC   H8Y 4337   6.574   4.381   7.718  0.4721  1.2678 -3.0889
   32SAPC   C39 4338   6.370   4.335   7.822  0.5058 -0.5972 -0.3339
   32SAPC   H9X 4339   6.374   4.224   7.819  0.9180 -0.6267  1.1086
   32SAPC   H9Y 4340   6.262   4.356   7.804  0.6112 -0.9962 -1.5818
   32SAPC  C310 4341   6.419   4.380   7.955  0.2335  0.1376  0.1675
   32SAPC  H10X 4342   6.425   4.491   7.962 -0.9615  0.4370 -2.3655
   32SAPC  H10Y 4343   6.516   4.329   7.978  0.5591 -0.9731 -3.0786
   32SAPC  C311 4344   6.319   4.345   8.067  0.0083  0.1432  0.3880
   32SAPC  H11X 4345   6.309   4.235   8.072 -0.5635  0.2088  0.7759
   32SAPC  H11Y 4346   6.219   4.381   8.036 -0.3451  0.0794  1.4056
   32SAPC  C312 4347   6.356   4.400   8.205  0.4077  0.1281  0.2529
   32SAPC  H12X 4348   6.278   4.372   8.278 -0.6662  2.7428  0.2032
   32SAPC  H12Y 4349   6.359   4.511   8.209 -1.8314  0.2411  0.0187
   32SAPC  C313 4350   6.488   4.345   8.256 -0.7319  0.1384  0.3807
   32SAPC  H13X 4351   6.515   4.399   8.349 -1.4610 -0.6545  1.0671
   32SAPC  H13Y 4352   6.562   4.365   8.175 -1.4556  1.9819  0.1241
   32SAPC  C314 4353   6.484   4.194   8.293 -0.5596  0.0008  0.7782
   32SAPC  H14X 4354   6.439   4.155   8.198 -2.1602 -0.5539  1.7106
   32SAPC  H14Y 4355   6.412   4.170   8.375  0.7953  0.1525  2.0532
   32SAPC  C315 4356   6.625   4.129   8.311  0.3458  0.6796  0.0340
   32SAPC  H15X 4357   6.690   4.143   8.221  2.3787 -0.7255  1.2067
   32SAPC  H15Y 4358   6.600   4.021   8.301  1.3381  0.5813 -1.9088
   32SAPC  C316 4359   6.698   4.174   8.441 -0.1907 -0.0548 -0.2864
   32SAPC  H16X 4360   6.629   4.165   8.528  0.1902  3.0935  0.4708
   32SAPC  H16Y 4361   6.705   4.284   8.429 -0.5509  0.2558  1.8569
   32SAPC  C317 4362   6.831   4.099   8.450 -0.1485 -0.0405 -0.3098
   32SAPC  H17X 4363   6.888   4.101   8.354  1.5960  2.1449  0.6796
   32SAPC  H17Y 4364   6.808   3.992   8.471  0.3514 -0.0293  0.3222
   32SAPC  C318 4365   6.933   4.164   8.550  0.3126  0.9884  0.5978
   32SAPC  H18X 4366   6.880   4.167   8.648 -0.5977 -0.1698  0.1544
   32SAPC  H18Y 4367   6.956   4.267   8.515  0.5003  0.7735  0.0781
   32SAPC  H18Z 4368   7.030   4.109   8.546 -0.3658 -0.1588 -1.1334
   33POPC     N 4369   1.708   4.296  10.922  0.1346 -0.1202 -0.2258
   33POPC   C12 4370   1.802   4.202  10.849  0.4072  0.4333 -0.4806
   33POPC  H12A 4371   1.789   4.100  10.880  2.5020 -0.0425 -1.0403
   33POPC  H12B 4372   1.904   4.234  10.862  0.6992 -1.1918  1.8507
   33POPC   C13 4373   1.720   4.289  11.073  0.7083 -0.0115  0.1605
   33POPC  H13A 4374   1.649   4.352  11.123  0.4703 -1.0891  1.2322
   33POPC  H13B 4375   1.699   4.188  11.105 -1.1113  0.6154  1.0879
   33POPC  H13C 4376   1.816   4.307  11.119  1.3556 -0.0643 -1.1202
   33POPC   C14 4377   1.745   4.441  10.889  0.4893 -0.8066 -0.1436
   33POPC  H14A 4378   1.671   4.517  10.907  0.8172 -0.5635  0.2009
   33POPC  H14B 4379   1.826   4.488  10.943 -0.3174  1.9368 -1.1202
   33POPC  H14C 4380   1.771   4.445  10.784  0.5307  0.3027 -0.1036
   33POPC   C15 4381   1.567   4.272  10.872 -0.1164  0.4629  0.1294
   33POPC  H15A 4382   1.562   4.286  10.765  0.6718  0.2389  0.0562
   33POPC  H15B 4383   1.484   4.327  10.915  0.3711 -0.4477  2.3293
   33POPC  H15C 4384   1.546   4.167  10.885  0.1340  0.3405 -0.4343
   33POPC   C11 4385   1.789   4.196  10.692 -0.0204  0.0183  0.2858
   33POPC  H11A 4386   1.686   4.170  10.659  0.7422  1.0571 -3.4042
   33POPC  H11B 4387   1.850   4.113  10.649  0.5342  1.2287 -1.3746
   33POPC     P 4388   1.958   4.327  10.553  0.1365 -0.0997 -0.1017
   33POPC   O13 4389   2.056   4.272  10.652  0.2305 -0.1694 -0.4157
   33POPC   O14 4390   1.978   4.468  10.522  0.4505 -0.2437  0.4297
   33POPC   O12 4391   1.819   4.321  10.630  0.2125  0.0436  0.3435
   33POPC   O11 4392   1.951   4.233  10.420 -0.9027  0.0311 -0.9062
   33POPC    C1 4393   1.841   4.207  10.333  0.0140 -0.1533 -0.8642
   33POPC    HA 4394   1.795   4.110  10.363  1.8368 -0.1199  2.5864
   33POPC    HB 4395   1.769   4.291  10.332 -2.5093 -2.1611 -0.0545
   33POPC    C2 4396   1.884   4.193  10.189 -0.7595  0.2586  0.5647
   33POPC    HS 4397   1.912   4.291  10.143  0.3066 -0.6449 -0.8050
   33POPC   O21 4398   1.777   4.128  10.110 -0.0968 -0.5381 -0.0400
   33POPC   C21 4399   1.669   4.201  10.093 -1.1187 -0.1668  0.7056
   33POPC   O22 4400   1.674   4.322  10.109 -0.7426 -0.1214 -0.1483
   33POPC   C22 4401   1.551   4.122  10.042 -0.4604  0.6030  0.1820
   33POPC   H2R 4402   1.465   4.160  10.101 -0.5741  1.2345 -0.3726
   33POPC   H2S 4403   1.560   4.015  10.072 -2.3051  0.1950 -0.5826
   33POPC    C3 4404   2.011   4.096  10.172  0.6308  0.0291  0.2362
   33POPC    HX 4405   2.001   4.008  10.239 -0.9535 -1.3115 -1.6860
   33POPC    HY 4406   2.090   4.164  10.212 -0.2823  0.5645  1.1755
   33POPC   O31 4407   2.032   4.075  10.028  0.2082  0.0047 -0.2171
   33POPC   C31 4408   2.062   3.949   9.990 -0.5381 -0.1912  0.8571
   33POPC   O32 4409   2.089   3.859  10.071 -0.8211 -0.2660  0.3412
   33POPC   C32 4410   2.048   3.936   9.841  0.0868  0.1915 -0.4622
   33POPC   H2X 4411   2.124   4.009   9.807 -1.3104  2.2393  0.6366
   33POPC   H2Y 4412   1.947   3.968   9.807 -0.0581 -0.4637 -0.6811
   33POPC   C23 4413   1.528   4.142   9.890  0.1087  0.4092  0.5385
   33POPC   H3R 4414   1.534   4.247   9.856 -0.1402  0.5734  0.9954
   33POPC   H3S 4415   1.427   4.096   9.878 -0.0566  0.0478  2.8188
   33POPC   C24 4416   1.645   4.075   9.820 -0.1270 -0.1802  0.1479
   33POPC   H4R 4417   1.676   3.987   9.881 -0.3936 -0.7906 -0.5844
   33POPC   H4S 4418   1.734   4.141   9.816  1.7216 -2.4299  1.5103
   33POPC   C25 4419   1.615   4.051   9.675 -0.0473  0.0192 -0.0031
   33POPC   H5R 4420   1.512   4.013   9.663 -0.3049  0.5600  0.4768
   33POPC   H5S 4421   1.691   3.978   9.640 -0.6213 -1.2007  1.2017
   33POPC   C26 4422   1.611   4.185   9.591 -0.0268 -0.3152  0.3884
   33POPC   H6R 4423   1.710   4.235   9.589  0.7051 -1.6954 -0.1142
   33POPC   H6S 4424   1.543   4.255   9.643  0.7060  0.2804  0.5539
   33POPC   C27 4425   1.569   4.164   9.450 -0.0213  0.0872  0.5305
   33POPC   H7R 4426   1.576   4.259   9.392  1.3706 -0.6373 -0.5550
   33POPC   H7S 4427   1.459   4.148   9.453 -0.3132  1.5859 -0.7426
   33POPC   C28 4428   1.645   4.059   9.372 -0.6947 -0.5084 -0.3847
   33POPC   H8R 4429   1.641   3.958   9.418 -1.4026  0.2755  1.3952
   33POPC   H8S 4430   1.751   4.091   9.377 -1.5561  3.1040 -2.1551
   33POPC   C29 4431   1.603   4.046   9.233  0.0866  0.1883 -0.7832
   33POPC   H91 4432   1.497   4.023   9.214  0.4218 -0.9954 -1.3192
   33POPC  C210 4433   1.673   4.065   9.121 -0.1530 -0.2244 -0.4425
   33POPC  H101 4434   1.616   4.045   9.029  0.8214  1.4480 -1.4615
   33POPC  C211 4435   1.817   4.107   9.093  0.0779  0.2660  0.2410
   33POPC  H11R 4436   1.889   4.024   9.077  0.7690  0.9025 -0.0032
   33POPC  H11S 4437   1.850   4.165   9.182 -0.7700  1.4688 -0.2042
   33POPC  C212 4438   1.816   4.197   8.969  0.2684  0.0174  0.4327
   33POPC  H12R 4439   1.786   4.293   9.017  0.5712 -0.5168  1.7465
   33POPC  H12S 4440   1.732   4.173   8.901 -0.2167  0.8972  0.6995
   33POPC  C213 4441   1.943   4.212   8.890  0.1661 -0.3198 -0.3023
   33POPC  H13R 4442   1.970   4.110   8.854  1.2468 -0.1900  0.1022
   33POPC  H13S 4443   2.015   4.244   8.968 -0.4057  1.1408 -0.3391
   33POPC  C214 4444   1.927   4.312   8.773  0.1179 -0.1356 -0.7864
   33POPC  H14R 4445   1.820   4.344   8.763 -0.1720 -1.3404 -1.7565
   33POPC  H14S 4446   1.953   4.266   8.676  1.1780  1.0083 -1.0645
   33POPC  C215 4447   2.011   4.442   8.772  0.0681  0.3437 -0.6524
   33POPC  H15R 4448   2.121   4.430   8.776  0.1978  0.6441 -2.5144
   33POPC  H15S 4449   1.988   4.505   8.861  3.6309 -2.4961  2.6032
   33POPC  C216 4450   1.989   4.539   8.651  0.9956  0.0634  0.4168
   33POPC  H16R 4451   2.059   4.621   8.678  0.7828 -0.2029  1.8663
   33POPC  H16S 4452   1.887   4.580   8.654  0.2910 -1.6033  0.5425
   33POPC  C217 4453   2.012   4.475   8.516  0.1645  0.3924 -0.3849
   33POPC  H17R 4454   1.948   4.388   8.490  1.1146 -0.4424  0.0138
   33POPC  H17S 4455   2.107   4.418   8.515 -1.1113 -1.8802  0.7928
   33POPC  C218 4456   2.020   4.578   8.401 -0.1928 -0.7218 -0.1959
   33POPC  H18R 4457   1.927   4.631   8.373  0.6561  0.1380 -1.4750
   33POPC  H18S 4458   2.047   4.526   8.306  0.4760  0.2114 -0.5373
   33POPC  H18T 4459   2.106   4.645   8.422 -1.0588  1.1903 -2.3888
   33POPC   C33 4460   2.074   3.801   9.776 -0.5312  0.6901 -0.2884
   33POPC   H3X 4461   1.989   3.730   9.789  0.6448 -0.6339  0.5053
   33POPC   H3Y 4462   2.161   3.756   9.828 -0.4133 -0.7919 -1.6762
   33POPC   C34 4463   2.097   3.814   9.626 -0.3419 -0.9398 -0.6827
   33POPC   H4X 4464   2.116   3.715   9.580 -0.3096 -1.5025  0.4875
   33POPC   H4Y 4465   2.187   3.878   9.611 -1.8580  1.7264  0.7834
   33POPC   C35 4466   1.982   3.868   9.541  0.0358 -0.1702  0.0438
   33POPC   H5X 4467   1.956   3.972   9.571  1.2428  0.1889 -0.1363
   33POPC   H5Y 4468   1.892   3.815   9.580 -1.0078  0.5181 -1.3447
   33POPC   C36 4469   1.998   3.839   9.388 -0.6559 -0.4480 -0.2673
   33POPC   H6X 4470   1.914   3.891   9.338  0.6199  0.0183 -1.9868
   33POPC   H6Y 4471   1.975   3.731   9.378 -5.5823  0.3924 -0.5464
   33POPC   C37 4472   2.130   3.888   9.331  0.1027  0.4479 -0.2970
   33POPC   H7X 4473   2.211   3.839   9.389 -0.1776 -0.4465 -0.6404
   33POPC   H7Y 4474   2.153   3.996   9.341  1.8757 -0.0585  1.6139
   33POPC   C38 4475   2.141   3.852   9.187 -0.2944  0.1794  0.0923
   33POPC   H8X 4476   2.066   3.899   9.120 -2.0529  0.4669  2.1483
   33POPC   H8Y 4477   2.142   3.741   9.185  3.5903  0.0834  0.1037
   33POPC   C39 4478   2.270   3.903   9.124 -0.3564 -0.0403 -0.0151
   33POPC   H9X 4479   2.352   3.842   9.169 -0.3519 -1.6603 -2.0797
   33POPC   H9Y 4480   2.301   4.005   9.154 -0.3630 -0.2896  0.8821
   33POPC  C310 4481   2.268   3.895   8.970  0.4143  0.0937 -0.0829
   33POPC  H10X 4482   2.227   3.995   8.941  0.0711 -0.6660 -2.4392
   33POPC  H10Y 4483   2.193   3.820   8.939  0.4786 -0.0536  0.1196
   33POPC  C311 4484   2.407   3.874   8.899 -0.7804 -0.3846  0.5730
   33POPC  H11X 4485   2.444   3.771   8.921 -0.6576 -0.3204  0.6596
   33POPC  H11Y 4486   2.462   3.952   8.954  2.5322 -2.1286 -0.0075
   33POPC  C312 4487   2.421   3.891   8.747 -0.3555 -0.8564  0.4690
   33POPC  H12X 4488   2.327   3.937   8.709 -1.6047 -1.2783  2.8554
   33POPC  H12Y 4489   2.412   3.797   8.689 -0.7548 -1.5261  1.5697
   33POPC  C313 4490   2.557   3.955   8.698 -0.1195 -0.1974  0.5214
   33POPC  H13X 4491   2.641   3.892   8.735 -0.0152  0.7116  1.8939
   33POPC  H13Y 4492   2.567   4.059   8.735  0.4578  0.6134 -1.7607
   33POPC  C314 4493   2.565   3.956   8.546 -0.8085 -0.5193  0.3057
   33POPC  H14X 4494   2.478   4.014   8.509  0.3252  2.1885  1.6130
   33POPC  H14Y 4495   2.557   3.850   8.513 -0.2396 -0.3986 -0.2416
   33POPC  C315 4496   2.692   4.025   8.496 -0.1852 -0.2660  0.4812
   33POPC  H15X 4497   2.734   4.105   8.561  1.6261 -0.3809 -0.5076
   33POPC  H15Y 4498   2.671   4.060   8.392  0.5969 -0.7604  0.1564
   33POPC  C316 4499   2.807   3.930   8.472  0.3979 -0.2954  0.2492
   33POPC  H16X 4500   2.774   3.850   8.403  1.4018  0.2478 -0.8939
   33POPC  H16Y 4501   2.845   3.898   8.571 -0.6470  1.3251  1.2333
   33POPC  H16Z 4502   2.886   3.988   8.420 -1.5012  2.0191 -0.2535
   34POPC     N 4503   1.418   6.326  10.839  0.4432  0.9024 -0.3512
   34POPC   C12 4504   1.499   6.208  10.892  0.2924 -0.6227 -0.1034
   34POPC  H12A 4505   1.552   6.228  10.984  1.0429 -2.7981 -0.0101
   34POPC  H12B 4506   1.572   6.193  10.814  1.0798 -1.2252  0.7273
   34POPC   C13 4507   1.501   6.446  10.857  0.3096  0.0843  0.5584
   34POPC  H13A 4508   1.598   6.433  10.812 -1.2645 -1.4170 -2.6885
   34POPC  H13B 4509   1.450   6.527  10.808 -0.5302  0.3598  1.8437
   34POPC  H13C 4510   1.512   6.473  10.961  0.4424  0.7323  0.3769
   34POPC   C14 4511   1.375   6.308  10.696 -0.7391  0.0758  0.0509
   34POPC  H14A 4512   1.450   6.337  10.625 -2.6490  0.8412 -1.7413
   34POPC  H14B 4513   1.346   6.205  10.683  0.3817 -0.6117  2.4552
   34POPC  H14C 4514   1.297   6.378  10.672  1.1759  2.1689 -0.4109
   34POPC   C15 4515   1.288   6.351  10.912  0.5151 -0.3639  0.3151
   34POPC  H15A 4516   1.318   6.366  11.015  0.3258 -0.4069  0.3770
   34POPC  H15B 4517   1.216   6.270  10.907  0.5715 -0.6811  2.9467
   34POPC  H15C 4518   1.230   6.440  10.894 -1.7467 -1.1304  2.9589
   34POPC   C11 4519   1.423   6.075  10.899 -0.6906 -0.0657 -0.1993
   34POPC  H11A 4520   1.333   6.090  10.963 -0.5478  2.0713 -0.4149
   34POPC  H11B 4521   1.478   6.000  10.961  0.3486  0.8273  0.0008
   34POPC     P 4522   1.280   5.912  10.756 -0.0563  0.1112 -0.2946
   34POPC   O13 4523   1.141   5.972  10.786 -0.4516 -0.0968  0.5841
   34POPC   O14 4524   1.319   5.783  10.822  0.4373 -0.2983 -0.3133
   34POPC   O12 4525   1.393   6.021  10.769 -0.0438  0.4936 -0.1023
   34POPC   O11 4526   1.282   5.886  10.600 -0.2265 -0.1771 -0.1488
   34POPC    C1 4527   1.401   5.850  10.539  0.0060 -0.4104 -0.3505
   34POPC    HA 4528   1.472   5.796  10.606 -0.3535 -1.0562 -0.4918
   34POPC    HB 4529   1.447   5.937  10.486  1.0784 -1.0516 -0.5012
   34POPC    C2 4530   1.387   5.747  10.424 -0.4026  0.2471  0.3222
   34POPC    HS 4531   1.480   5.723  10.368 -0.5008 -0.6895  0.5477
   34POPC   O21 4532   1.273   5.785  10.344  0.2998  0.3985  0.0788
   34POPC   C21 4533   1.297   5.879  10.249 -0.4570  0.0866 -0.1500
   34POPC   O22 4534   1.407   5.917  10.217 -0.8696  0.5044  0.4376
   34POPC   C22 4535   1.167   5.914  10.189  0.7358  0.1427 -0.0466
   34POPC   H2R 4536   1.118   5.983  10.261  2.5167  0.2578  1.1296
   34POPC   H2S 4537   1.100   5.827  10.171 -1.1049  1.9892 -2.8196
   34POPC    C3 4538   1.338   5.614  10.487 -0.0887 -0.4809 -0.2169
   34POPC    HX 4539   1.258   5.631  10.562 -0.6312 -1.8334 -0.4736
   34POPC    HY 4540   1.419   5.569  10.548 -0.7596  0.1227  1.1607
   34POPC   O31 4541   1.284   5.525  10.389 -0.0872 -0.2394 -0.3305
   34POPC   C31 4542   1.367   5.434  10.340 -0.7357  0.2783  0.4578
   34POPC   O32 4543   1.484   5.436  10.380 -0.2626 -0.3124  0.2673
   34POPC   C32 4544   1.308   5.367  10.222 -0.4476  0.3098  0.8206
   34POPC   H2X 4545   1.252   5.279  10.259 -0.5131  0.6268  1.4918
   34POPC   H2Y 4546   1.398   5.335  10.166  0.3011  1.6636  1.1820
   34POPC   C23 4547   1.191   5.967  10.049  0.0304  0.3382 -0.2878
   34POPC   H3R 4548   1.102   5.964   9.983  1.2213  0.7360 -1.9831
   34POPC   H3S 4549   1.270   5.920   9.986 -0.1791 -0.1520 -0.1849
   34POPC   C24 4550   1.235   6.119  10.054  0.0657  0.0068 -0.1855
   34POPC   H4R 4551   1.307   6.132  10.138  0.2004  1.0142 -0.4349
   34POPC   H4S 4552   1.145   6.182  10.071 -0.4358  0.0396 -2.5731
   34POPC   C25 4553   1.314   6.174   9.931  0.5365 -0.8200 -0.4177
   34POPC   H5R 4554   1.414   6.125   9.928  1.6636  1.4044 -1.4886
   34POPC   H5S 4555   1.331   6.283   9.947 -0.0545 -0.8886  0.7765
   34POPC   C26 4556   1.232   6.152   9.801 -0.5499  0.2290  0.5687
   34POPC   H6R 4557   1.135   6.203   9.821 -1.3312 -0.4091 -1.3747
   34POPC   H6S 4558   1.214   6.047   9.770  3.9068 -0.6988  0.4692
   34POPC   C27 4559   1.304   6.225   9.687 -0.0064 -0.0963  0.3178
   34POPC   H7R 4560   1.388   6.167   9.642  1.2948  1.4426  0.6733
   34POPC   H7S 4561   1.361   6.309   9.732  0.6284 -0.2035 -0.2573
   34POPC   C28 4562   1.207   6.285   9.581 -0.2302 -0.0085  0.0764
   34POPC   H8R 4563   1.269   6.323   9.497  0.4830  1.2461  1.1469
   34POPC   H8S 4564   1.153   6.367   9.631 -0.6214 -1.6275  2.4575
   34POPC   C29 4565   1.095   6.198   9.539 -0.0333 -0.4076  0.1780
   34POPC   H91 4566   1.066   6.124   9.615 -0.6637  0.0206  0.3605
   34POPC  C210 4567   1.027   6.189   9.423 -0.1586 -0.1094  0.2487
   34POPC  H101 4568   0.957   6.105   9.417  0.5468 -0.7271  0.5969
   34POPC  C211 4569   1.052   6.284   9.310 -0.1536 -0.3396 -0.4495
   34POPC  H11R 4570   1.124   6.242   9.237  1.2758  0.6173  0.3448
   34POPC  H11S 4571   1.088   6.387   9.331  0.1542 -0.1900 -1.6483
   34POPC  C212 4572   0.921   6.291   9.217 -0.3175  0.4181  0.4027
   34POPC  H12R 4573   0.838   6.314   9.287  0.1582 -2.3868  2.0347
   34POPC  H12S 4574   0.898   6.199   9.160 -0.7981  1.0790 -0.5063
   34POPC  C213 4575   0.918   6.409   9.116 -0.2456 -0.1446  0.0155
   34POPC  H13R 4576   0.930   6.509   9.163 -0.8755  0.8220 -1.7768
   34POPC  H13S 4577   0.821   6.411   9.062 -0.0487 -1.4080 -0.4045
   34POPC  C214 4578   1.027   6.388   9.012 -0.0690  0.5566 -0.3237
   34POPC  H14R 4579   1.033   6.281   8.983  3.8859  0.8329 -1.1393
   34POPC  H14S 4580   1.129   6.396   9.056  0.2145 -0.9123 -0.6440
   34POPC  C215 4581   0.995   6.479   8.886 -0.2806  0.0227  0.0165
   34POPC  H15R 4582   1.025   6.582   8.916  0.9127 -0.1425 -0.5369
   34POPC  H15S 4583   0.887   6.466   8.866 -0.0657 -1.5854 -0.2194
   34POPC  C216 4584   1.092   6.444   8.772 -0.3120  0.0133 -0.7213
   34POPC  H16R 4585   1.060   6.348   8.728 -0.7808  0.1580 -0.6986
   34POPC  H16S 4586   1.189   6.435   8.825  0.2475 -1.0954 -1.8881
   34POPC  C217 4587   1.112   6.551   8.666 -0.1862 -0.0034  0.1392
   34POPC  H17R 4588   1.131   6.649   8.715  3.7212 -0.1343 -0.7735
   34POPC  H17S 4589   1.018   6.564   8.608  0.2778  0.6327 -0.4956
   34POPC  C218 4590   1.215   6.499   8.569 -0.7112 -0.2948 -0.6464
   34POPC  H18R 4591   1.267   6.577   8.510  0.1232 -1.1012 -1.0063
   34POPC  H18S 4592   1.173   6.418   8.505 -1.6790  0.2998 -0.7946
   34POPC  H18T 4593   1.299   6.455   8.626  0.3094  1.3064 -0.8483
   34POPC   C33 4594   1.218   5.457  10.130  0.3645 -0.1955  0.0398
   34POPC   H3X 4595   1.137   5.503  10.190  0.7618  1.2064 -0.4506
   34POPC   H3Y 4596   1.171   5.384  10.061 -1.2340 -0.1668  1.0518
   34POPC   C34 4597   1.312   5.556  10.043  0.2193 -0.2592 -0.2760
   34POPC   H4X 4598   1.404   5.500  10.017  1.2753  1.8911 -1.3639
   34POPC   H4Y 4599   1.347   5.642  10.104 -1.3594 -0.0035  0.3156
   34POPC   C35 4600   1.243   5.616   9.919 -0.2836  0.7068  0.4595
   34POPC   H5X 4601   1.171   5.694   9.953  1.3077  1.8433  1.3796
   34POPC   H5Y 4602   1.188   5.532   9.871 -1.4349  0.7045  1.7229
   34POPC   C36 4603   1.345   5.684   9.823 -0.2955 -0.4541  0.2538
   34POPC   H6X 4604   1.423   5.608   9.801 -1.1392 -0.8447 -1.5704
   34POPC   H6Y 4605   1.395   5.776   9.860 -0.6230  0.1670 -0.8029
   34POPC   C37 4606   1.285   5.718   9.691 -0.1765  0.1436 -0.6698
   34POPC   H7X 4607   1.199   5.786   9.710 -0.7265 -0.2758 -1.5659
   34POPC   H7Y 4608   1.254   5.622   9.644  2.2645 -0.8493 -0.3961
   34POPC   C38 4609   1.382   5.783   9.589  0.1516 -0.7294 -0.3961
   34POPC   H8X 4610   1.466   5.717   9.558  0.1637 -0.8033 -0.2061
   34POPC   H8Y 4611   1.420   5.876   9.637 -0.6869 -0.0357 -1.0589
   34POPC   C39 4612   1.303   5.823   9.464 -0.1178 -0.2400  0.3634
   34POPC   H9X 4613   1.216   5.884   9.497  0.7892  1.3569 -0.0966
   34POPC   H9Y 4614   1.267   5.735   9.407  0.1998 -0.1481  0.0200
   34POPC  C310 4615   1.382   5.910   9.365 -0.3711 -0.4871 -0.1643
   34POPC  H10X 4616   1.472   5.857   9.327 -0.8891 -1.5203  0.0037
   34POPC  H10Y 4617   1.417   5.998   9.423 -0.2142  0.0473 -1.0523
   34POPC  C311 4618   1.293   5.955   9.251 -0.0377 -0.0417 -0.6310
   34POPC  H11X 4619   1.208   6.019   9.282 -2.8194 -1.3589 -4.6239
   34POPC  H11Y 4620   1.255   5.862   9.204  1.9821 -0.3660 -1.7470
   34POPC  C312 4621   1.356   6.053   9.140 -1.0089  0.4379 -0.1940
   34POPC  H12X 4622   1.277   6.085   9.069  1.2550  3.6698 -1.4869
   34POPC  H12Y 4623   1.431   5.990   9.088  0.8061  1.5884  0.9169
   34POPC  C313 4624   1.419   6.190   9.195  0.5772  0.2016  0.4226
   34POPC  H13X 4625   1.485   6.160   9.280 -0.2348 -0.6665  0.7608
   34POPC  H13Y 4626   1.333   6.252   9.226  0.5824 -0.0292  0.9192
   34POPC  C314 4627   1.492   6.260   9.079  0.0408  0.6108  0.8210
   34POPC  H14X 4628   1.419   6.257   8.996  0.9616 -0.2791  0.0283
   34POPC  H14Y 4629   1.585   6.203   9.062 -1.4892 -2.1478  1.1932
   34POPC  C315 4630   1.532   6.400   9.119  0.5681 -0.1203  0.1112
   34POPC  H15X 4631   1.618   6.398   9.189  2.1447 -0.0657 -1.7174
   34POPC  H15Y 4632   1.440   6.435   9.171 -0.1971  0.0934 -1.3235
   34POPC  C316 4633   1.562   6.491   8.993 -0.3126  0.2743  0.4657
   34POPC  H16X 4634   1.647   6.449   8.936  0.5529  1.1485  1.0805
   34POPC  H16Y 4635   1.605   6.586   9.032 -0.7138  0.2663  0.9439
   34POPC  H16Z 4636   1.480   6.498   8.918 -0.1231 -0.0437  0.2280
   35POPC     N 4637   6.010   1.364  11.498 -0.5804  0.1604 -0.5225
   35POPC   C12 4638   5.954   1.459  11.398  0.1867 -0.6251 -0.2475
   35POPC  H12A 4639   5.982   1.559  11.428 -1.6307 -0.5765  1.4801
   35POPC  H12B 4640   5.847   1.466  11.400  0.1769 -0.7739 -0.2345
   35POPC   C13 4641   5.947   1.228  11.489 -0.6561 -0.3376  0.2422
   35POPC  H13A 4642   5.991   1.167  11.412  0.6260 -0.7697  1.2854
   35POPC  H13B 4643   5.941   1.178  11.585 -0.8779 -3.2009 -1.1397
   35POPC  H13C 4644   5.844   1.242  11.459 -0.8905 -1.0537  0.6925
   35POPC   C14 4645   6.156   1.345  11.485 -0.6009 -0.6375 -0.0996
   35POPC  H14A 4646   6.197   1.268  11.547 -2.0703 -2.2293 -1.0153
   35POPC  H14B 4647   6.190   1.305  11.391  1.9348 -0.2759  0.6001
   35POPC  H14C 4648   6.200   1.440  11.513 -0.6554 -1.1213  1.7822
   35POPC   C15 4649   5.985   1.423  11.632 -0.1278 -0.5570 -0.2959
   35POPC  H15A 4650   6.038   1.515  11.652 -0.4670 -0.1381 -1.2375
   35POPC  H15B 4651   6.013   1.354  11.710  0.2834  0.8982  0.8826
   35POPC  H15C 4652   5.881   1.452  11.641  0.2499  0.3370  1.5690
   35POPC   C11 4653   5.987   1.428  11.252 -0.2084 -0.2645  0.4967
   35POPC  H11A 4654   5.922   1.496  11.193  0.6359  0.3629  0.2493
   35POPC  H11B 4655   5.959   1.322  11.237  2.0718 -1.2077  2.2477
   35POPC     P 4656   6.217   1.551  11.183 -0.0396 -0.0453  0.6717
   35POPC   O13 4657   6.348   1.503  11.131  0.0944 -0.1600  0.1645
   35POPC   O14 4658   6.222   1.654  11.286 -0.5106  1.0112  0.4825
   35POPC   O12 4659   6.125   1.430  11.216  0.3602 -0.1867 -0.0327
   35POPC   O11 4660   6.134   1.613  11.059 -0.5198  0.1853  0.1140
   35POPC    C1 4661   6.095   1.544  10.940 -0.7996 -0.0759  0.0551
   35POPC    HA 4662   5.996   1.586  10.911 -1.1947 -0.0896  1.3482
   35POPC    HB 4663   6.089   1.433  10.941  0.8712 -0.5603 -5.6025
   35POPC    C2 4664   6.193   1.578  10.820  0.2406  1.7799 -0.0938
   35POPC    HS 4665   6.295   1.556  10.858 -0.4212 -0.0599  0.7187
   35POPC   O21 4666   6.185   1.714  10.780 -0.0677  0.0622 -0.2209
   35POPC   C21 4667   6.287   1.758  10.698 -0.5107 -0.6992 -0.5526
   35POPC   O22 4668   6.376   1.689  10.653 -0.5666  0.4418 -0.4413
   35POPC   C22 4669   6.255   1.899  10.656  0.2769  0.2550 -0.1679
   35POPC   H2R 4670   6.350   1.955  10.641  0.2965 -0.2894 -2.4382
   35POPC   H2S 4671   6.200   1.945  10.741  2.4154  0.4208  1.1976
   35POPC    C3 4672   6.160   1.477  10.705 -0.8760 -0.0442 -1.0395
   35POPC    HX 4673   6.176   1.373  10.741  0.3347  0.5998  0.3742
   35POPC    HY 4674   6.231   1.512  10.627  0.9317 -0.4399  0.3742
   35POPC   O31 4675   6.030   1.506  10.645 -0.0616 -0.5187  0.2832
   35POPC   C31 4676   5.958   1.401  10.619 -0.0786 -0.3050 -0.0234
   35POPC   O32 4677   5.979   1.285  10.661 -0.7953  0.2789  0.2716
   35POPC   C32 4678   5.849   1.439  10.529  0.1990  0.6141  0.0356
   35POPC   H2X 4679   5.754   1.462  10.582  0.3203  1.1164  0.0440
   35POPC   H2Y 4680   5.828   1.348  10.469 -0.8385  0.2856  0.8639
   35POPC   C23 4681   6.168   1.905  10.528 -0.5977 -0.7638 -0.2942
   35POPC   H3R 4682   6.125   2.005  10.508  0.5768 -0.2213 -0.2189
   35POPC   H3S 4683   6.081   1.838  10.541 -1.8766  0.3561 -2.5266
   35POPC   C24 4684   6.236   1.861  10.394  0.1016  0.7809 -0.9122
   35POPC   H4R 4685   6.276   1.759  10.412  0.2538  0.1108 -4.3698
   35POPC   H4S 4686   6.321   1.931  10.383  0.6568  0.1475 -0.7162
   35POPC   C25 4687   6.137   1.875  10.280 -0.2519  0.1192  0.0017
   35POPC   H5R 4688   6.091   1.974  10.257  0.2967  0.0378 -1.6108
   35POPC   H5S 4689   6.055   1.804  10.304  0.6426 -1.4180 -1.2590
   35POPC   C26 4690   6.212   1.818  10.158 -0.4026 -0.4074 -0.0006
   35POPC   H6R 4691   6.235   1.712  10.185  1.2453  0.5518  2.6759
   35POPC   H6S 4692   6.307   1.870  10.135  1.9500 -3.9776  0.7830
   35POPC   C27 4693   6.121   1.799  10.030 -0.5082  0.6325  0.3377
   35POPC   H7R 4694   6.078   1.896   9.997 -0.0704  0.4904 -0.6877
   35POPC   H7S 4695   6.040   1.729  10.059  0.2873 -0.6069 -0.3445
   35POPC   C28 4696   6.198   1.737   9.911  0.0510  0.1191  0.1575
   35POPC   H8R 4697   6.256   1.652   9.954  0.6378 -0.2647 -1.3267
   35POPC   H8S 4698   6.266   1.809   9.862  0.4895  0.4196  1.1695
   35POPC   C29 4699   6.099   1.683   9.814  0.9097  0.5665 -0.3744
   35POPC   H91 4700   6.087   1.739   9.720 -2.4616 -1.7999 -1.5554
   35POPC  C210 4701   6.014   1.578   9.822  0.4086 -0.0961 -0.6591
   35POPC  H101 4702   5.935   1.560   9.748  0.3693  1.2167 -0.9583
   35POPC  C211 4703   5.985   1.481   9.929  0.4329 -0.3205  0.8649
   35POPC  H11R 4704   5.879   1.500   9.955 -0.3503  0.7351 -2.5870
   35POPC  H11S 4705   6.037   1.501  10.026  0.7277 -0.7796  0.8030
   35POPC  C212 4706   6.027   1.334   9.904 -0.2843  1.0170 -0.0821
   35POPC  H12R 4707   6.136   1.328   9.886 -0.3805  0.9090 -0.6589
   35POPC  H12S 4708   5.970   1.295   9.817 -2.9095  2.5826  0.8163
   35POPC  C213 4709   5.981   1.242  10.009  0.2095  0.3556  0.2286
   35POPC  H13R 4710   5.999   1.140   9.971  1.8644  0.8306 -0.3534
   35POPC  H13S 4711   5.871   1.250  10.022  0.3564  1.7870  0.8004
   35POPC  C214 4712   6.048   1.260  10.151 -0.1478 -0.4850 -0.2895
   35POPC  H14R 4713   6.013   1.357  10.191 -1.0390  0.2486 -2.6600
   35POPC  H14S 4714   6.158   1.264  10.142 -0.0509  1.9679  1.2837
   35POPC  C215 4715   5.999   1.155  10.246  0.0235  0.1796 -0.1738
   35POPC  H15R 4716   6.009   1.062  10.186  1.7300  0.6869 -0.7195
   35POPC  H15S 4717   5.889   1.167  10.263 -0.6781 -2.8131 -1.8870
   35POPC  C216 4718   6.067   1.127  10.381  0.1698  0.6492  1.0359
   35POPC  H16R 4719   6.085   1.214  10.448  0.5594  0.2242  1.4957
   35POPC  H16S 4720   6.165   1.102  10.337 -0.3300  1.7134 -0.7826
   35POPC  C217 4721   6.007   1.009  10.467 -0.3466  0.3799 -0.1761
   35POPC  H17R 4722   6.011   0.928  10.391  0.8458 -0.5801  0.8461
   35POPC  H17S 4723   5.900   1.016  10.497  0.1333  0.2633  1.7066
   35POPC  C218 4724   6.100   0.963  10.588 -0.0125 -0.0038  0.2254
   35POPC  H18R 4725   6.108   1.040  10.668 -1.6786 -1.3058  1.7311
   35POPC  H18S 4726   6.204   0.945  10.553 -0.0891  0.1650 -0.0905
   35POPC  H18T 4727   6.066   0.867  10.634 -0.8318 -0.0674 -0.4885
   35POPC   C33 4728   5.892   1.543  10.427  0.4005 -0.6423 -0.0786
   35POPC   H3X 4729   5.985   1.515  10.373 -0.8826  0.5997 -3.1186
   35POPC   H3Y 4730   5.902   1.645  10.470 -1.2868 -0.1103 -0.8714
   35POPC   C34 4731   5.797   1.539  10.304  0.4299 -0.5927 -0.6924
   35POPC   H4X 4732   5.695   1.534  10.349 -0.3908  0.4673 -2.3618
   35POPC   H4Y 4733   5.808   1.445  10.246 -2.0200  0.1474 -2.5229
   35POPC   C35 4734   5.810   1.666  10.219  0.0461 -0.5634  0.5389
   35POPC   H5X 4735   5.902   1.639  10.162 -0.4524  0.3822 -0.7700
   35POPC   H5Y 4736   5.837   1.754  10.280  0.7078 -0.3158 -0.0910
   35POPC   C36 4737   5.693   1.688  10.131  0.3278 -0.1437  0.6200
   35POPC   H6X 4738   5.604   1.713  10.194 -0.5473 -1.5398  0.0074
   35POPC   H6Y 4739   5.658   1.601  10.071 -1.4346  0.8831  0.0601
   35POPC   C37 4740   5.725   1.791  10.022 -1.0616 -0.3019 -0.0348
   35POPC   H7X 4741   5.789   1.743   9.945 -0.1999 -0.2336  0.6265
   35POPC   H7Y 4742   5.797   1.867  10.061  0.7634 -0.9671 -1.9345
   35POPC   C38 4743   5.604   1.861   9.948 -0.2241  0.5487  0.3124
   35POPC   H8X 4744   5.550   1.905  10.035  0.7850  1.1866  0.6263
   35POPC   H8Y 4745   5.548   1.777   9.902  1.1689 -0.6979  0.8461
   35POPC   C39 4746   5.643   1.948   9.835 -0.5576 -0.0415  0.0254
   35POPC   H9X 4747   5.723   2.015   9.874 -2.2437  0.8511  2.1751
   35POPC   H9Y 4748   5.560   2.013   9.801 -0.1177  0.1325 -0.7368
   35POPC  C310 4749   5.691   1.882   9.713 -0.2032  0.2215  0.0918
   35POPC  H10X 4750   5.603   1.836   9.663 -2.2572  3.8705  0.0063
   35POPC  H10Y 4751   5.763   1.802   9.738  0.0620  0.0446 -1.1479
   35POPC  C311 4752   5.748   1.978   9.612 -0.2222  0.3272  0.2032
   35POPC  H11X 4753   5.830   2.040   9.654  0.0342 -0.7609  1.3784
   35POPC  H11Y 4754   5.672   2.058   9.606 -1.8870 -1.0891  1.2700
   35POPC  C312 4755   5.782   1.911   9.477 -0.4523 -0.1625 -0.2707
   35POPC  H12X 4756   5.848   1.973   9.413  1.4728 -0.8129  1.0090
   35POPC  H12Y 4757   5.693   1.905   9.410  0.5008  0.4278 -1.6311
   35POPC  C313 4758   5.847   1.770   9.491  0.5379  0.3222 -0.1952
   35POPC  H13X 4759   5.773   1.687   9.493  0.4898  0.3632 -0.2352
   35POPC  H13Y 4760   5.881   1.753   9.595 -2.4226 -0.2378  0.7910
   35POPC  C314 4761   5.940   1.736   9.378  0.4446 -0.2154 -0.0983
   35POPC  H14X 4762   5.992   1.638   9.389 -0.6126 -0.5563  2.5985
   35POPC  H14Y 4763   6.016   1.817   9.371 -1.1933  1.4902  0.9862
   35POPC  C315 4764   5.862   1.711   9.253  0.0531  0.4612 -0.0554
   35POPC  H15X 4765   5.805   1.803   9.228  0.6537  0.2860 -2.2086
   35POPC  H15Y 4766   5.797   1.622   9.271  1.5352 -0.8840 -1.1169
   35POPC  C316 4767   5.949   1.684   9.126  0.3336 -0.3980 -0.0429
   35POPC  H16X 4768   5.887   1.645   9.043 -2.6215  0.9541  1.3553
   35POPC  H16Y 4769   6.011   1.596   9.155  2.3699  1.3717  1.2438
   35POPC  H16Z 4770   6.019   1.767   9.104 -3.0666  2.4715 -0.9553
   36POPC     N 4771   0.326   1.151  11.200 -0.0218 -0.2981 -0.2259
   36POPC   C12 4772   0.284   1.261  11.098  1.4943 -0.5032 -0.6872
   36POPC  H12A 4773   0.353   1.342  11.076  0.4651  0.4659 -0.4458
   36POPC  H12B 4774   0.212   1.327  11.144  2.1954  0.1193 -0.4436
   36POPC   C13 4775   0.233   1.038  11.203  0.1867 -0.3297  0.8913
   36POPC  H13A 4776   0.137   1.077  11.234  0.4356 -0.6537  2.1044
   36POPC  H13B 4777   0.225   0.990  11.106  0.4022 -2.4417  1.8543
   36POPC  H13C 4778   0.261   0.962  11.274 -2.0300 -1.1919  0.9493
   36POPC   C14 4779   0.466   1.091  11.178 -0.8348  0.0078  0.0322
   36POPC  H14A 4780   0.458   1.038  11.085  0.5058  0.8245 -0.5860
   36POPC  H14B 4781   0.544   1.161  11.151  2.0321 -3.2274 -0.6894
   36POPC  H14C 4782   0.493   1.029  11.262  0.8131 -0.0807 -0.5309
   36POPC   C15 4783   0.328   1.217  11.338  0.3339  0.2852  0.3535
   36POPC  H15A 4784   0.410   1.287  11.346  1.9857 -1.3478 -1.1981
   36POPC  H15B 4785   0.322   1.137  11.411  0.7257 -1.0122 -0.9845
   36POPC  H15C 4786   0.242   1.279  11.357 -0.1685 -0.1706 -0.3659
   36POPC   C11 4787   0.239   1.214  10.958  0.4998 -0.0186  0.9316
   36POPC  H11A 4788   0.196   1.298  10.899 -2.0480 -2.0794 -0.4177
   36POPC  H11B 4789   0.146   1.152  10.966  1.5136 -1.3692  2.9666
   36POPC     P 4790   0.332   0.996  10.829  0.1234 -0.1534  0.0233
   36POPC   O13 4791   0.305   0.896  10.935 -0.4054 -0.3172 -0.2159
   36POPC   O14 4792   0.445   0.982  10.743  0.4949  0.6524 -0.0406
   36POPC   O12 4793   0.341   1.148  10.890 -0.0003  0.1250 -0.1060
   36POPC   O11 4794   0.207   1.000  10.732  0.1897  0.0825 -0.0531
   36POPC    C1 4795   0.171   1.091  10.638  0.3207 -0.0315  0.3542
   36POPC    HA 4796   0.178   1.199  10.667  0.4681 -0.0159  0.2577
   36POPC    HB 4797   0.071   1.059  10.601  0.5460 -0.4847  0.1332
   36POPC    C2 4798   0.262   1.064  10.510  0.0589 -1.1353 -0.4963
   36POPC    HS 4799   0.363   1.100  10.539 -0.7271  0.0454  0.9011
   36POPC   O21 4800   0.206   1.144  10.403  0.5045  0.2641 -0.4776
   36POPC   C21 4801   0.262   1.259  10.389 -0.2570 -0.7423  0.1897
   36POPC   O22 4802   0.335   1.317  10.471  0.1690 -0.2724 -1.0187
   36POPC   C22 4803   0.213   1.332  10.260 -0.8895  0.3978  0.0125
   36POPC   H2R 4804   0.286   1.409  10.227  0.9015 -0.3352  2.0350
   36POPC   H2S 4805   0.119   1.382  10.293 -1.2679 -0.8911  0.9776
   36POPC    C3 4806   0.271   0.918  10.464  0.3892 -0.3651  0.5061
   36POPC    HX 4807   0.172   0.900  10.416 -0.3386  1.7238  1.0993
   36POPC    HY 4808   0.294   0.852  10.551 -0.1727 -0.5147  0.5487
   36POPC   O31 4809   0.380   0.905  10.370  0.3454 -0.1912 -0.7762
   36POPC   C31 4810   0.385   0.781  10.328  0.6396  0.0344  0.2096
   36POPC   O32 4811   0.292   0.698  10.339  0.4749  0.1109 -0.3211
   36POPC   C32 4812   0.510   0.752  10.261 -0.1310 -0.0307  0.6406
   36POPC   H2X 4813   0.548   0.651  10.287 -0.2330  0.0478  1.0868
   36POPC   H2Y 4814   0.590   0.825  10.286  0.3441 -0.1473 -0.4463
   36POPC   C23 4815   0.181   1.240  10.134  0.1997 -0.8383 -0.1735
   36POPC   H3R 4816   0.120   1.155  10.171  1.4812 -0.9616  1.8111
   36POPC   H3S 4817   0.273   1.202  10.086  0.9701 -2.4895  2.3677
   36POPC   C24 4818   0.113   1.336  10.028  0.2192 -0.4333 -0.0398
   36POPC   H4R 4819   0.171   1.429  10.009  0.3667 -0.1238  1.7599
   36POPC   H4S 4820   0.016   1.376  10.066  0.7852  0.7657  0.2043
   36POPC   C25 4821   0.105   1.264   9.894  0.2740  0.0442 -0.6116
   36POPC   H5R 4822   0.047   1.169   9.900 -0.3707  0.3915 -1.2669
   36POPC   H5S 4823   0.208   1.224   9.883  0.0169 -0.6908 -0.3883
   36POPC   C26 4824   0.054   1.342   9.777  0.1949 -0.2960  0.9751
   36POPC   H6R 4825   0.124   1.427   9.763  1.9404 -1.7883  0.1580
   36POPC   H6S 4826  -0.043   1.388   9.806 -0.6422 -0.7855 -0.9194
   36POPC   C27 4827   0.036   1.242   9.658  0.1585  0.5328  0.8335
   36POPC   H7R 4828  -0.034   1.162   9.692 -0.1651 -0.1606 -1.3044
   36POPC   H7S 4829   0.134   1.194   9.640 -0.6916 -0.3881 -1.9584
   36POPC   C28 4830  -0.005   1.300   9.519  0.3886 -0.3965  0.1602
   36POPC   H8R 4831  -0.070   1.386   9.544  1.4180 -0.2341  2.5550
   36POPC   H8S 4832  -0.062   1.221   9.465  1.1140 -0.9893  0.2304
   36POPC   C29 4833   0.122   1.339   9.435 -0.4321 -0.2154 -0.7620
   36POPC   H91 4834   0.195   1.406   9.483 -0.0491 -0.0978 -1.5059
   36POPC  C210 4835   0.139   1.301   9.311 -0.4234 -0.4858  1.2635
   36POPC  H101 4836   0.233   1.333   9.265 -0.4396  0.3412  1.7695
   36POPC  C211 4837   0.052   1.218   9.224 -0.3026  0.0590  0.1348
   36POPC  H11R 4838  -0.015   1.155   9.286  0.1556  1.1088  1.7562
   36POPC  H11S 4839   0.113   1.137   9.176 -1.2076 -0.1308 -0.7302
   36POPC  C212 4840  -0.042   1.286   9.119 -0.6766  0.1092  0.4141
   36POPC  H12R 4841  -0.071   1.208   9.045  2.1420  0.4184 -1.1257
   36POPC  H12S 4842   0.018   1.366   9.070 -0.1259  1.1234  2.6308
   36POPC  C213 4843  -0.158   1.358   9.177  0.0541 -0.7164  0.3396
   36POPC  H13R 4844  -0.131   1.425   9.261  0.2013 -1.7321  1.1136
   36POPC  H13S 4845  -0.227   1.284   9.221  0.1385 -1.4194 -0.6638
   36POPC  C214 4846  -0.245   1.438   9.075 -0.2277  0.4762 -0.5793
   36POPC  H14R 4847  -0.261   1.382   8.980 -0.3682  0.4697 -0.5514
   36POPC  H14S 4848  -0.191   1.529   9.040 -0.3557  0.9621  0.4517
   36POPC  C215 4849  -0.376   1.482   9.135 -0.3033  0.3627  0.4619
   36POPC  H15R 4850  -0.445   1.395   9.133 -1.8351  1.5413  0.3519
   36POPC  H15S 4851  -0.431   1.558   9.074 -0.8611 -0.3140  0.1074
   36POPC  C216 4852  -0.368   1.539   9.280  0.0046 -0.3142 -0.5643
   36POPC  H16R 4853  -0.297   1.621   9.305 -1.8788  0.9102  1.1594
   36POPC  H16S 4854  -0.343   1.444   9.331  0.8588  0.1469 -0.1003
   36POPC  C217 4855  -0.505   1.593   9.319 -0.4511  0.1968  0.0890
   36POPC  H17R 4856  -0.580   1.512   9.304 -0.5612  0.3087  0.0268
   36POPC  H17S 4857  -0.533   1.674   9.247  1.7918 -0.4138 -1.5676
   36POPC  C218 4858  -0.507   1.630   9.470 -0.2483  0.1373  0.7180
   36POPC  H18R 4859  -0.598   1.687   9.496  1.1952  2.7521  0.3208
   36POPC  H18S 4860  -0.425   1.702   9.489 -0.6423  0.6086  0.6282
   36POPC  H18T 4861  -0.507   1.530   9.519 -3.4500  0.2336  1.1574
   36POPC   C33 4862   0.483   0.762  10.107  0.1905 -0.4276 -0.8807
   36POPC   H3X 4863   0.399   0.698  10.073 -1.0964  1.3563 -1.2523
   36POPC   H3Y 4864   0.571   0.733  10.045  1.5709 -2.3409  1.8155
   36POPC   C34 4865   0.455   0.912  10.064 -0.1389  0.5287 -0.0938
   36POPC   H4X 4866   0.361   0.951  10.109 -0.7203 -0.3605 -0.5041
   36POPC   H4Y 4867   0.435   0.893   9.956 -1.3995  2.7609 -0.3035
   36POPC   C35 4868   0.573   1.004  10.105  0.6448 -0.0985  0.6338
   36POPC   H5X 4869   0.671   0.970  10.066 -0.6862 -0.6683 -2.5047
   36POPC   H5Y 4870   0.578   1.022  10.214 -0.2563 -0.8323  0.8048
   36POPC   C36 4871   0.575   1.142  10.027  0.5298 -0.1583  0.1801
   36POPC   H6X 4872   0.663   1.199  10.064  1.2655 -1.2896  0.2152
   36POPC   H6Y 4873   0.487   1.203  10.057 -1.1088 -1.7068 -1.2476
   36POPC   C37 4874   0.580   1.138   9.875 -0.0273 -0.1662  0.1658
   36POPC   H7X 4875   0.498   1.078   9.831 -0.4253 -0.6159  1.5046
   36POPC   H7Y 4876   0.676   1.094   9.842  1.7828  1.8050  2.4285
   36POPC   C38 4877   0.574   1.279   9.814  0.3210 -0.1324  0.1526
   36POPC   H8X 4878   0.658   1.328   9.868  2.0080 -0.8522 -1.7102
   36POPC   H8Y 4879   0.476   1.327   9.837  1.9090  1.5095  4.5474
   36POPC   C39 4880   0.594   1.294   9.660  0.2884  1.0081 -0.1374
   36POPC   H9X 4881   0.520   1.229   9.609  2.4740 -1.0478 -0.9067
   36POPC   H9Y 4882   0.694   1.265   9.623  0.1522  1.6644 -1.0293
   36POPC  C310 4883   0.564   1.441   9.613 -0.3980  0.2416 -0.1832
   36POPC  H10X 4884   0.630   1.504   9.677  1.5390 -0.3208 -1.5507
   36POPC  H10Y 4885   0.457   1.470   9.628  0.1308  0.7034  3.9850
   36POPC  C311 4886   0.613   1.471   9.470 -0.2177 -0.5352  0.2467
   36POPC  H11X 4887   0.695   1.401   9.442 -1.5640 -1.5936 -1.2045
   36POPC  H11Y 4888   0.655   1.572   9.450  0.0223 -0.6588  0.1180
   36POPC  C312 4889   0.501   1.452   9.367 -0.2171  0.0197 -0.3678
   36POPC  H12X 4890   0.430   1.534   9.389  1.4281  1.1093  1.2235
   36POPC  H12Y 4891   0.446   1.358   9.387 -0.2563  0.2961  0.9128
   36POPC  C313 4892   0.559   1.450   9.216  0.7108 -0.0570 -0.5840
   36POPC  H13X 4893   0.633   1.368   9.213  0.4370 -0.6482  3.2971
   36POPC  H13Y 4894   0.620   1.542   9.204  0.4104  0.5750  1.9481
   36POPC  C314 4895   0.452   1.447   9.101  0.0424 -0.5861 -0.5284
   36POPC  H14X 4896   0.353   1.480   9.141  0.1251  0.6697 -1.3096
   36POPC  H14Y 4897   0.431   1.342   9.073 -1.3544 -0.0193 -1.7251
   36POPC  C315 4898   0.481   1.530   8.975  0.2980  0.5194  0.6396
   36POPC  H15X 4899   0.555   1.487   8.906 -0.2655 -2.0995  1.5621
   36POPC  H15Y 4900   0.504   1.636   8.999  0.6622  0.7316 -0.6075
   36POPC  C316 4901   0.348   1.536   8.895  0.0584 -0.1896  0.2248
   36POPC  H16X 4902   0.360   1.611   8.814  0.8573  0.6262  1.0796
   36POPC  H16Y 4903   0.265   1.565   8.963 -1.0664  1.8455 -1.8646
   36POPC  H16Z 4904   0.326   1.435   8.855  0.7114 -0.0990 -0.3892
   37POPC     N 4905   0.517   4.229   6.301  0.2880  0.1045 -0.1330
   37POPC   C12 4906   0.416   4.262   6.413 -0.3186  0.4228  0.7119
   37POPC  H12A 4907   0.325   4.308   6.378 -0.0060  2.1306  1.9990
   37POPC  H12B 4908   0.465   4.340   6.471 -0.0461  1.5083 -0.9199
   37POPC   C13 4909   0.645   4.160   6.345  0.2984  0.1099 -0.6284
   37POPC  H13A 4910   0.704   4.121   6.263  1.3002 -0.3065  0.2664
   37POPC  H13B 4911   0.715   4.221   6.401 -2.2179  1.4320  1.2578
   37POPC  H13C 4912   0.628   4.083   6.419  0.9723  1.9172  1.5042
   37POPC   C14 4913   0.442   4.141   6.214  1.1495  0.7837 -0.3406
   37POPC  H14A 4914   0.386   4.061   6.258 -0.6233  1.2991 -1.5215
   37POPC  H14B 4915   0.372   4.200   6.157 -0.2975 -3.3938 -3.3410
   37POPC  H14C 4916   0.515   4.086   6.156 -0.2802 -0.5073 -0.9873
   37POPC   C15 4917   0.550   4.356   6.230 -0.7971 -0.2008 -0.4404
   37POPC  H15A 4918   0.603   4.418   6.300 -1.1631  0.2006 -0.5133
   37POPC  H15B 4919   0.460   4.411   6.206 -0.2170  0.6830 -0.6641
   37POPC  H15C 4920   0.615   4.357   6.144  1.1891  0.0026  0.9847
   37POPC   C11 4921   0.380   4.145   6.506 -0.0831 -0.4818 -0.3728
   37POPC  H11A 4922   0.370   4.193   6.605 -1.1223  0.0250 -0.6996
   37POPC  H11B 4923   0.460   4.071   6.528 -1.0808 -1.7113 -0.7169
   37POPC     P 4924   0.122   4.151   6.478 -0.4888  0.1101  0.2677
   37POPC   O13 4925   0.017   4.053   6.485  0.1533  0.3100  0.1783
   37POPC   O14 4926   0.115   4.253   6.372 -0.3127  0.2714  0.5440
   37POPC   O12 4927   0.261   4.077   6.461  0.4184  0.5806 -0.2851
   37POPC   O11 4928   0.117   4.219   6.618 -0.1371 -0.2287 -0.2713
   37POPC    C1 4929   0.083   4.355   6.632 -0.2119 -0.2767 -0.1474
   37POPC    HA 4930  -0.024   4.347   6.660 -0.5754 -2.9010 -1.9816
   37POPC    HB 4931   0.096   4.409   6.536  2.0467 -3.6930 -1.9451
   37POPC    C2 4932   0.167   4.425   6.737  0.0384 -0.5678  1.1327
   37POPC    HS 4933   0.273   4.405   6.711 -0.2444  0.3312 -0.9348
   37POPC   O21 4934   0.135   4.370   6.864  0.1647  0.1198 -0.0858
   37POPC   C21 4935   0.202   4.262   6.901 -0.3892 -0.1331 -0.2010
   37POPC   O22 4936   0.297   4.210   6.846 -0.0288 -0.0339  0.1048
   37POPC   C22 4937   0.157   4.211   7.039 -0.0546  0.5349  0.3474
   37POPC   H2R 4938   0.094   4.121   7.020  0.3683  0.0897  0.9928
   37POPC   H2S 4939   0.106   4.297   7.088  0.5121  1.8883 -1.3448
   37POPC    C3 4940   0.127   4.577   6.735  0.3715 -0.6412  0.5271
   37POPC    HX 4941   0.023   4.585   6.696  1.4647 -0.7986 -2.6790
   37POPC    HY 4942   0.176   4.641   6.660 -2.7773  0.6160 -0.6460
   37POPC   O31 4943   0.138   4.636   6.860 -0.2030 -0.0623  0.0303
   37POPC   C31 4944   0.255   4.694   6.882 -0.4358  0.4942 -0.1436
   37POPC   O32 4945   0.341   4.715   6.796 -0.3431  0.7495 -0.3739
   37POPC   C32 4946   0.259   4.744   7.025 -0.2036 -0.3232  0.0316
   37POPC   H2X 4947   0.191   4.689   7.094  0.6622 -0.5746  0.6964
   37POPC   H2Y 4948   0.225   4.850   7.032  1.1928  0.2482 -1.3672
   37POPC   C23 4949   0.283   4.175   7.128 -0.1869 -0.6352 -0.9181
   37POPC   H3R 4950   0.337   4.098   7.068  0.2260  1.5257 -3.5367
   37POPC   H3S 4951   0.252   4.122   7.220  0.1198  0.2235 -0.3083
   37POPC   C24 4952   0.386   4.281   7.157  0.5791  0.3882 -0.0332
   37POPC   H4R 4953   0.419   4.317   7.058  1.8927 -1.7088 -0.4166
   37POPC   H4S 4954   0.475   4.232   7.200  1.0187  1.8111  0.7661
   37POPC   C25 4955   0.335   4.391   7.250 -0.3601 -0.2597  0.3578
   37POPC   H5R 4956   0.266   4.456   7.192  1.0115 -0.2820 -1.3928
   37POPC   H5S 4957   0.419   4.461   7.268 -0.1207  0.6587 -3.4836
   37POPC   C26 4958   0.304   4.340   7.388 -0.4177 -0.6045  0.0414
   37POPC   H6R 4959   0.383   4.264   7.406  0.1584  0.3482  1.7707
   37POPC   H6S 4960   0.201   4.298   7.387 -0.2195 -1.1004 -1.0708
   37POPC   C27 4961   0.311   4.451   7.501 -0.0074  0.3621  1.1684
   37POPC   H7R 4962   0.291   4.553   7.461 -1.7905  0.3819  1.9999
   37POPC   H7S 4963   0.416   4.457   7.536  0.9518 -2.6184 -0.8465
   37POPC   C28 4964   0.206   4.433   7.616 -0.8475  0.8321  0.7691
   37POPC   H8R 4965   0.214   4.328   7.652 -0.0863  0.3854 -0.6276
   37POPC   H8S 4966   0.106   4.447   7.568 -0.7242 -0.1671  0.1783
   37POPC   C29 4967   0.241   4.524   7.733  0.4971 -0.2554  0.4752
   37POPC   H91 4968   0.348   4.544   7.746  0.5723 -0.9933  1.0643
   37POPC  C210 4969   0.146   4.586   7.806  0.3945  0.1888  0.8186
   37POPC  H101 4970   0.184   4.646   7.890  2.0557 -0.0471  0.2651
   37POPC  C211 4971  -0.003   4.578   7.788  0.7664 -0.3252  0.0200
   37POPC  H11R 4972  -0.050   4.527   7.875  0.6421 -0.0556  0.1133
   37POPC  H11S 4973  -0.049   4.523   7.703 -0.6821 -0.4817  0.8602
   37POPC  C212 4974  -0.073   4.716   7.809  0.0252 -0.5083  0.6830
   37POPC  H12R 4975  -0.036   4.757   7.905 -0.1641  0.7532  0.2433
   37POPC  H12S 4976  -0.183   4.708   7.824 -0.0721  1.8662  1.6703
   37POPC  C213 4977  -0.048   4.820   7.703  0.2851  0.1262 -0.2894
   37POPC  H13R 4978   0.059   4.814   7.674  0.8419 -2.7637  1.8641
   37POPC  H13S 4979  -0.046   4.919   7.753  2.5951 -0.8527  1.8103
   37POPC  C214 4980  -0.143   4.831   7.580 -0.7816 -0.1585  0.0905
   37POPC  H14R 4981  -0.115   4.926   7.530  3.4866 -1.0116  0.4448
   37POPC  H14S 4982  -0.248   4.843   7.613 -1.4717  1.1010 -2.2847
   37POPC  C215 4983  -0.130   4.722   7.468  0.4480  0.0645  1.2582
   37POPC  H15R 4984  -0.200   4.740   7.384 -0.0885 -1.9990  1.2128
   37POPC  H15S 4985  -0.141   4.630   7.529  0.5842 -0.3991  0.5938
   37POPC  C216 4986   0.012   4.728   7.401  0.3829 -1.0934  0.5460
   37POPC  H16R 4987   0.085   4.716   7.484  1.4251 -1.9112 -0.4454
   37POPC  H16S 4988   0.017   4.824   7.344 -0.8313 -0.1962  1.8948
   37POPC  C217 4989   0.045   4.618   7.299 -0.2780  0.1917  0.2095
   37POPC  H17R 4990   0.014   4.525   7.352 -1.7526 -0.3822 -1.5506
   37POPC  H17S 4991   0.152   4.619   7.271 -0.5810 -1.1726 -1.1708
   37POPC  C218 4992  -0.034   4.623   7.173  0.5410  0.3936  0.3097
   37POPC  H18R 4993  -0.011   4.534   7.110 -0.5414  0.5646 -0.3629
   37POPC  H18S 4994  -0.023   4.712   7.107 -1.5748 -1.0615 -2.2644
   37POPC  H18T 4995  -0.140   4.611   7.205  0.1695 -1.0053 -1.2733
   37POPC   C33 4996   0.406   4.752   7.063 -0.1030 -0.8937 -0.0558
   37POPC   H3X 4997   0.467   4.820   7.000  1.1677 -0.1297  1.9165
   37POPC   H3Y 4998   0.459   4.655   7.067 -0.0131 -0.8222  0.5865
   37POPC   C34 4999   0.420   4.807   7.205 -0.3348  0.1585 -0.8155
   37POPC   H4X 5000   0.517   4.781   7.253 -0.1293 -0.4759 -1.5502
   37POPC   H4Y 5001   0.343   4.754   7.265  1.5949 -1.0311  0.7582
   37POPC   C35 5002   0.400   4.955   7.231  0.3478  0.1092 -0.5121
   37POPC   H5X 5003   0.366   5.002   7.136  0.3673 -0.4213 -0.7853
   37POPC   H5Y 5004   0.500   5.002   7.239  0.2470  0.1355  0.9151
   37POPC   C36 5005   0.312   4.998   7.349 -0.2822 -0.9265 -0.1470
   37POPC   H6X 5006   0.229   4.925   7.365  1.4843 -2.4293  3.1262
   37POPC   H6Y 5007   0.279   5.103   7.336 -0.0472 -1.0687 -2.3645
   37POPC   C37 5008   0.377   5.001   7.482 -0.4592  0.4217 -0.1762
   37POPC   H7X 5009   0.460   5.073   7.466 -0.5612  0.2418 -1.6039
   37POPC   H7Y 5010   0.417   4.899   7.503  0.4009  0.9527  0.9143
   37POPC   C38 5011   0.291   5.055   7.600  0.4708  0.2046 -0.2405
   37POPC   H8X 5012   0.195   4.999   7.593  1.2823 -1.1275 -1.2858
   37POPC   H8Y 5013   0.279   5.165   7.588 -0.2009  0.0240 -1.3875
   37POPC   C39 5014   0.350   5.016   7.739 -0.3509 -0.1342  0.0965
   37POPC   H9X 5015   0.450   5.065   7.746 -0.7042  0.7001 -0.4915
   37POPC   H9Y 5016   0.353   4.905   7.745 -0.4254 -0.3777 -2.9537
   37POPC  C310 5017   0.259   5.080   7.849  0.1692 -0.0329  0.0589
   37POPC  H10X 5018   0.159   5.042   7.821 -0.2849 -0.6122  2.2541
   37POPC  H10Y 5019   0.260   5.191   7.851 -0.2486 -0.0330  1.6555
   37POPC  C311 5020   0.284   5.021   7.982 -0.1896 -0.0592  1.1060
   37POPC  H11X 5021   0.386   5.052   8.017  0.5115 -1.4424  0.3526
   37POPC  H11Y 5022   0.284   4.911   7.970  2.4639  0.0918 -1.4433
   37POPC  C312 5023   0.193   5.083   8.088 -0.1341 -0.7903  0.3398
   37POPC  H12X 5024   0.086   5.083   8.056 -0.4520  0.3265  1.3308
   37POPC  H12Y 5025   0.234   5.180   8.124  1.3452 -0.8798 -1.0186
   37POPC  C313 5026   0.201   4.995   8.214 -1.1325  0.4145  0.1904
   37POPC  H13X 5027   0.308   4.967   8.229 -0.7006 -0.3030 -3.3334
   37POPC  H13Y 5028   0.169   4.893   8.184  0.1352 -0.1145  0.5590
   37POPC  C314 5029   0.131   5.062   8.333 -0.0243 -0.0994  0.3644
   37POPC  H14X 5030   0.028   5.094   8.305 -0.7526 -2.5558  0.0004
   37POPC  H14Y 5031   0.187   5.152   8.367 -1.7426  1.5229 -0.9211
   37POPC  C315 5032   0.105   4.966   8.439  0.7445  0.1159  1.1426
   37POPC  H15X 5033   0.203   4.920   8.464  2.4407  3.2436  0.7302
   37POPC  H15Y 5034   0.049   4.886   8.386  0.6165  1.1917 -0.3984
   37POPC  C316 5035   0.028   5.020   8.551  0.4730  0.0347 -0.2128
   37POPC  H16X 5036   0.098   5.085   8.607 -0.5436  1.1789 -0.2371
   37POPC  H16Y 5037   0.006   4.942   8.626  1.6969 -0.0400  0.0883
   37POPC  H16Z 5038  -0.056   5.083   8.513  1.3532  0.0244 -2.3019
   38POPC     N 5039   2.263   6.818   5.890  0.0501  0.8838 -0.0390
   38POPC   C12 5040   2.247   6.954   5.957  0.4447  0.5797  0.4704
   38POPC  H12A 5041   2.145   6.986   5.943 -0.1828 -1.9443 -1.4136
   38POPC  H12B 5042   2.312   7.029   5.913  1.3603 -0.3379  0.2168
   38POPC   C13 5043   2.389   6.743   5.932 -0.1819 -0.4199 -0.4799
   38POPC  H13A 5044   2.386   6.727   6.038 -0.5394  1.5127 -0.1629
   38POPC  H13B 5045   2.405   6.643   5.893 -3.6604 -1.9058  1.4026
   38POPC  H13C 5046   2.475   6.806   5.914  0.8492 -1.7633 -0.4147
   38POPC   C14 5047   2.143   6.727   5.909  0.4165  0.0726 -0.1472
   38POPC  H14A 5048   2.159   6.631   5.862 -0.7765 -0.4398  0.4460
   38POPC  H14B 5049   2.134   6.715   6.016  2.0734  2.6374  0.3740
   38POPC  H14C 5050   2.062   6.779   5.861  1.2025  1.6050  0.1288
   38POPC   C15 5051   2.276   6.840   5.742 -0.1537  0.0028  0.3635
   38POPC  H15A 5052   2.181   6.868   5.700 -0.2531  0.2896  0.7777
   38POPC  H15B 5053   2.299   6.750   5.687 -1.0049  0.4167 -0.7142
   38POPC  H15C 5054   2.350   6.914   5.713 -0.1924 -0.0756  0.0636
   38POPC   C11 5055   2.286   6.967   6.115  0.0914  0.1020 -0.9632
   38POPC  H11A 5056   2.269   7.069   6.154  2.0161 -0.3667  1.3362
   38POPC  H11B 5057   2.394   6.964   6.143 -0.1952 -1.3824  0.1048
   38POPC     P 5058   2.059   6.898   6.233 -0.3266  0.2600 -0.0121
   38POPC   O13 5059   1.990   6.768   6.209 -0.0658  0.0362  0.1931
   38POPC   O14 5060   2.006   7.023   6.166 -0.5784 -0.7183 -0.3331
   38POPC   O12 5061   2.210   6.869   6.194 -0.1187  0.0535 -0.3433
   38POPC   O11 5062   2.079   6.915   6.389  0.1994 -0.1313 -0.3517
   38POPC    C1 5063   2.108   7.039   6.459 -0.5833  0.1139 -0.1126
   38POPC    HA 5064   2.019   7.103   6.440 -0.3895  0.2050 -0.7567
   38POPC    HB 5065   2.198   7.085   6.412  0.0732 -0.3334  0.6968
   38POPC    C2 5066   2.130   7.011   6.606  0.2094  0.9449 -0.4125
   38POPC    HS 5067   2.152   7.108   6.656 -1.6376  0.4875  1.4500
   38POPC   O21 5068   2.224   6.905   6.623 -0.4419  0.1295 -0.0912
   38POPC   C21 5069   2.302   6.908   6.735  0.1761 -0.2277  0.6901
   38POPC   O22 5070   2.293   6.998   6.816 -0.3685 -0.0930 -0.4456
   38POPC   C22 5071   2.385   6.773   6.744  0.4002 -0.2182  0.7122
   38POPC   H2R 5072   2.475   6.771   6.678  1.3580 -0.2326  1.9824
   38POPC   H2S 5073   2.323   6.693   6.698 -1.7410  1.8637 -0.1883
   38POPC    C3 5074   2.000   6.956   6.657  0.8509  0.1672 -0.3101
   38POPC    HX 5075   2.003   6.846   6.642 -0.3526 -0.6970  4.3213
   38POPC    HY 5076   1.905   6.990   6.611  0.1986  3.0229  2.7508
   38POPC   O31 5077   1.993   6.978   6.797  0.1838 -0.1488  0.0000
   38POPC   C31 5078   1.976   7.112   6.840  0.4349  0.2685 -0.1934
   38POPC   O32 5079   1.964   7.209   6.772  0.2909  0.2314  0.1016
   38POPC   C32 5080   1.981   7.109   6.987  0.4814 -0.1987  0.1910
   38POPC   H2X 5081   2.078   7.063   7.015  1.1685  1.6978  1.0859
   38POPC   H2Y 5082   1.895   7.047   7.022 -1.5644  2.1796 -0.3125
   38POPC   C23 5083   2.425   6.745   6.886 -0.3229 -0.0914  0.6599
   38POPC   H3R 5084   2.370   6.806   6.960  1.7702  0.1390  2.1202
   38POPC   H3S 5085   2.530   6.770   6.912  0.5866 -2.6514 -0.2458
   38POPC   C24 5086   2.410   6.596   6.922  0.3500 -0.0150  0.4041
   38POPC   H4R 5087   2.513   6.555   6.925  0.7447  0.9821  1.2819
   38POPC   H4S 5088   2.358   6.545   6.838  2.1843  0.5623 -1.1502
   38POPC   C25 5089   2.344   6.584   7.059 -0.0199  0.3980 -0.1454
   38POPC   H5R 5090   2.233   6.592   7.053 -0.4956 -2.2788  2.6670
   38POPC   H5S 5091   2.387   6.658   7.130 -0.3482  1.2179 -0.7809
   38POPC   C26 5092   2.371   6.441   7.112  0.9220 -0.0104  0.6598
   38POPC   H6R 5093   2.482   6.443   7.125  1.1511  2.3392 -0.9985
   38POPC   H6S 5094   2.342   6.375   7.028 -0.1472  1.8519 -0.4806
   38POPC   C27 5095   2.300   6.397   7.241 -0.3382 -0.4759  0.1833
   38POPC   H7R 5096   2.315   6.289   7.264  0.3832 -0.3313  0.4085
   38POPC   H7S 5097   2.190   6.390   7.222 -0.1490 -1.0525 -0.7613
   38POPC   C28 5098   2.319   6.502   7.348 -0.3975  0.2113 -0.2402
   38POPC   H8R 5099   2.263   6.595   7.325 -1.6915 -0.7140 -0.9434
   38POPC   H8S 5100   2.427   6.530   7.358  0.9078 -4.4978  1.6972
   38POPC   C29 5101   2.277   6.438   7.475 -0.9945 -0.3650 -0.2384
   38POPC   H91 5102   2.243   6.334   7.466  1.2283 -1.4158  2.1802
   38POPC  C210 5103   2.286   6.496   7.597 -0.1208 -0.1583  0.1677
   38POPC  H101 5104   2.240   6.450   7.685 -1.4834 -0.1649 -0.5269
   38POPC  C211 5105   2.341   6.635   7.640 -0.2720  0.0994 -0.3912
   38POPC  H11R 5106   2.258   6.694   7.685 -0.0705 -0.4908  0.7721
   38POPC  H11S 5107   2.391   6.693   7.559  1.3870 -0.3510  0.2813
   38POPC  C212 5108   2.452   6.614   7.743  0.7677  0.0437 -0.8247
   38POPC  H12R 5109   2.531   6.546   7.704 -0.8420 -1.6986 -1.2172
   38POPC  H12S 5110   2.413   6.564   7.835  0.1164  0.7244 -0.7251
   38POPC  C213 5111   2.518   6.749   7.780  0.4030  0.9822 -0.0590
   38POPC  H13R 5112   2.437   6.822   7.802  0.3886  0.8944  0.1855
   38POPC  H13S 5113   2.582   6.778   7.694 -2.2990 -1.0512 -2.9562
   38POPC  C214 5114   2.592   6.730   7.909 -0.4666 -0.2195 -0.5972
   38POPC  H14R 5115   2.657   6.641   7.893 -2.5658 -1.8936 -0.3040
   38POPC  H14S 5116   2.516   6.705   7.986  1.3470 -1.1484  0.9505
   38POPC  C215 5117   2.668   6.852   7.956  0.9584  0.3163 -0.4739
   38POPC  H15R 5118   2.596   6.934   7.976  1.5232  0.2520  2.0820
   38POPC  H15S 5119   2.737   6.884   7.874  0.4680 -0.4019 -1.1787
   38POPC  C216 5120   2.744   6.823   8.092 -0.1845  0.3697  0.0788
   38POPC  H16R 5121   2.744   6.712   8.090  0.1174  0.3494  0.8768
   38POPC  H16S 5122   2.679   6.857   8.176  0.2904 -1.7137  1.3453
   38POPC  C217 5123   2.879   6.883   8.086  0.7853 -0.2880  0.5715
   38POPC  H17R 5124   2.851   6.989   8.071 -1.1392 -0.8442 -0.0087
   38POPC  H17S 5125   2.923   6.850   7.990  0.3694 -1.4358  0.7625
   38POPC  C218 5126   2.967   6.859   8.208 -0.7706  0.1785  0.7179
   38POPC  H18R 5127   2.966   6.750   8.225 -2.3981 -0.0964 -0.8403
   38POPC  H18S 5128   2.930   6.900   8.305 -1.2516  3.9332 -0.8788
   38POPC  H18T 5129   3.075   6.882   8.195 -0.1558 -2.3944  0.8866
   38POPC   C33 5130   1.980   7.243   7.050 -0.6211 -0.5559 -0.4125
   38POPC   H3X 5131   1.918   7.320   7.000 -0.3339 -0.2899 -0.3692
   38POPC   H3Y 5132   2.083   7.285   7.057 -0.3841 -0.7564 -2.2336
   38POPC   C34 5133   1.924   7.236   7.191  0.0767 -0.5856 -0.6761
   38POPC   H4X 5134   1.818   7.203   7.183 -0.3920  1.0026 -1.3555
   38POPC   H4Y 5135   1.918   7.336   7.239 -2.7120 -2.1114  2.6057
   38POPC   C35 5136   1.997   7.142   7.288 -0.4896 -0.4670  0.1359
   38POPC   H5X 5137   2.102   7.175   7.304  0.0623 -2.1718  0.2273
   38POPC   H5Y 5138   1.999   7.045   7.234  0.3935 -1.6232  2.1540
   38POPC   C36 5139   1.928   7.142   7.420  0.2452 -0.7203  0.2556
   38POPC   H6X 5140   1.964   7.054   7.478 -1.0603 -0.7818  1.0129
   38POPC   H6Y 5141   1.818   7.126   7.412 -0.4032  3.0776 -0.3285
   38POPC   C37 5142   1.949   7.274   7.503  0.0719 -0.3665 -0.3149
   38POPC   H7X 5143   1.887   7.351   7.453 -0.0683 -0.2293  0.0716
   38POPC   H7Y 5144   2.058   7.298   7.500  0.3832 -1.6471  0.0067
   38POPC   C38 5145   1.915   7.259   7.650  0.0218  0.0491  0.1776
   38POPC   H8X 5146   1.977   7.177   7.692  0.4329 -0.2939 -1.0464
   38POPC   H8Y 5147   1.809   7.226   7.655  0.0007 -0.3504 -2.0178
   38POPC   C39 5148   1.943   7.385   7.727  0.1225 -1.0764  0.5083
   38POPC   H9X 5149   1.891   7.472   7.680  0.3962 -1.1643  0.0352
   38POPC   H9Y 5150   2.051   7.409   7.724  0.1555 -1.3663 -1.2488
   38POPC  C310 5151   1.912   7.371   7.875  0.0789 -0.2064 -0.7215
   38POPC  H10X 5152   1.968   7.294   7.932 -0.7647 -0.0551  0.3249
   38POPC  H10Y 5153   1.803   7.362   7.895  0.2016  1.6515  1.1260
   38POPC  C311 5154   1.942   7.502   7.956 -0.1507  0.1577  0.6465
   38POPC  H11X 5155   1.880   7.585   7.916 -0.2110  0.4989  1.4445
   38POPC  H11Y 5156   2.049   7.529   7.947  0.4704 -2.2707 -0.1985
   38POPC  C312 5157   1.915   7.494   8.110  0.5163  0.1904  0.4172
   38POPC  H12X 5158   1.991   7.431   8.160 -0.1502  0.5958  1.9835
   38POPC  H12Y 5159   1.814   7.451   8.128  0.9114 -0.2571  1.6361
   38POPC  C313 5160   1.917   7.627   8.189 -0.7431 -0.1063 -0.9390
   38POPC  H13X 5161   1.872   7.709   8.129  1.9948  1.5584 -0.9283
   38POPC  H13Y 5162   2.024   7.654   8.203 -0.9713  0.6841 -0.6742
   38POPC  C314 5163   1.840   7.616   8.328 -0.6093 -0.5220  1.2360
   38POPC  H14X 5164   1.891   7.541   8.391 -0.4978 -1.4525  0.0856
   38POPC  H14Y 5165   1.738   7.575   8.309 -0.9836  0.0996  1.8298
   38POPC  C315 5166   1.828   7.749   8.397  0.0605 -0.7087 -0.0331
   38POPC  H15X 5167   1.837   7.832   8.325  1.2007  0.9877  1.9361
   38POPC  H15Y 5168   1.922   7.768   8.453  1.3005 -1.8815 -1.6182
   38POPC  C316 5169   1.710   7.765   8.489  0.4266 -0.2282  0.6318
   38POPC  H16X 5170   1.694   7.860   8.544 -0.4177 -0.1390  0.2556
   38POPC  H16Y 5171   1.710   7.681   8.561  1.4005  1.1609  2.3206
   38POPC  H16Z 5172   1.613   7.748   8.437  1.0988  0.3950 -0.8863
   39POPC     N 5173   5.095   3.621   5.986 -0.0907  0.3154  0.4603
   39POPC   C12 5174   5.039   3.733   6.071 -0.0864 -0.4838  0.2449
   39POPC  H12A 5175   4.944   3.704   6.113  1.9141 -4.0355  2.9204
   39POPC  H12B 5176   5.028   3.823   6.012  2.4711 -0.5356 -0.4307
   39POPC   C13 5177   5.220   3.654   5.913 -0.1670 -0.3226 -0.6096
   39POPC  H13A 5178   5.197   3.741   5.853 -0.8062  0.5198  0.8041
   39POPC  H13B 5179   5.290   3.693   5.986 -2.3843  0.6767  1.0880
   39POPC  H13C 5180   5.259   3.588   5.837  2.0731  0.1337  0.0553
   39POPC   C14 5181   5.126   3.495   6.066 -0.9736 -0.0954 -0.7191
   39POPC  H14A 5182   5.185   3.424   6.010  0.0977  0.2881 -0.1201
   39POPC  H14B 5183   5.185   3.529   6.151 -1.1094  0.5780 -0.8935
   39POPC  H14C 5184   5.035   3.449   6.103 -1.4429  1.1065 -0.3464
   39POPC   C15 5185   4.990   3.587   5.884  0.0986 -0.1921 -0.0998
   39POPC  H15A 5186   4.976   3.660   5.806 -0.6420 -1.5825 -1.3070
   39POPC  H15B 5187   4.894   3.571   5.932 -0.5364 -0.2678 -1.3658
   39POPC  H15C 5188   5.026   3.504   5.826 -2.3390 -0.9082 -0.7029
   39POPC   C11 5189   5.113   3.769   6.202 -0.3440 -0.9757  0.6700
   39POPC  H11A 5190   5.114   3.685   6.274 -0.4343 -1.8896 -0.3815
   39POPC  H11B 5191   5.053   3.840   6.264  0.2214 -0.5777  0.7666
   39POPC     P 5192   5.292   3.964   6.163 -0.2565  0.1407 -0.8584
   39POPC   O13 5193   5.208   4.035   6.066  0.0273  0.2728  0.0183
   39POPC   O14 5194   5.432   3.955   6.121 -0.0502 -0.4630 -0.3342
   39POPC   O12 5195   5.245   3.824   6.178 -0.7502  0.4188 -0.2041
   39POPC   O11 5196   5.283   4.029   6.304  0.0997 -0.0047  0.1928
   39POPC    C1 5197   5.352   3.972   6.419  0.3355  0.6799 -0.2789
   39POPC    HA 5198   5.397   4.056   6.476 -0.6207  0.2126  1.2281
   39POPC    HB 5199   5.435   3.901   6.397  2.5963  2.7005  1.1787
   39POPC    C2 5200   5.253   3.912   6.516  0.4050 -0.2341 -0.2336
   39POPC    HS 5201   5.183   3.845   6.462  1.3570 -0.6450 -0.9666
   39POPC   O21 5202   5.195   4.021   6.577 -0.6934 -0.5219 -0.7941
   39POPC   C21 5203   5.078   3.996   6.637 -0.1930  0.1622  0.3755
   39POPC   O22 5204   5.016   3.893   6.628 -0.7125 -0.4875  0.5901
   39POPC   C22 5205   5.032   4.115   6.724 -0.5756  0.0607 -0.4825
   39POPC   H2R 5206   5.027   4.202   6.656  1.2116 -0.3414 -1.2030
   39POPC   H2S 5207   5.116   4.137   6.794 -0.3273 -1.3577 -0.3074
   39POPC    C3 5208   5.339   3.838   6.622  0.7734  0.5238  0.3307
   39POPC    HX 5209   5.407   3.910   6.673  0.3636  0.8591  0.4032
   39POPC    HY 5210   5.398   3.755   6.576 -1.9754 -0.5649 -1.4758
   39POPC   O31 5211   5.262   3.787   6.735 -0.4696  0.3702  0.1819
   39POPC   C31 5212   5.211   3.671   6.719 -0.3958 -0.1808  0.1348
   39POPC   O32 5213   5.203   3.614   6.610 -0.1132 -0.5015  0.0655
   39POPC   C32 5214   5.143   3.635   6.845 -0.1920  0.0009  0.5882
   39POPC   H2X 5215   5.073   3.551   6.826 -0.8018  0.5048  0.5867
   39POPC   H2Y 5216   5.219   3.587   6.911 -0.9436  1.0500  2.3075
   39POPC   C23 5217   4.904   4.087   6.817 -0.1060 -0.1085  0.6752
   39POPC   H3R 5218   4.907   3.985   6.861 -0.1329 -0.8984 -1.0653
   39POPC   H3S 5219   4.819   4.102   6.747 -0.7011  1.2207  1.6355
   39POPC   C24 5220   4.905   4.191   6.927  0.6365 -0.4535  0.6688
   39POPC   H4R 5221   4.807   4.181   6.978  0.2080 -0.1996 -0.1007
   39POPC   H4S 5222   4.930   4.286   6.875  1.3403 -2.1478 -2.3166
   39POPC   C25 5223   5.008   4.155   7.032  1.0891  0.5424 -0.2802
   39POPC   H5R 5224   5.109   4.183   6.997  0.5453  3.5088  0.1986
   39POPC   H5S 5225   4.992   4.047   7.051 -3.1436  1.1567  0.7167
   39POPC   C26 5226   4.965   4.232   7.163 -0.3806  0.1244  0.3542
   39POPC   H6R 5227   4.902   4.322   7.148 -1.0822 -0.2465  1.0292
   39POPC   H6S 5228   5.054   4.276   7.212  0.3443 -0.5867 -0.2866
   39POPC   C27 5229   4.901   4.136   7.268 -0.6640  0.1306  0.4861
   39POPC   H7R 5230   4.980   4.062   7.292 -2.5142 -1.5703  1.6244
   39POPC   H7S 5231   4.813   4.085   7.224 -1.0054  1.1306 -0.0274
   39POPC   C28 5232   4.857   4.218   7.391 -0.2764  0.4522 -0.8036
   39POPC   H8R 5233   4.784   4.155   7.446  0.1663  2.2527  2.1130
   39POPC   H8S 5234   4.795   4.302   7.355  1.6881  1.4594 -2.0174
   39POPC   C29 5235   4.966   4.270   7.484  0.1584  0.2469 -0.7804
   39POPC   H91 5236   5.031   4.350   7.446 -0.2925  1.6671  1.3027
   39POPC  C210 5237   4.984   4.237   7.609  0.6548  0.7952 -0.1100
   39POPC  H101 5238   5.062   4.285   7.669  1.0451  0.7118 -0.5413
   39POPC  C211 5239   4.906   4.127   7.685  0.3877  0.4903 -0.6466
   39POPC  H11R 5240   4.919   4.029   7.635 -0.2472 -0.3265  0.7298
   39POPC  H11S 5241   4.798   4.146   7.701  0.7570  0.3881  2.6935
   39POPC  C212 5242   4.981   4.111   7.825 -0.1306  0.4933 -0.3401
   39POPC  H12R 5243   4.935   4.189   7.890 -2.6720 -2.6546  2.0222
   39POPC  H12S 5244   5.091   4.124   7.815 -0.1032  0.2857 -0.3222
   39POPC  C213 5245   4.963   3.970   7.892  0.0466 -0.2916 -0.5647
   39POPC  H13R 5246   5.014   3.895   7.828  4.0365  0.1560  1.7290
   39POPC  H13S 5247   4.853   3.970   7.903  0.1977 -1.8191  1.6585
   39POPC  C214 5248   5.041   3.960   8.024 -1.1295 -0.3257 -0.5002
   39POPC  H14R 5249   4.999   4.028   8.102 -0.6937  0.4844 -0.9599
   39POPC  H14S 5250   5.142   3.999   7.999 -0.6025 -0.7411  0.9007
   39POPC  C215 5251   5.048   3.821   8.081  0.5313  0.5739 -0.1039
   39POPC  H15R 5252   5.129   3.768   8.027  0.3151  0.9234 -0.7899
   39POPC  H15S 5253   4.953   3.765   8.088 -1.2935  3.5877  1.7503
   39POPC  C216 5254   5.094   3.831   8.224  0.3457  0.5916 -0.2008
   39POPC  H16R 5255   5.029   3.898   8.284  0.4358 -0.3176  0.9515
   39POPC  H16S 5256   5.194   3.880   8.228  0.9313  0.1745 -4.6824
   39POPC  C217 5257   5.096   3.695   8.298 -0.7870  0.0740 -0.2984
   39POPC  H17R 5258   5.163   3.635   8.233  0.1413 -0.2497  0.9253
   39POPC  H17S 5259   4.996   3.646   8.297 -0.9844  0.4747 -0.1220
   39POPC  C218 5260   5.154   3.705   8.441 -0.0747  1.1301  0.3466
   39POPC  H18R 5261   5.265   3.705   8.438 -0.0206 -1.3722  0.0197
   39POPC  H18S 5262   5.129   3.611   8.494  1.6749  0.9033  0.8283
   39POPC  H18T 5263   5.127   3.800   8.492  1.4503  1.7007  0.1500
   39POPC   C33 5264   5.083   3.758   6.924 -0.6580  0.7841  0.2651
   39POPC   H3X 5265   5.005   3.798   6.857 -1.2092  2.5225  1.8533
   39POPC   H3Y 5266   5.164   3.833   6.937  0.3921 -0.0514 -1.2222
   39POPC   C34 5267   5.010   3.722   7.052 -0.4613 -0.2752  0.4655
   39POPC   H4X 5268   4.955   3.627   7.035 -0.2227 -0.5870  1.4011
   39POPC   H4Y 5269   4.943   3.808   7.073  0.5338  0.2672  1.4795
   39POPC   C35 5270   5.098   3.709   7.172  0.3270 -0.8966  0.0348
   39POPC   H5X 5271   5.139   3.808   7.201  2.7388 -2.1527  1.1299
   39POPC   H5Y 5272   5.186   3.647   7.145  1.1492  0.9351 -1.7519
   39POPC   C36 5273   5.019   3.653   7.294  0.1051 -0.1301  0.0002
   39POPC   H6X 5274   4.985   3.549   7.273 -0.3241 -0.3585  1.6655
   39POPC   H6Y 5275   4.933   3.722   7.308  1.8084  2.3631 -1.2326
   39POPC   C37 5276   5.104   3.650   7.419 -0.5536 -0.0879  0.4147
   39POPC   H7X 5277   5.113   3.757   7.449 -2.3674  1.7985 -4.7341
   39POPC   H7Y 5278   5.202   3.611   7.383 -0.6522  0.2043 -0.1679
   39POPC   C38 5279   5.047   3.556   7.524  0.7675  0.0968  0.0990
   39POPC   H8X 5280   5.018   3.455   7.489  0.3513 -0.0665  0.8765
   39POPC   H8Y 5281   4.952   3.603   7.558  1.6276  1.6370  0.4719
   39POPC   C39 5282   5.142   3.542   7.651 -0.2706  0.1108  0.6065
   39POPC   H9X 5283   5.239   3.590   7.625 -2.2768  2.6759 -2.9101
   39POPC   H9Y 5284   5.166   3.435   7.669 -1.1104 -0.2914 -0.5468
   39POPC  C310 5285   5.090   3.618   7.778 -0.3409 -0.3554  0.0784
   39POPC  H10X 5286   5.060   3.715   7.733 -1.2031 -1.5678 -2.1066
   39POPC  H10Y 5287   5.162   3.632   7.862  0.0390 -1.6149 -0.0230
   39POPC  C311 5288   4.965   3.563   7.841 -0.1536  0.0814 -0.2562
   39POPC  H11X 5289   4.882   3.566   7.767 -1.7528 -0.5064  1.4375
   39POPC  H11Y 5290   4.935   3.615   7.934 -0.3184 -1.0494  0.3278
   39POPC  C312 5291   4.989   3.421   7.902 -0.0712 -0.0592  0.3908
   39POPC  H12X 5292   5.045   3.341   7.848 -0.4919 -0.7850  1.0015
   39POPC  H12Y 5293   4.891   3.368   7.899 -0.4147  0.5825  0.2000
   39POPC  C313 5294   5.045   3.411   8.043  0.0046 -0.1485 -0.3266
   39POPC  H13X 5295   4.993   3.491   8.100 -1.0058 -0.6347 -0.5451
   39POPC  H13Y 5296   5.151   3.443   8.034  0.2707 -1.3569 -2.3330
   39POPC  C314 5297   5.030   3.278   8.091 -0.3305 -0.2567  0.1109
   39POPC  H14X 5298   5.112   3.214   8.052 -1.5239 -0.2548 -2.6002
   39POPC  H14Y 5299   4.931   3.242   8.055 -1.0346 -0.8373  2.4573
   39POPC  C315 5300   5.042   3.275   8.244  0.3060 -0.3457  0.4741
   39POPC  H15X 5301   5.005   3.179   8.286 -1.9534  1.1881  2.2694
   39POPC  H15Y 5302   4.983   3.359   8.287  2.2293  0.6735  1.2595
   39POPC  C316 5303   5.189   3.296   8.300  0.2692  0.6883  0.0726
   39POPC  H16X 5304   5.265   3.230   8.255 -1.0060 -0.3616 -0.6231
   39POPC  H16Y 5305   5.185   3.294   8.411  2.1182 -1.2674  0.1657
   39POPC  H16Z 5306   5.223   3.395   8.263  2.2625 -0.0152 -0.1050
   40POPC     N 5307   4.897   1.935   6.099  0.0127 -0.3313  0.0694
   40POPC   C12 5308   4.748   1.932   6.112  0.0373 -0.4332  0.7059
   40POPC  H12A 5309   4.721   1.883   6.205  0.1492  0.8736  1.4579
   40POPC  H12B 5310   4.696   1.884   6.031 -0.6219  1.2860  0.0537
   40POPC   C13 5311   4.962   1.991   6.222  0.2027 -0.5535 -0.6512
   40POPC  H13A 5312   4.957   1.934   6.314  0.9872  1.8979  1.0081
   40POPC  H13B 5313   5.066   2.015   6.206 -0.0385  0.7239 -0.4731
   40POPC  H13C 5314   4.901   2.077   6.247  0.9801 -0.7175  2.1807
   40POPC   C14 5315   4.945   1.799   6.069 -0.2609 -0.0490  0.5871
   40POPC  H14A 5316   5.050   1.805   6.096 -0.5628 -0.3237  1.8857
   40POPC  H14B 5317   4.907   1.731   6.144 -0.2043 -2.0017 -1.0850
   40POPC  H14C 5318   4.923   1.756   5.973  0.2897 -2.0325  1.2844
   40POPC   C15 5319   4.939   2.024   5.985  0.2195 -0.7279  0.2704
   40POPC  H15A 5320   4.907   2.127   5.993 -0.5643 -0.8312 -1.1894
   40POPC  H15B 5321   4.897   1.984   5.894  0.0587  1.1220 -0.5108
   40POPC  H15C 5322   5.045   2.011   5.972  0.0378 -0.5953 -1.6671
   40POPC   C11 5323   4.670   2.068   6.119 -0.5452  0.1653 -0.2680
   40POPC  H11A 5324   4.565   2.034   6.134  0.1540 -1.4013  1.3351
   40POPC  H11B 5325   4.673   2.121   6.021  0.7070 -3.3212 -2.2817
   40POPC     P 5326   4.628   2.213   6.333  0.2312 -0.1642 -0.1621
   40POPC   O13 5327   4.531   2.314   6.283  0.2117  0.2348 -0.3100
   40POPC   O14 5328   4.725   2.263   6.435  0.5377 -0.1010 -0.1763
   40POPC   O12 5329   4.720   2.158   6.219  0.2581  0.5594  0.7762
   40POPC   O11 5330   4.564   2.086   6.388  0.2165 -0.4816 -0.1339
   40POPC    C1 5331   4.619   1.968   6.452 -0.1863 -0.1340  0.1549
   40POPC    HA 5332   4.730   1.967   6.455 -0.1807  0.2433  2.5473
   40POPC    HB 5333   4.585   1.880   6.394 -1.8051  1.8677 -2.1281
   40POPC    C2 5334   4.562   1.957   6.599  0.0580  0.2614 -0.4244
   40POPC    HS 5335   4.629   1.882   6.648  1.6792  0.6494 -1.9285
   40POPC   O21 5336   4.423   1.911   6.598 -0.5809 -0.3519  0.4933
   40POPC   C21 5337   4.410   1.777   6.572 -0.0380  0.4273 -0.0486
   40POPC   O22 5338   4.497   1.698   6.562  0.0789  0.4993  0.0829
   40POPC   C22 5339   4.262   1.748   6.555  0.0016  0.7954 -0.1256
   40POPC   H2R 5340   4.236   1.771   6.449 -1.4243 -0.1789 -0.0253
   40POPC   H2S 5341   4.201   1.811   6.623 -0.4570  1.1545 -0.8554
   40POPC    C3 5342   4.572   2.086   6.688  0.0167  0.2883  0.4658
   40POPC    HX 5343   4.502   2.163   6.648  0.3852  0.7008  0.6128
   40POPC    HY 5344   4.675   2.127   6.684  0.5482 -0.7307  2.4706
   40POPC   O31 5345   4.543   2.053   6.828 -0.4140  0.0111 -0.3851
   40POPC   C31 5346   4.417   2.072   6.859  0.4213  0.0578 -0.2502
   40POPC   O32 5347   4.333   2.121   6.791 -0.0180  0.3523  0.2944
   40POPC   C32 5348   4.391   2.034   7.009  0.5253 -0.0844  0.5895
   40POPC   H2X 5349   4.464   2.087   7.074  2.0090  0.4716 -1.4200
   40POPC   H2Y 5350   4.399   1.924   7.024  2.0029 -0.4046 -1.9756
   40POPC   C23 5351   4.217   1.601   6.578 -0.5362  0.4479 -0.0455
   40POPC   H3R 5352   4.269   1.526   6.514 -1.6982 -0.9799  0.6363
   40POPC   H3S 5353   4.109   1.597   6.555 -0.3247  1.2478 -1.2979
   40POPC   C24 5354   4.221   1.543   6.722 -0.4274 -0.6365 -0.5463
   40POPC   H4R 5355   4.281   1.613   6.785 -4.5081  1.9498  0.8478
   40POPC   H4S 5356   4.273   1.445   6.722  1.2792  0.1649  1.5640
   40POPC   C25 5357   4.079   1.541   6.791 -0.6841 -0.6946  0.3918
   40POPC   H5R 5358   4.014   1.480   6.725  0.4439 -3.3164  1.5615
   40POPC   H5S 5359   4.045   1.647   6.793  0.0947 -0.4235 -0.2001
   40POPC   C26 5360   4.088   1.490   6.935 -1.1269 -0.0160  0.5197
   40POPC   H6R 5361   4.147   1.396   6.925  1.9735  2.0510 -3.6545
   40POPC   H6S 5362   3.987   1.478   6.978 -1.3650  1.2405  0.3369
   40POPC   C27 5363   4.163   1.587   7.033  0.7442  0.6122  0.1102
   40POPC   H7R 5364   4.085   1.617   7.106 -0.7164 -1.1746 -0.6349
   40POPC   H7S 5365   4.189   1.677   6.974 -0.2135  0.9867  0.2492
   40POPC   C28 5366   4.285   1.525   7.104 -0.3937 -0.1599 -0.4620
   40POPC   H8R 5367   4.335   1.449   7.040 -0.6937  0.0453 -0.9424
   40POPC   H8S 5368   4.241   1.455   7.178 -1.0932  0.8399  0.0721
   40POPC   C29 5369   4.381   1.619   7.164 -0.1382 -0.0460 -0.6814
   40POPC   H91 5370   4.371   1.655   7.268  0.5916  1.0630 -0.9757
   40POPC  C210 5371   4.480   1.670   7.091 -0.0394 -0.4040 -0.4253
   40POPC  H101 5372   4.551   1.740   7.139  0.6210 -0.9124 -0.6435
   40POPC  C211 5373   4.522   1.643   6.948  0.2264 -0.3046  0.3965
   40POPC  H11R 5374   4.501   1.731   6.885 -1.8530 -1.3788 -0.4921
   40POPC  H11S 5375   4.463   1.565   6.896 -1.9898  0.8137  1.1271
   40POPC  C212 5376   4.666   1.597   6.954 -0.1570 -0.6849 -0.8846
   40POPC  H12R 5377   4.726   1.667   7.016 -1.0531  0.3604 -1.1637
   40POPC  H12S 5378   4.689   1.598   6.845 -1.5905 -0.7635 -1.2070
   40POPC  C213 5379   4.689   1.455   7.004 -0.4789 -0.1467 -0.7751
   40POPC  H13R 5380   4.632   1.391   6.932 -2.3082 -0.8518  1.1821
   40POPC  H13S 5381   4.644   1.432   7.103 -0.1742 -0.0076 -0.6062
   40POPC  C214 5382   4.845   1.440   7.015  0.4514 -0.2312  0.3954
   40POPC  H14R 5383   4.883   1.502   6.932 -0.4255 -0.6953 -0.3622
   40POPC  H14S 5384   4.859   1.330   7.008 -0.9983 -0.4865  1.1043
   40POPC  C215 5385   4.890   1.504   7.146 -0.3728  0.7454 -0.2464
   40POPC  H15R 5386   4.850   1.439   7.226 -0.2511 -1.2336 -1.7111
   40POPC  H15S 5387   4.837   1.601   7.159 -0.6063  0.2914  3.0732
   40POPC  C216 5388   5.039   1.501   7.174  0.2442 -0.1092 -0.2182
   40POPC  H16R 5389   5.090   1.524   7.078  0.8284 -1.8360 -0.3585
   40POPC  H16S 5390   5.062   1.394   7.190  1.6549 -0.1503 -2.1692
   40POPC  C217 5391   5.071   1.590   7.295 -0.0445  0.1147  0.4400
   40POPC  H17R 5392   5.035   1.694   7.282 -0.9737 -0.2879 -0.2928
   40POPC  H17S 5393   5.181   1.595   7.310  0.3829  0.3868 -2.2741
   40POPC  C218 5394   5.014   1.538   7.430  0.6851  0.2104 -0.1842
   40POPC  H18R 5395   5.030   1.615   7.507 -0.0530  0.3782 -0.1909
   40POPC  H18S 5396   5.060   1.441   7.459 -2.5809 -1.2603  0.4966
   40POPC  H18T 5397   4.904   1.526   7.422  0.7391 -0.3394 -0.1460
   40POPC   C33 5398   4.247   2.080   7.057  0.7604  0.0570 -0.2364
   40POPC   H3X 5399   4.172   2.011   7.012 -1.0781  1.7878  0.0532
   40POPC   H3Y 5400   4.210   2.175   7.012  1.5991 -0.2163 -1.5692
   40POPC   C34 5401   4.226   2.076   7.209 -0.4194  0.2951 -0.2122
   40POPC   H4X 5402   4.122   2.106   7.234 -0.3784 -0.1725  0.5596
   40POPC   H4Y 5403   4.301   2.144   7.254  2.1787 -2.3551 -0.2764
   40POPC   C35 5404   4.234   1.932   7.263 -0.2983  0.1971 -0.6132
   40POPC   H5X 5405   4.337   1.892   7.247  0.1045  0.5151  1.0256
   40POPC   H5Y 5406   4.170   1.854   7.217 -1.9498  0.9196  0.3501
   40POPC   C36 5407   4.205   1.926   7.415 -0.3348 -0.0050  0.6413
   40POPC   H6X 5408   4.121   1.997   7.432  1.9043  2.9315  0.0984
   40POPC   H6Y 5409   4.288   1.967   7.477  0.2529  1.2810 -0.9443
   40POPC   C37 5410   4.187   1.781   7.463  0.2675  0.0119  0.3631
   40POPC   H7X 5411   4.285   1.734   7.445 -0.2162 -0.4450 -1.3358
   40POPC   H7Y 5412   4.119   1.720   7.400 -0.6531 -1.3311  2.5747
   40POPC   C38 5413   4.148   1.775   7.612  0.1213  0.2069  0.4361
   40POPC   H8X 5414   4.063   1.840   7.643  0.5539  0.4364  1.1701
   40POPC   H8Y 5415   4.241   1.816   7.656  0.0489  0.6608  0.1709
   40POPC   C39 5416   4.131   1.630   7.660 -0.1186  0.3003  0.3351
   40POPC   H9X 5417   4.207   1.554   7.635 -2.5891 -2.0943 -0.3810
   40POPC   H9Y 5418   4.030   1.595   7.629 -0.6938  1.2584  1.0526
   40POPC  C310 5419   4.136   1.634   7.818  0.4598  0.4815  0.0447
   40POPC  H10X 5420   4.083   1.725   7.852 -1.0516 -0.2472 -0.2963
   40POPC  H10Y 5421   4.241   1.645   7.854  1.0813 -1.0141 -1.1802
   40POPC  C311 5422   4.080   1.495   7.876 -0.0394 -0.4473  0.9332
   40POPC  H11X 5423   4.129   1.408   7.828 -4.0093 -1.9047 -0.9641
   40POPC  H11Y 5424   3.971   1.484   7.858  0.0457 -2.5341  1.4246
   40POPC  C312 5425   4.107   1.484   8.030  0.5145 -0.4148 -0.3149
   40POPC  H12X 5426   4.204   1.444   8.069  0.8880  0.1234 -0.6857
   40POPC  H12Y 5427   4.029   1.417   8.072  0.0420 -0.3963 -1.1446
   40POPC  C313 5428   4.089   1.615   8.108 -0.0499 -0.1167 -0.2850
   40POPC  H13X 5429   3.991   1.659   8.080  0.1684 -1.1135 -2.9116
   40POPC  H13Y 5430   4.162   1.693   8.076  2.6111 -2.2755  0.1178
   40POPC  C314 5431   4.099   1.595   8.258  0.2308 -0.3602 -0.6054
   40POPC  H14X 5432   4.201   1.613   8.298  0.2121  2.0074 -1.4854
   40POPC  H14Y 5433   4.063   1.497   8.297 -0.6140  0.7453  1.5977
   40POPC  C315 5434   4.001   1.692   8.332  0.3497 -0.5783  0.0101
   40POPC  H15X 5435   3.972   1.655   8.432 -0.4577 -2.9531 -1.0427
   40POPC  H15Y 5436   3.901   1.681   8.285  0.7011  1.6548 -1.4519
   40POPC  C316 5437   4.044   1.840   8.325  0.3293 -0.1011  0.6084
   40POPC  H16X 5438   4.154   1.833   8.312  0.0988 -2.3561 -0.6414
   40POPC  H16Y 5439   4.008   1.898   8.412 -2.5350  0.0622 -0.5727
   40POPC  H16Z 5440   3.999   1.891   8.237  1.7590  2.1522  1.1183
   41CHL1    C3 5441   2.406   6.285  10.063 -0.0542  0.0981 -0.1329
   41CHL1    H3 5442   2.328   6.363  10.045 -0.4733 -0.4737 -0.8646
   41CHL1    O3 5443   2.399   6.251  10.201  0.8673  0.2097  0.4050
   41CHL1   H3' 5444   2.387   6.333  10.250  0.1197  0.1104  0.3957
   41CHL1    C4 5445   2.372   6.184   9.954  0.1387  0.4119  0.7946
   41CHL1   H4A 5446   2.440   6.096   9.965  0.3045  0.0548 -2.2074
   41CHL1   H4B 5447   2.270   6.145   9.974 -0.2076  0.6528 -0.4133
   41CHL1    C5 5448   2.364   6.246   9.812  0.1480  0.2542 -0.5168
   41CHL1    C6 5449   2.251   6.249   9.740  0.2863 -0.2571  0.7174
   41CHL1    H6 5450   2.161   6.189   9.758 -1.4367  0.9562 -2.9125
   41CHL1    C7 5451   2.239   6.316   9.600  0.2855 -0.0534 -0.3851
   41CHL1   H7A 5452   2.191   6.256   9.520  0.6838 -1.3860  0.3419
   41CHL1   H7B 5453   2.181   6.409   9.619  0.1108 -0.2186 -0.0894
   41CHL1    C8 5454   2.372   6.357   9.549  0.3993 -0.0459  0.2060
   41CHL1    H8 5455   2.425   6.268   9.507 -0.8637 -1.1330  0.8273
   41CHL1   C14 5456   2.363   6.444   9.423  0.2814 -0.5606  0.3161
   41CHL1   H14 5457   2.298   6.532   9.440  0.6424  0.4501 -2.8578
   41CHL1   C15 5458   2.297   6.380   9.299  0.1337 -0.4861 -0.2817
   41CHL1  H15A 5459   2.334   6.276   9.290  0.2267 -0.6202  1.2494
   41CHL1  H15B 5460   2.187   6.390   9.313  0.1546  2.6289 -1.6607
   41CHL1   C16 5461   2.328   6.465   9.179 -0.2392 -0.4269 -0.5698
   41CHL1  H16A 5462   2.368   6.411   9.091 -1.3060 -3.0746  0.4499
   41CHL1  H16B 5463   2.237   6.525   9.153  0.7048  1.2597 -0.1420
   41CHL1   C17 5464   2.433   6.569   9.241  0.3179  0.3382 -0.1432
   41CHL1   H17 5465   2.373   6.655   9.275 -0.6390  0.0659 -1.0968
   41CHL1   C13 5466   2.489   6.505   9.368  0.4595 -0.4702 -0.3321
   41CHL1   C18 5467   2.588   6.388   9.324  0.2027  0.0314  0.5824
   41CHL1  H18A 5468   2.684   6.426   9.281  0.5057 -0.2488  0.9988
   41CHL1  H18B 5469   2.615   6.309   9.398 -1.4106 -2.7561 -1.6120
   41CHL1  H18C 5470   2.534   6.328   9.249 -1.5527 -0.2092  1.9734
   41CHL1   C12 5471   2.543   6.596   9.481  0.3639 -0.3347  0.4791
   41CHL1  H12A 5472   2.636   6.639   9.440  0.4643 -0.8148  0.1889
   41CHL1  H12B 5473   2.461   6.669   9.500 -0.8097 -1.4738 -0.0459
   41CHL1   C11 5474   2.580   6.504   9.601 -0.0870 -1.0797 -0.2138
   41CHL1  H11A 5475   2.660   6.431   9.576  1.7571  0.8717 -0.3517
   41CHL1  H11B 5476   2.632   6.563   9.680 -0.1113 -2.4362  0.8457
   41CHL1    C9 5477   2.456   6.427   9.650  0.0693  0.2237  0.4011
   41CHL1    H9 5478   2.385   6.501   9.694 -1.4583 -2.2649  2.4051
   41CHL1   C10 5479   2.489   6.328   9.768  0.3608  0.3149  0.2189
   41CHL1   C19 5480   2.598   6.230   9.736  0.3109  0.1071  0.0422
   41CHL1  H19A 5481   2.615   6.149   9.810 -0.9090 -0.8643 -0.6943
   41CHL1  H19B 5482   2.580   6.172   9.643  0.4716  1.9080 -1.1654
   41CHL1  H19C 5483   2.693   6.287   9.726  0.4116 -0.0326  0.1934
   41CHL1    C1 5484   2.533   6.418   9.892  0.0119 -0.1621 -0.0669
   41CHL1   H1A 5485   2.631   6.472   9.895  0.5945 -1.2244  2.4363
   41CHL1   H1B 5486   2.454   6.492   9.914  0.7937  0.6186  0.1839
   41CHL1    C2 5487   2.540   6.348  10.032  0.1089 -1.1667  0.3426
   41CHL1   H2A 5488   2.565   6.422  10.111  0.4443 -0.9393  0.0258
   41CHL1   H2B 5489   2.620   6.272  10.037  2.1244  0.2688 -4.1435
   41CHL1   C20 5490   2.517   6.625   9.125  0.7879 -0.2346  0.4055
   41CHL1   H20 5491   2.569   6.545   9.068 -0.4593  0.2530 -1.4822
   41CHL1   C21 5492   2.622   6.713   9.191  0.4982  0.9063 -0.4162
   41CHL1  H21A 5493   2.696   6.644   9.237 -0.1224 -1.1985 -2.3933
   41CHL1  H21B 5494   2.581   6.787   9.263  0.7894 -1.4412  2.3588
   41CHL1  H21C 5495   2.675   6.772   9.114  0.8382  0.0255 -0.8674
   41CHL1   C22 5496   2.419   6.689   9.019 -0.1795  0.3736  0.1488
   41CHL1  H22A 5497   2.348   6.629   8.958  2.3118  0.1786 -2.7361
   41CHL1  H22B 5498   2.359   6.768   9.070  0.5526  0.8771  0.2373
   41CHL1   C23 5499   2.498   6.757   8.910  0.0669 -0.3502  0.3252
   41CHL1  H23A 5500   2.535   6.853   8.952 -1.4515  1.0229 -1.3575
   41CHL1  H23B 5501   2.574   6.680   8.885 -1.3390 -1.0685 -2.0253
   41CHL1   C24 5502   2.418   6.789   8.786 -0.6903  0.3994  0.0704
   41CHL1  H24A 5503   2.387   6.694   8.737  3.0061 -0.9505  0.0289
   41CHL1  H24B 5504   2.326   6.849   8.803 -1.2820  0.0879 -1.7332
   41CHL1   C25 5505   2.499   6.873   8.684 -0.9189 -0.1959 -0.3529
   41CHL1   H25 5506   2.536   6.959   8.743  0.2153 -1.6672  1.1903
   41CHL1   C26 5507   2.628   6.795   8.632  0.4065  0.4315  0.0398
   41CHL1  H26A 5508   2.677   6.855   8.552  0.5783 -0.9036 -0.9076
   41CHL1  H26B 5509   2.699   6.781   8.715 -1.3917 -0.0018  1.5798
   41CHL1  H26C 5510   2.602   6.695   8.589  0.1340  0.9446 -1.0314
   41CHL1   C27 5511   2.408   6.926   8.567  0.2760 -0.2505 -0.4066
   41CHL1  H27A 5512   2.320   6.978   8.611  2.4749  1.7542  1.9590
   41CHL1  H27B 5513   2.458   7.007   8.509 -0.2567  0.4798  0.1393
   41CHL1  H27C 5514   2.385   6.841   8.500 -0.3317 -1.2113  0.9812
   42CHL1    C3 5515   0.768   4.881   9.865 -0.6900 -0.0811 -0.2113
   42CHL1    H3 5516   0.746   4.981   9.908 -0.7289 -0.8771  1.7185
   42CHL1    O3 5517   0.770   4.797   9.980  0.2084 -0.3586 -0.4764
   42CHL1   H3' 5518   0.811   4.713   9.957  1.5175 -0.1093  0.7943
   42CHL1    C4 5519   0.656   4.842   9.770 -0.7543 -0.4272 -0.5174
   42CHL1   H4A 5520   0.668   4.734   9.746  0.1872 -0.7181  1.1247
   42CHL1   H4B 5521   0.560   4.859   9.823  0.4347  1.6163  1.1390
   42CHL1    C5 5522   0.663   4.914   9.639 -0.9603 -0.2165  0.0513
   42CHL1    C6 5523   0.554   4.972   9.591 -0.5475 -0.0027 -0.9878
   42CHL1    H6 5524   0.462   4.958   9.650 -1.0241 -2.0720 -2.1358
   42CHL1    C7 5525   0.548   5.051   9.467 -0.2319  0.3334 -0.5195
   42CHL1   H7A 5526   0.464   5.020   9.401  0.4185  0.0306 -1.2211
   42CHL1   H7B 5527   0.529   5.159   9.487 -1.5929  0.8348 -3.8393
   42CHL1    C8 5528   0.675   5.039   9.377  0.1005  0.1877 -0.2348
   42CHL1    H8 5529   0.679   4.939   9.328 -3.6530  0.0923 -0.6989
   42CHL1   C14 5530   0.669   5.150   9.269 -0.3453  0.7702 -0.4438
   42CHL1   H14 5531   0.673   5.245   9.326 -4.2992  0.5124  0.5673
   42CHL1   C15 5532   0.548   5.173   9.185  0.2642  0.1446  0.0416
   42CHL1  H15A 5533   0.507   5.073   9.156 -0.0993  0.6223 -1.1474
   42CHL1  H15B 5534   0.467   5.229   9.236  0.1124  0.4486 -0.5279
   42CHL1   C16 5535   0.593   5.246   9.060 -0.2559 -0.0586 -0.4726
   42CHL1  H16A 5536   0.568   5.186   8.969  0.6898 -1.1343 -0.0516
   42CHL1  H16B 5537   0.540   5.343   9.051  1.1852  0.9488  1.1375
   42CHL1   C17 5538   0.742   5.264   9.077 -0.3080  0.7493  0.1467
   42CHL1   H17 5539   0.757   5.356   9.138  0.4473 -0.9312  2.6674
   42CHL1   C13 5540   0.792   5.150   9.175  0.4261  0.6703  0.6371
   42CHL1   C18 5541   0.804   5.016   9.091  0.7081 -0.2822  0.0712
   42CHL1  H18A 5542   0.890   5.024   9.022 -0.3648  1.7322 -1.1361
   42CHL1  H18B 5543   0.828   4.935   9.163  0.8941 -1.6680 -1.5090
   42CHL1  H18C 5544   0.713   4.988   9.034 -0.7984 -0.0375  2.2375
   42CHL1   C12 5545   0.917   5.171   9.265  0.2922 -0.7831  0.1170
   42CHL1  H12A 5546   1.008   5.143   9.207  1.2731  0.5620  0.9358
   42CHL1  H12B 5547   0.932   5.275   9.302 -4.6462  0.1927  0.1289
   42CHL1   C11 5548   0.928   5.072   9.380  0.2524  0.5688 -0.0789
   42CHL1  H11A 5549   0.966   4.977   9.337 -1.2321  0.6791 -1.7896
   42CHL1  H11B 5550   1.020   5.099   9.435 -0.4461  1.4521  0.6843
   42CHL1    C9 5551   0.796   5.046   9.468  0.8845 -0.2953 -0.3047
   42CHL1    H9 5552   0.788   5.137   9.531  4.3356 -1.6491  2.4061
   42CHL1   C10 5553   0.806   4.930   9.568 -0.2241 -0.2853 -0.3815
   42CHL1   C19 5554   0.846   4.800   9.496  0.0625 -0.2375 -0.3490
   42CHL1  H19A 5555   0.766   4.757   9.431  0.7043 -0.7117 -0.8341
   42CHL1  H19B 5556   0.934   4.812   9.430  0.1643 -2.2206 -0.6331
   42CHL1  H19C 5557   0.862   4.725   9.577  0.5027  0.4716  0.2292
   42CHL1    C1 5558   0.920   4.963   9.671  0.0671 -0.0691  0.3439
   42CHL1   H1A 5559   1.011   4.939   9.612 -1.2943  1.7328 -2.7585
   42CHL1   H1B 5560   0.913   5.070   9.702 -1.0808  0.6286 -2.0825
   42CHL1    C2 5561   0.902   4.876   9.801 -0.6059  0.4059  0.4370
   42CHL1   H2A 5562   0.975   4.904   9.880  0.1543  1.9380 -0.7653
   42CHL1   H2B 5563   0.941   4.772   9.788 -0.9725  0.3084  0.0670
   42CHL1   C20 5564   0.819   5.293   8.946  0.0354 -0.3837  0.3661
   42CHL1   H20 5565   0.802   5.203   8.883  1.3678 -0.3263 -0.1185
   42CHL1   C21 5566   0.971   5.294   8.977  0.0732 -0.0710  0.7106
   42CHL1  H21A 5567   1.004   5.197   9.019  1.1468  0.7820  1.9306
   42CHL1  H21B 5568   1.000   5.373   9.050  1.6281  1.0891 -1.0573
   42CHL1  H21C 5569   1.022   5.324   8.883  0.6442 -2.5608  0.1681
   42CHL1   C22 5570   0.764   5.419   8.875 -0.0814 -0.7652  0.2530
   42CHL1  H22A 5571   0.653   5.424   8.873 -0.1149 -0.2859  1.8944
   42CHL1  H22B 5572   0.798   5.506   8.935  1.1930 -0.7786 -0.4094
   42CHL1   C23 5573   0.822   5.433   8.732  0.1863 -0.3147 -0.1483
   42CHL1  H23A 5574   0.932   5.426   8.720  0.4792  0.4434  1.6724
   42CHL1  H23B 5575   0.777   5.350   8.673  0.9831 -0.2912 -0.8011
   42CHL1   C24 5576   0.793   5.562   8.661  0.0369 -0.0956 -1.0263
   42CHL1  H24A 5577   0.686   5.590   8.674  0.0797 -0.7070  0.8825
   42CHL1  H24B 5578   0.855   5.645   8.702  0.3483 -1.1177  0.6260
   42CHL1   C25 5579   0.810   5.559   8.506 -0.0681  0.2698 -0.7323
   42CHL1   H25 5580   0.737   5.489   8.459  0.3251 -0.1538 -0.7180
   42CHL1   C26 5581   0.786   5.698   8.446  0.5698 -0.5562  0.4466
   42CHL1  H26A 5582   0.788   5.686   8.336 -1.8199 -1.1325  0.4074
   42CHL1  H26B 5583   0.683   5.726   8.478  1.1051 -0.3387  2.0577
   42CHL1  H26C 5584   0.855   5.781   8.469  0.1705 -0.2542  0.5777
   42CHL1   C27 5585   0.943   5.510   8.458  0.5602  0.3607 -0.2461
   42CHL1  H27A 5586   0.944   5.520   8.347  1.0637  0.5466 -0.2262
   42CHL1  H27B 5587   1.027   5.568   8.501 -0.6829  4.4555 -2.7390
   42CHL1  H27C 5588   0.950   5.404   8.490  1.5287  0.5129  0.0632
   43CHL1    C3 5589   2.649   5.863  10.015 -0.0177  0.2197 -0.3707
   43CHL1    H3 5590   2.612   5.968  10.023  2.3442  1.2233 -1.3390
   43CHL1    O3 5591   2.690   5.831  10.149  0.1586  0.1969 -0.1567
   43CHL1   H3' 5592   2.717   5.739  10.144 -0.2789 -0.1047  2.0007
   43CHL1    C4 5593   2.537   5.764   9.986  0.8391  0.0552  0.7706
   43CHL1   H4A 5594   2.576   5.661   9.980  1.2619  0.2562 -0.1017
   43CHL1   H4B 5595   2.458   5.773  10.065 -0.5289  0.0713 -0.5474
   43CHL1    C5 5596   2.481   5.794   9.847 -0.1597 -0.4668  0.2095
   43CHL1    C6 5597   2.362   5.834   9.829  0.6544 -0.1829  0.0872
   43CHL1    H6 5598   2.301   5.845   9.919  0.5406  0.9862 -0.1167
   43CHL1    C7 5599   2.300   5.864   9.697 -0.0866  0.7028 -0.3974
   43CHL1   H7A 5600   2.207   5.805   9.682  0.7968 -1.4869  1.9293
   43CHL1   H7B 5601   2.270   5.970   9.693 -0.8111  0.7294  2.9369
   43CHL1    C8 5602   2.400   5.823   9.583 -0.3655  0.4134  0.6924
   43CHL1    H8 5603   2.407   5.712   9.585 -1.6348  0.3243  2.4801
   43CHL1   C14 5604   2.348   5.875   9.441  0.5280  0.0814  0.2214
   43CHL1   H14 5605   2.356   5.986   9.446  0.4148  0.0359  1.9407
   43CHL1   C15 5606   2.203   5.857   9.404 -0.4704  0.6614 -0.1159
   43CHL1  H15A 5607   2.175   5.756   9.440  2.0136 -0.3313 -0.7135
   43CHL1  H15B 5608   2.152   5.938   9.460 -0.6871  0.5186 -0.1075
   43CHL1   C16 5609   2.196   5.886   9.259  0.3593  0.2951 -0.4725
   43CHL1  H16A 5610   2.142   5.801   9.210  0.5310 -1.5648  2.3234
   43CHL1  H16B 5611   2.141   5.981   9.242 -0.4556 -0.5743 -3.1745
   43CHL1   C17 5612   2.349   5.910   9.206 -0.5235  0.3869  0.5160
   43CHL1   H17 5613   2.365   6.020   9.215  0.6501  0.1546  1.4911
   43CHL1   C13 5614   2.435   5.841   9.320  0.3055  0.0196 -0.0576
   43CHL1   C18 5615   2.421   5.691   9.297  0.2811  0.7209 -0.3106
   43CHL1  H18A 5616   2.316   5.660   9.276 -0.4557  2.3309  0.8558
   43CHL1  H18B 5617   2.494   5.662   9.218  0.1390 -0.7309  0.0501
   43CHL1  H18C 5618   2.451   5.638   9.390  0.6724  0.0978 -0.7879
   43CHL1   C12 5619   2.583   5.888   9.344  0.2776 -0.2758  0.3367
   43CHL1  H12A 5620   2.649   5.853   9.263 -0.1167 -1.0401  0.3354
   43CHL1  H12B 5621   2.587   5.999   9.342 -0.1798 -0.2269 -2.7919
   43CHL1   C11 5622   2.632   5.821   9.475 -0.0018 -0.3258 -0.0455
   43CHL1  H11A 5623   2.632   5.710   9.462  1.0332 -0.1967 -1.3523
   43CHL1  H11B 5624   2.736   5.855   9.493 -0.4365  0.3296  1.3619
   43CHL1    C9 5625   2.544   5.854   9.599 -0.0619  0.1763  0.2885
   43CHL1    H9 5626   2.545   5.964   9.616  2.9428 -0.0092  1.9662
   43CHL1   C10 5627   2.587   5.794   9.733 -0.2557  0.2973 -0.4764
   43CHL1   C19 5628   2.633   5.649   9.701 -0.3312  0.1392 -0.7680
   43CHL1  H19A 5629   2.660   5.597   9.795  0.8743 -2.4219 -2.4429
   43CHL1  H19B 5630   2.551   5.592   9.652  1.3273 -0.6010 -2.8277
   43CHL1  H19C 5631   2.720   5.640   9.633 -0.6531  0.3672 -1.2146
   43CHL1    C1 5632   2.717   5.864   9.783 -0.4178 -0.2049 -0.7052
   43CHL1   H1A 5633   2.799   5.844   9.711  1.3861  0.0554  1.1946
   43CHL1   H1B 5634   2.718   5.974   9.770  1.3232 -0.3835 -2.5567
   43CHL1    C2 5635   2.763   5.842   9.926  0.0388  0.0397 -0.0781
   43CHL1   H2A 5636   2.853   5.907   9.933 -0.4521  0.7862 -0.5699
   43CHL1   H2B 5637   2.806   5.741   9.939 -1.4108 -0.5327  0.4998
   43CHL1   C20 5638   2.357   5.880   9.057 -0.6018 -0.4019  0.5067
   43CHL1   H20 5639   2.343   5.772   9.038  0.6900 -0.4217 -0.4667
   43CHL1   C21 5640   2.503   5.920   9.010 -0.2513  0.2442  0.7073
   43CHL1  H21A 5641   2.528   5.916   8.902 -1.0035  0.3551  0.5240
   43CHL1  H21B 5642   2.578   5.858   9.064 -0.3172  0.1223  0.6593
   43CHL1  H21C 5643   2.533   6.023   9.038  1.9683 -0.7242  2.2042
   43CHL1   C22 5644   2.253   5.959   8.963 -0.6378  0.1596 -0.0502
   43CHL1  H22A 5645   2.149   5.931   8.993  0.0933 -2.4341  0.3155
   43CHL1  H22B 5646   2.272   6.066   8.985  2.6380 -0.3584  0.1413
   43CHL1   C23 5647   2.271   5.921   8.812  0.3814 -0.6545 -0.3886
   43CHL1  H23A 5648   2.199   5.973   8.746  0.7857 -0.1812 -0.4584
   43CHL1  H23B 5649   2.364   5.974   8.782 -0.8256  0.8868 -1.6183
   43CHL1   C24 5650   2.280   5.770   8.776 -0.0405 -0.2250  0.7234
   43CHL1  H24A 5651   2.373   5.727   8.817  0.9646 -0.0279 -1.2343
   43CHL1  H24B 5652   2.200   5.717   8.832  0.0489 -0.7530  0.3553
   43CHL1   C25 5653   2.260   5.733   8.637  0.2423  0.0070  0.7513
   43CHL1   H25 5654   2.163   5.768   8.597  2.2195  1.0438 -3.8268
   43CHL1   C26 5655   2.368   5.790   8.536  0.0027  0.0004 -0.2503
   43CHL1  H26A 5656   2.360   5.900   8.550 -0.1475 -0.0839  0.3845
   43CHL1  H26B 5657   2.470   5.754   8.560  0.3056 -1.4184 -3.3273
   43CHL1  H26C 5658   2.335   5.760   8.435 -0.2927 -1.3464  0.2237
   43CHL1   C27 5659   2.252   5.573   8.637 -0.4929 -0.8643  0.1622
   43CHL1  H27A 5660   2.171   5.541   8.706 -3.4816  0.9636 -2.1733
   43CHL1  H27B 5661   2.228   5.534   8.535 -1.0631  0.5550 -0.2707
   43CHL1  H27C 5662   2.349   5.534   8.674  0.3662  0.6006 -0.4353
   44CHL1    C3 5663   3.644   5.283  10.103 -0.1588  0.3862 -0.2300
   44CHL1    H3 5664   3.606   5.185  10.067 -1.1805  1.0449 -0.9927
   44CHL1    O3 5665   3.654   5.293  10.249 -0.0793  0.2595 -0.2310
   44CHL1   H3' 5666   3.744   5.323  10.265 -0.5439  2.2476 -1.1166
   44CHL1    C4 5667   3.774   5.314  10.035  0.1753  0.1406  0.2795
   44CHL1   H4A 5668   3.802   5.418  10.064  0.0823  0.2600 -0.0547
   44CHL1   H4B 5669   3.856   5.246  10.067 -0.6530 -1.4878 -0.9206
   44CHL1    C5 5670   3.756   5.325   9.884 -0.2999 -0.9741  0.0078
   44CHL1    C6 5671   3.834   5.248   9.802  0.2695 -0.3274 -0.5610
   44CHL1    H6 5672   3.916   5.194   9.852 -1.6355  0.0631  3.3863
   44CHL1    C7 5673   3.827   5.243   9.652 -0.2003  0.0745  0.1207
   44CHL1   H7A 5674   3.928   5.235   9.606 -0.1249 -0.8513  0.4114
   44CHL1   H7B 5675   3.770   5.161   9.602 -0.2816  1.4995 -2.2638
   44CHL1    C8 5676   3.747   5.371   9.601 -0.6764  0.3322  0.2288
   44CHL1    H8 5677   3.802   5.468   9.607 -0.4469  0.3122 -1.2194
   44CHL1   C14 5678   3.704   5.342   9.456 -0.3002  0.0672 -0.0724
   44CHL1   H14 5679   3.638   5.253   9.466 -0.7124  0.3195 -0.5439
   44CHL1   C15 5680   3.814   5.302   9.352  0.3323  0.1338 -0.0802
   44CHL1  H15A 5681   3.908   5.359   9.370  0.1616  1.2269 -2.3707
   44CHL1  H15B 5682   3.821   5.194   9.374 -1.0110  0.5762  3.2414
   44CHL1   C16 5683   3.749   5.327   9.220 -0.1960 -0.4902 -0.4599
   44CHL1  H16A 5684   3.824   5.383   9.159 -1.1710 -2.7274 -4.0323
   44CHL1  H16B 5685   3.735   5.231   9.165  0.1921  0.3056 -2.0192
   44CHL1   C17 5686   3.617   5.394   9.248  0.0481 -0.3623 -0.1198
   44CHL1   H17 5687   3.543   5.312   9.258 -0.6156  0.2320 -0.1258
   44CHL1   C13 5688   3.625   5.457   9.391 -1.2388 -0.1203 -0.4165
   44CHL1   C18 5689   3.711   5.593   9.397  0.0273 -0.2514  0.3456
   44CHL1  H18A 5690   3.655   5.682   9.360 -0.3085 -0.4207  0.4408
   44CHL1  H18B 5691   3.728   5.616   9.504 -2.8570 -0.7612  1.0045
   44CHL1  H18C 5692   3.803   5.574   9.337  0.4487 -0.8711  1.1630
   44CHL1   C12 5693   3.492   5.467   9.464  0.4028 -0.0115  0.3908
   44CHL1  H12A 5694   3.446   5.560   9.427 -0.0039 -0.4974 -0.3441
   44CHL1  H12B 5695   3.427   5.378   9.452  0.5117 -0.1661  0.8972
   44CHL1   C11 5696   3.520   5.477   9.620 -0.7493 -0.1812 -0.0773
   44CHL1  H11A 5697   3.549   5.583   9.638  1.5739 -0.8685  0.6695
   44CHL1  H11B 5698   3.423   5.459   9.670 -0.9567  0.0922 -0.3831
   44CHL1    C9 5699   3.621   5.378   9.683  0.1916  0.7180 -1.0836
   44CHL1    H9 5700   3.577   5.276   9.676  1.2367  0.2777 -1.3386
   44CHL1   C10 5701   3.645   5.412   9.833 -0.2249 -0.4147 -0.0443
   44CHL1   C19 5702   3.667   5.564   9.846 -0.1418  0.5686  0.0808
   44CHL1  H19A 5703   3.587   5.639   9.828 -2.4416 -1.1338  2.3593
   44CHL1  H19B 5704   3.699   5.591   9.949  0.3143  0.9104 -0.1454
   44CHL1  H19C 5705   3.762   5.595   9.799  0.0552  1.0581  0.7901
   44CHL1    C1 5706   3.515   5.379   9.916  0.7823  0.9771 -0.1176
   44CHL1   H1A 5707   3.435   5.444   9.875 -0.9253 -1.4825 -0.9396
   44CHL1   H1B 5708   3.495   5.275   9.883 -0.9506  1.2291  0.0421
   44CHL1    C2 5709   3.530   5.380  10.065 -0.3055  0.1118  0.1750
   44CHL1   H2A 5710   3.442   5.345  10.124  0.6950  0.3906  1.9175
   44CHL1   H2B 5711   3.562   5.480  10.101  0.0260  0.0206  0.1366
   44CHL1   C20 5712   3.577   5.501   9.139 -0.0292  0.1176  0.3580
   44CHL1   H20 5713   3.653   5.582   9.144  0.2975 -0.2220  1.0151
   44CHL1   C21 5714   3.445   5.568   9.164  0.7442  0.1746 -0.5837
   44CHL1  H21A 5715   3.408   5.622   9.074  1.2543 -1.2661 -1.7015
   44CHL1  H21B 5716   3.443   5.644   9.245 -0.8648  0.2662 -0.6678
   44CHL1  H21C 5717   3.372   5.485   9.175  0.6945  0.0085 -1.9691
   44CHL1   C22 5718   3.585   5.441   8.999  0.4716  0.1180 -0.6120
   44CHL1  H22A 5719   3.682   5.391   8.976 -0.2095 -0.6674 -1.8631
   44CHL1  H22B 5720   3.515   5.355   8.995 -1.0188  1.1542  1.3554
   44CHL1   C23 5721   3.549   5.540   8.885 -0.6437 -0.1295 -0.4042
   44CHL1  H23A 5722   3.441   5.562   8.873 -0.7617  0.2751  1.1957
   44CHL1  H23B 5723   3.604   5.633   8.910  0.3531 -1.0442  0.9342
   44CHL1   C24 5724   3.597   5.484   8.750 -0.2340  0.6308  0.1632
   44CHL1  H24A 5725   3.706   5.465   8.755  0.0113  2.0308  0.5342
   44CHL1  H24B 5726   3.548   5.392   8.710  1.1372  0.7398 -1.9351
   44CHL1   C25 5727   3.581   5.580   8.632  0.3395  0.7198 -0.3996
   44CHL1   H25 5728   3.474   5.605   8.617  0.5409  0.8254 -1.8038
   44CHL1   C26 5729   3.667   5.712   8.651  0.6817  0.5402 -0.3470
   44CHL1  H26A 5730   3.770   5.684   8.684  0.6610  1.2799  0.3625
   44CHL1  H26B 5731   3.673   5.759   8.551 -0.1815 -1.5737 -1.4431
   44CHL1  H26C 5732   3.624   5.777   8.730  2.0458  0.5320  0.4318
   44CHL1   C27 5733   3.631   5.509   8.505  0.0063 -0.1400  0.1679
   44CHL1  H27A 5734   3.614   5.575   8.418 -0.4260 -0.8959 -0.3401
   44CHL1  H27B 5735   3.734   5.471   8.517 -0.3840 -0.9416  1.1739
   44CHL1  H27C 5736   3.570   5.416   8.495  0.7598 -0.6415  0.1911
   45CHL1    C3 5737   6.553   2.811  10.439  0.3715  0.2643 -0.0423
   45CHL1    H3 5738   6.445   2.788  10.421  0.3169 -0.3690  1.0221
   45CHL1    O3 5739   6.567   2.827  10.578  0.2516 -0.0395 -0.3147
   45CHL1   H3' 5740   6.660   2.803  10.588  1.1009  2.8308 -0.4939
   45CHL1    C4 5741   6.628   2.699  10.369 -0.2939 -0.4191  0.0959
   45CHL1   H4A 5742   6.737   2.700  10.390 -0.2890  0.3865  0.0723
   45CHL1   H4B 5743   6.597   2.601  10.412 -2.8412  0.7274  1.1303
   45CHL1    C5 5744   6.602   2.696  10.225 -0.4169 -0.3574  0.4857
   45CHL1    C6 5745   6.546   2.586  10.171 -0.0069 -0.2621  0.1089
   45CHL1    H6 5746   6.531   2.496  10.232  0.2947 -0.5875 -0.2886
   45CHL1    C7 5747   6.508   2.571  10.029 -0.1304 -0.0037  0.6606
   45CHL1   H7A 5748   6.533   2.476   9.978  0.6470  0.1041  0.8292
   45CHL1   H7B 5749   6.397   2.567  10.041 -0.2679  1.7543  0.3382
   45CHL1    C8 5750   6.552   2.692   9.940 -0.4001 -0.7800  0.3353
   45CHL1    H8 5751   6.473   2.709   9.864  0.1828  1.6131  0.1896
   45CHL1   C14 5752   6.681   2.658   9.849  0.8810 -0.4343  0.1674
   45CHL1   H14 5753   6.758   2.626   9.923 -1.8684 -2.1542  2.5513
   45CHL1   C15 5754   6.657   2.535   9.747 -0.5138 -0.9187 -0.5629
   45CHL1  H15A 5755   6.738   2.459   9.744  1.1992  0.8109  0.0050
   45CHL1  H15B 5756   6.553   2.504   9.769 -1.3249 -0.1702 -3.0276
   45CHL1   C16 5757   6.649   2.609   9.610  0.0523 -0.1845  0.0545
   45CHL1  H16A 5758   6.737   2.583   9.547 -1.2391 -1.7883 -1.1741
   45CHL1  H16B 5759   6.562   2.572   9.552  1.0449 -1.2401 -0.8237
   45CHL1   C17 5760   6.642   2.761   9.637  0.1885  0.7326 -0.0484
   45CHL1   H17 5761   6.538   2.780   9.672  0.6344 -0.8334  2.4003
   45CHL1   C13 5762   6.730   2.778   9.763 -0.4998 -0.1372  0.7275
   45CHL1   C18 5763   6.884   2.737   9.728  0.3038 -0.5768 -0.6410
   45CHL1  H18A 5764   6.926   2.799   9.646 -0.7968  0.2331 -0.6306
   45CHL1  H18B 5765   6.955   2.745   9.813 -0.0392 -0.0065 -0.4002
   45CHL1  H18C 5766   6.889   2.634   9.687 -2.3799 -0.1477 -2.3296
   45CHL1   C12 5767   6.719   2.918   9.827 -0.3617  0.2275  0.1984
   45CHL1  H12A 5768   6.812   2.918   9.888  0.1743 -0.2812 -0.5980
   45CHL1  H12B 5769   6.716   2.989   9.742  0.0105  1.2044  0.9774
   45CHL1   C11 5770   6.596   2.946   9.918  0.2662 -0.4095 -0.8398
   45CHL1  H11A 5771   6.618   3.037   9.978  0.0142  0.0538 -1.4411
   45CHL1  H11B 5772   6.501   2.966   9.863 -1.3199  1.0917  2.2322
   45CHL1    C9 5773   6.560   2.831  10.015  0.5073  0.0859 -0.6621
   45CHL1    H9 5774   6.453   2.839  10.044  0.5269 -0.2824 -0.4730
   45CHL1   C10 5775   6.624   2.831  10.151  0.2608 -0.3638  0.0916
   45CHL1   C19 5776   6.776   2.857  10.145 -0.1101 -0.5699 -0.3165
   45CHL1  H19A 5777   6.825   2.793  10.069 -0.2299 -0.6048 -0.3632
   45CHL1  H19B 5778   6.793   2.962  10.115  0.2253 -0.8838 -1.2613
   45CHL1  H19C 5779   6.827   2.843  10.243  2.2862 -0.0559 -1.4358
   45CHL1    C1 5780   6.549   2.939  10.232 -0.1706 -0.3757 -0.2932
   45CHL1   H1A 5781   6.567   3.040  10.189 -2.2118  0.4903  0.7539
   45CHL1   H1B 5782   6.440   2.921  10.226 -0.2249  0.3760 -2.6735
   45CHL1    C2 5783   6.578   2.952  10.376 -0.3100  0.2730  0.0471
   45CHL1   H2A 5784   6.511   3.031  10.414 -1.3910 -0.8600  0.5761
   45CHL1   H2B 5785   6.682   2.980  10.403 -0.6138  1.2495  0.2099
   45CHL1   C20 5786   6.666   2.848   9.507 -0.3709 -0.5421  0.3366
   45CHL1   H20 5787   6.744   2.923   9.532 -0.7952 -0.1124  0.3823
   45CHL1   C21 5788   6.539   2.940   9.488  0.3993 -0.1831 -0.2012
   45CHL1  H21A 5789   6.510   2.998   9.579  0.5136 -1.6464  0.8045
   45CHL1  H21B 5790   6.450   2.880   9.460  0.4093  0.3711 -1.4878
   45CHL1  H21C 5791   6.560   3.017   9.411  0.2326  0.8914  0.7949
   45CHL1   C22 5792   6.703   2.780   9.378  0.0722 -0.0029  0.1364
   45CHL1  H22A 5793   6.788   2.711   9.399 -1.1111 -1.0562  1.6981
   45CHL1  H22B 5794   6.619   2.710   9.357 -0.9200  1.0010  0.6255
   45CHL1   C23 5795   6.734   2.870   9.263 -0.6753 -0.7302  0.0557
   45CHL1  H23A 5796   6.647   2.932   9.235 -0.0459 -0.4984 -1.4969
   45CHL1  H23B 5797   6.824   2.928   9.293  0.6491 -3.0358  0.8336
   45CHL1   C24 5798   6.770   2.791   9.138  0.0871 -0.5292  0.0995
   45CHL1  H24A 5799   6.864   2.733   9.147  0.5355  0.1289 -0.2235
   45CHL1  H24B 5800   6.687   2.721   9.118 -2.3660  1.8631  1.3297
   45CHL1   C25 5801   6.778   2.878   9.014  0.1343  0.4096 -0.3209
   45CHL1   H25 5802   6.693   2.949   9.008 -0.0095  0.2640 -0.0392
   45CHL1   C26 5803   6.908   2.961   9.018  0.0081  0.0179  0.7753
   45CHL1  H26A 5804   6.893   3.044   9.089  0.2168  3.5466 -2.9171
   45CHL1  H26B 5805   6.999   2.908   9.055  1.4861  2.4398  0.8505
   45CHL1  H26C 5806   6.921   3.014   8.921  0.1095 -0.4760  0.5148
   45CHL1   C27 5807   6.788   2.784   8.892 -0.1532  0.6347  0.6409
   45CHL1  H27A 5808   6.692   2.729   8.886  0.2959 -0.1259  0.4343
   45CHL1  H27B 5809   6.799   2.849   8.802 -0.3150 -0.4128 -0.1503
   45CHL1  H27C 5810   6.874   2.715   8.889 -1.1074 -0.5479 -0.3289
   46CHL1    C3 5811   2.489   0.250   9.948 -0.5459 -0.9128  0.9228
   46CHL1    H3 5812   2.389   0.258   9.901  0.2407  1.0996 -0.5504
   46CHL1    O3 5813   2.476   0.189  10.070 -0.3929 -0.6581 -0.4548
   46CHL1   H3' 5814   2.427   0.107  10.063 -1.9874 -0.1330  2.7301
   46CHL1    C4 5815   2.581   0.152   9.862 -0.0871  0.2893  0.1923
   46CHL1   H4A 5816   2.680   0.141   9.912  2.0697 -0.3089 -3.7742
   46CHL1   H4B 5817   2.538   0.050   9.865 -1.0822  0.7187  1.8955
   46CHL1    C5 5818   2.607   0.196   9.722  0.2128 -0.3727 -0.1021
   46CHL1    C6 5819   2.578   0.117   9.616 -0.3895 -0.2071 -0.0896
   46CHL1    H6 5820   2.537   0.016   9.629  1.7089 -1.1246 -0.2750
   46CHL1    C7 5821   2.597   0.158   9.472 -0.7296 -0.4365  0.5557
   46CHL1   H7A 5822   2.648   0.082   9.409 -1.4543 -0.1904 -0.3433
   46CHL1   H7B 5823   2.501   0.172   9.418 -0.4594  0.9122  0.4024
   46CHL1    C8 5824   2.682   0.286   9.456  0.1047  0.5479  0.4194
   46CHL1    H8 5825   2.789   0.262   9.475  0.3779  0.5874 -0.9513
   46CHL1   C14 5826   2.671   0.340   9.316 -0.2544  0.3911  0.4712
   46CHL1   H14 5827   2.563   0.362   9.298 -0.5280 -1.7131 -0.7880
   46CHL1   C15 5828   2.695   0.251   9.192  0.4467 -1.5364 -1.0486
   46CHL1  H15A 5829   2.789   0.198   9.219  0.1831 -0.2821  2.9966
   46CHL1  H15B 5830   2.613   0.179   9.171 -0.0385 -1.8939  1.7253
   46CHL1   C16 5831   2.738   0.350   9.080 -0.9473 -0.1791 -1.1668
   46CHL1  H16A 5832   2.844   0.329   9.057 -0.2446  0.0006  1.6052
   46CHL1  H16B 5833   2.682   0.332   8.985 -0.4369 -1.5692 -1.2219
   46CHL1   C17 5834   2.722   0.495   9.138 -0.2838 -0.3134  0.3120
   46CHL1   H17 5835   2.614   0.522   9.126 -0.8351 -1.9618  1.2615
   46CHL1   C13 5836   2.744   0.476   9.287  0.1649  0.5295 -0.0647
   46CHL1   C18 5837   2.900   0.463   9.319 -0.0392  0.6049  0.0075
   46CHL1  H18A 5838   2.918   0.431   9.424  2.1393  0.2021 -0.4421
   46CHL1  H18B 5839   2.953   0.385   9.261  0.2168  1.9163 -1.6154
   46CHL1  H18C 5840   2.945   0.564   9.306 -0.0857  0.6329  0.0589
   46CHL1   C12 5841   2.683   0.579   9.385  0.2691 -0.1919 -0.1038
   46CHL1  H12A 5842   2.740   0.674   9.383 -0.2246  0.1671 -3.5021
   46CHL1  H12B 5843   2.577   0.603   9.360  0.6333 -0.7090 -2.3080
   46CHL1   C11 5844   2.684   0.530   9.534 -1.0644 -0.1579 -0.0755
   46CHL1  H11A 5845   2.794   0.519   9.551 -1.2260 -2.0013 -0.0090
   46CHL1  H11B 5846   2.642   0.602   9.607  0.2189  0.5874 -0.0356
   46CHL1    C9 5847   2.628   0.389   9.559  0.1672  0.6126  0.1137
   46CHL1    H9 5848   2.519   0.408   9.546  0.2475  1.8685  1.1481
   46CHL1   C10 5849   2.648   0.343   9.703  0.0262  0.5417 -0.1033
   46CHL1   C19 5850   2.795   0.347   9.756  0.3693 -0.3309 -0.1203
   46CHL1  H19A 5851   2.787   0.338   9.867 -1.9786  0.6703 -0.1476
   46CHL1  H19B 5852   2.867   0.276   9.711 -1.2727 -2.3094  0.2446
   46CHL1  H19C 5853   2.819   0.454   9.737  0.4216 -0.4324 -0.6325
   46CHL1    C1 5854   2.559   0.447   9.799  0.3365 -0.2014  0.2914
   46CHL1   H1A 5855   2.597   0.552   9.798 -1.7629  0.6213 -0.3821
   46CHL1   H1B 5856   2.455   0.454   9.760 -0.0195  0.8662  1.3547
   46CHL1    C2 5857   2.545   0.398   9.945  0.0036  0.3906 -0.8147
   46CHL1   H2A 5858   2.471   0.457  10.004  0.1733 -0.5014  0.3368
   46CHL1   H2B 5859   2.640   0.397  10.002  0.8420  2.2636 -2.1163
   46CHL1   C20 5860   2.796   0.608   9.064  0.2940  0.2492  0.0927
   46CHL1   H20 5861   2.905   0.587   9.072  0.2524  0.0027  0.0268
   46CHL1   C21 5862   2.763   0.749   9.110  0.2539 -0.1814 -0.4948
   46CHL1  H21A 5863   2.812   0.760   9.209  0.7283 -0.6263 -0.6730
   46CHL1  H21B 5864   2.653   0.760   9.124 -0.0394 -1.8574 -1.1769
   46CHL1  H21C 5865   2.807   0.816   9.034 -1.0875  0.6825 -0.5508
   46CHL1   C22 5866   2.771   0.586   8.913 -0.3089 -0.3415  0.9313
   46CHL1  H22A 5867   2.798   0.483   8.882  0.2299  0.4514 -1.4435
   46CHL1  H22B 5868   2.663   0.601   8.889 -0.8015 -2.1441  1.8721
   46CHL1   C23 5869   2.846   0.677   8.808  0.9365  0.0728 -0.2892
   46CHL1  H23A 5870   2.819   0.641   8.706 -0.3903  0.9216 -0.2722
   46CHL1  H23B 5871   2.814   0.784   8.815 -2.7018 -0.8257 -0.7718
   46CHL1   C24 5872   3.000   0.660   8.818 -0.9081  0.3653 -0.2970
   46CHL1  H24A 5873   3.042   0.688   8.917  0.6619 -1.2948 -0.4443
   46CHL1  H24B 5874   3.041   0.557   8.813 -1.5659 -0.0894  2.3079
   46CHL1   C25 5875   3.077   0.728   8.707 -0.7067 -0.0903 -0.0789
   46CHL1   H25 5876   3.051   0.673   8.615 -1.4644 -0.1815  0.1836
   46CHL1   C26 5877   3.047   0.876   8.686 -0.0234 -0.0211  0.3011
   46CHL1  H26A 5878   2.938   0.888   8.666 -0.2868 -2.7395 -0.1838
   46CHL1  H26B 5879   3.082   0.929   8.777  0.2225 -0.9772  0.7679
   46CHL1  H26C 5880   3.104   0.920   8.601 -0.8444 -1.2878 -0.9457
   46CHL1   C27 5881   3.231   0.703   8.730  0.5398  0.1389  0.5717
   46CHL1  H27A 5882   3.247   0.613   8.794  0.9119 -0.6272 -0.5634
   46CHL1  H27B 5883   3.282   0.671   8.637 -1.5722  0.7397 -0.8688
   46CHL1  H27C 5884   3.286   0.783   8.784  0.8168 -0.0915  0.6361
   47CHL1    C3 5885   3.143   4.936   9.994  0.2504  0.2572  0.2867
   47CHL1    H3 5886   3.167   4.827   9.999  1.8866  0.6157  0.8722
   47CHL1    O3 5887   3.115   4.966  10.131  0.7890 -0.7043  0.1045
   47CHL1   H3' 5888   3.066   4.887  10.154  0.6707 -0.6570  0.0136
   47CHL1    C4 5889   3.270   5.012   9.940  0.3592 -0.2918 -1.0210
   47CHL1   H4A 5890   3.245   5.118   9.964  0.0844 -0.6721  0.5016
   47CHL1   H4B 5891   3.362   4.992   9.999  0.4449  1.1616 -0.6160
   47CHL1    C5 5892   3.293   5.002   9.794  0.0549 -0.0960 -0.3843
   47CHL1    C6 5893   3.413   4.971   9.748 -0.1567 -0.5010  0.2720
   47CHL1    H6 5894   3.497   4.969   9.819 -0.0180  1.3773  0.2038
   47CHL1    C7 5895   3.455   4.962   9.602 -0.4802  0.1211 -0.3992
   47CHL1   H7A 5896   3.544   5.020   9.570 -0.6549 -0.4331 -1.9515
   47CHL1   H7B 5897   3.485   4.858   9.580  0.9407  0.8432 -2.0197
   47CHL1    C8 5898   3.343   5.022   9.505  0.1663 -0.4644 -0.3460
   47CHL1    H8 5899   3.361   5.131   9.512 -1.2019 -0.2046 -0.6489
   47CHL1   C14 5900   3.371   4.977   9.361  0.1486  0.2297 -0.5590
   47CHL1   H14 5901   3.365   4.866   9.368  0.2519  0.2784  0.4790
   47CHL1   C15 5902   3.510   4.993   9.290 -0.5757  0.1155  0.1732
   47CHL1  H15A 5903   3.539   5.098   9.315 -0.0901  0.7360 -2.6723
   47CHL1  H15B 5904   3.568   4.918   9.348 -0.8741  0.9110  1.5508
   47CHL1   C16 5905   3.483   4.966   9.144 -0.8733  0.0963 -0.3819
   47CHL1  H16A 5906   3.518   5.063   9.103  0.3379  0.5723  1.6790
   47CHL1  H16B 5907   3.545   4.884   9.102 -0.0945  0.8142 -0.6659
   47CHL1   C17 5908   3.331   4.947   9.131  0.3307 -0.6474  1.1481
   47CHL1   H17 5909   3.325   4.837   9.149  0.3223 -1.0540 -1.0092
   47CHL1   C13 5910   3.266   5.016   9.259  0.4262  0.5757  0.0781
   47CHL1   C18 5911   3.248   5.167   9.245 -0.3974  0.1156  0.5044
   47CHL1  H18A 5912   3.220   5.232   9.329 -1.7604 -0.6062  0.6309
   47CHL1  H18B 5913   3.349   5.195   9.208 -1.2273  0.9044 -1.2660
   47CHL1  H18C 5914   3.176   5.199   9.166 -0.2590  0.5901  0.5700
   47CHL1   C12 5915   3.128   4.962   9.304  0.0058  0.5549 -0.7015
   47CHL1  H12A 5916   3.045   5.004   9.244  0.2584  1.8682 -0.1711
   47CHL1  H12B 5917   3.138   4.852   9.311  2.6952  0.7823  0.2067
   47CHL1   C11 5918   3.095   5.011   9.447  0.3420 -0.0955  0.6807
   47CHL1  H11A 5919   3.085   5.121   9.446 -0.6691 -0.1816  0.4344
   47CHL1  H11B 5920   3.005   4.958   9.486 -1.4977  2.1954 -0.2220
   47CHL1    C9 5921   3.203   4.982   9.553 -0.2457 -0.2915 -0.3752
   47CHL1    H9 5922   3.204   4.871   9.557  0.6697 -0.3507 -1.5501
   47CHL1   C10 5923   3.167   5.022   9.703 -0.1899 -0.4114 -0.2519
   47CHL1   C19 5924   3.128   5.171   9.700  0.1803 -0.1258  0.1675
   47CHL1  H19A 5925   3.204   5.232   9.647  1.7002  0.1838  2.5212
   47CHL1  H19B 5926   3.044   5.187   9.628  0.4427 -0.6711 -0.2634
   47CHL1  H19C 5927   3.112   5.220   9.799  1.2087  0.4781  0.0412
   47CHL1    C1 5928   3.048   4.943   9.757 -0.5274  0.2994  0.3218
   47CHL1   H1A 5929   2.959   4.963   9.694  0.1778 -3.4403 -2.1974
   47CHL1   H1B 5930   3.074   4.836   9.747  0.0785  0.4554  0.1973
   47CHL1    C2 5931   3.019   4.961   9.909 -0.2755 -0.1259 -0.5085
   47CHL1   H2A 5932   2.947   4.886   9.947  2.6382 -1.2853  3.4558
   47CHL1   H2B 5933   2.983   5.063   9.935 -2.9992 -0.9319 -0.7944
   47CHL1   C20 5934   3.267   4.965   8.987 -0.5406  0.1016 -0.1064
   47CHL1   H20 5935   3.157   4.970   9.003 -0.6438 -0.8238 -0.4361
   47CHL1   C21 5936   3.294   4.838   8.899  0.2270 -0.1624  0.4846
   47CHL1  H21A 5937   3.240   4.760   8.957 -0.7825  0.2656  0.1298
   47CHL1  H21B 5938   3.403   4.815   8.892  0.6298  1.6890  0.3017
   47CHL1  H21C 5939   3.241   4.856   8.803 -0.5716 -1.0161  0.7534
   47CHL1   C22 5940   3.307   5.098   8.925 -0.1155 -0.2251 -0.0217
   47CHL1  H22A 5941   3.316   5.182   8.997  1.3228  0.6376 -1.1356
   47CHL1  H22B 5942   3.404   5.081   8.873 -0.5672  0.7733 -1.2506
   47CHL1   C23 5943   3.208   5.142   8.820  1.1533 -0.0593  0.4950
   47CHL1  H23A 5944   3.211   5.067   8.739 -0.9651 -1.7404  1.8723
   47CHL1  H23B 5945   3.105   5.156   8.859  0.5923 -1.9838 -0.2081
   47CHL1   C24 5946   3.257   5.270   8.740  0.1828 -0.3648 -0.1634
   47CHL1  H24A 5947   3.243   5.353   8.812 -0.3884  0.2089 -0.9136
   47CHL1  H24B 5948   3.364   5.256   8.715  0.4465 -1.6898  1.5730
   47CHL1   C25 5949   3.178   5.310   8.618  0.8194  0.2414 -0.3832
   47CHL1   H25 5950   3.166   5.214   8.564  1.1189 -0.1407  0.2143
   47CHL1   C26 5951   3.053   5.382   8.648  0.3708  0.0954 -0.6501
   47CHL1  H26A 5952   2.982   5.325   8.712  1.2213  0.3141  0.5117
   47CHL1  H26B 5953   2.990   5.398   8.558  1.8721 -2.2406 -2.2459
   47CHL1  H26C 5954   3.066   5.476   8.705 -1.5288 -0.1681  0.2931
   47CHL1   C27 5955   3.268   5.397   8.533 -0.2475 -0.3939  0.1071
   47CHL1  H27A 5956   3.261   5.508   8.538  1.2559 -0.2219 -0.7834
   47CHL1  H27B 5957   3.375   5.371   8.550 -0.1473  0.4107  0.7539
   47CHL1  H27C 5958   3.229   5.372   8.432 -4.4479 -2.1177  1.9432
   48CHL1    C3 5959   3.381   4.603  10.075  0.4581 -0.4172  0.0281
   48CHL1    H3 5960   3.369   4.711  10.051  1.1014 -0.7410 -1.9204
   48CHL1    O3 5961   3.375   4.564  10.217 -0.2453 -0.1035  0.6798
   48CHL1   H3' 5962   3.399   4.471  10.215 -1.7293 -0.5155 -1.1937
   48CHL1    C4 5963   3.267   4.525   9.993 -0.2629 -0.0480  0.0067
   48CHL1   H4A 5964   3.270   4.418  10.026  0.7842 -0.1427 -0.3647
   48CHL1   H4B 5965   3.174   4.572  10.030  0.4862  1.6008 -0.1225
   48CHL1    C5 5966   3.276   4.540   9.842 -0.0720 -0.2274 -0.8317
   48CHL1    C6 5967   3.168   4.556   9.764 -0.3852 -0.2464  0.2596
   48CHL1    H6 5968   3.069   4.592   9.795 -0.8296 -0.3895 -0.9598
   48CHL1    C7 5969   3.171   4.556   9.612 -0.2268 -0.5460  0.4489
   48CHL1   H7A 5970   3.078   4.504   9.579  0.3396 -1.3453  0.0911
   48CHL1   H7B 5971   3.164   4.661   9.577 -0.5790 -0.6114  0.3133
   48CHL1    C8 5972   3.301   4.495   9.557  0.2738  0.2608  0.3433
   48CHL1    H8 5973   3.302   4.385   9.574 -2.1136  0.3080  1.1921
   48CHL1   C14 5974   3.317   4.517   9.407  0.1960 -0.1937  0.4269
   48CHL1   H14 5975   3.320   4.627   9.394 -1.2978 -0.3009 -1.1563
   48CHL1   C15 5976   3.209   4.470   9.304  0.6317  0.0048  0.5137
   48CHL1  H15A 5977   3.179   4.363   9.315  0.6521  0.0351  0.8638
   48CHL1  H15B 5978   3.118   4.533   9.317  2.0628  2.0577  1.0245
   48CHL1   C16 5979   3.265   4.486   9.162 -0.6436 -0.1951  0.1640
   48CHL1  H16A 5980   3.248   4.396   9.099 -1.4194  0.1354 -0.1167
   48CHL1  H16B 5981   3.241   4.579   9.106  2.0568  0.3052 -0.3296
   48CHL1   C17 5982   3.423   4.498   9.183  0.3435 -0.1274 -0.6767
   48CHL1   H17 5983   3.446   4.605   9.166  0.0741  0.2449  1.0662
   48CHL1   C13 5984   3.444   4.466   9.339 -0.0310 -0.1718 -0.3627
   48CHL1   C18 5985   3.453   4.316   9.353 -0.2341  0.7802 -0.2587
   48CHL1  H18A 5986   3.555   4.284   9.320  0.1058  0.2653  1.1837
   48CHL1  H18B 5987   3.438   4.280   9.458 -0.1895  0.6794 -0.2857
   48CHL1  H18C 5988   3.386   4.256   9.288  0.6626 -1.2706  0.5924
   48CHL1   C12 5989   3.561   4.535   9.418  0.2900 -0.2689  0.5166
   48CHL1  H12A 5990   3.662   4.514   9.378  0.9071  1.2799  1.1767
   48CHL1  H12B 5991   3.548   4.644   9.401  0.4509 -0.0348  1.8039
   48CHL1   C11 5992   3.565   4.508   9.573  0.0633 -0.5218  0.1207
   48CHL1  H11A 5993   3.597   4.404   9.594  1.2350 -0.4043 -0.9932
   48CHL1  H11B 5994   3.647   4.573   9.612  1.3170 -2.0119  0.0319
   48CHL1    C9 5995   3.428   4.545   9.640 -0.1583 -0.2132  0.0018
   48CHL1    H9 5996   3.417   4.656   9.633  0.3406 -0.2214 -1.1227
   48CHL1   C10 5997   3.421   4.515   9.793 -0.0926  1.5959  0.4018
   48CHL1   C19 5998   3.424   4.359   9.807 -0.6838 -0.9009 -1.4886
   48CHL1  H19A 5999   3.412   4.330   9.914  0.1790 -2.2191 -1.7257
   48CHL1  H19B 6000   3.348   4.298   9.754 -2.1832 -3.1707  2.7344
   48CHL1  H19C 6001   3.526   4.319   9.792 -0.5618 -0.5543 -1.5835
   48CHL1    C1 6002   3.528   4.584   9.872 -0.8042  0.1783  0.3104
   48CHL1   H1A 6003   3.624   4.539   9.839  0.5291  1.4667  2.2536
   48CHL1   H1B 6004   3.527   4.694   9.855 -1.6149  0.4334  1.8273
   48CHL1    C2 6005   3.518   4.571  10.022 -0.3675  0.6697 -0.3246
   48CHL1   H2A 6006   3.598   4.636  10.065  1.1698 -1.8434  0.8415
   48CHL1   H2B 6007   3.537   4.465  10.049 -3.2298  0.7648  2.6366
   48CHL1   C20 6008   3.496   4.421   9.072 -0.9258  0.8099 -0.2109
   48CHL1   H20 6009   3.474   4.314   9.088 -1.8020  1.0379  0.1951
   48CHL1   C21 6010   3.645   4.442   9.097  0.1346  0.1117  0.8912
   48CHL1  H21A 6011   3.662   4.552   9.099  0.8514  0.0184  0.3075
   48CHL1  H21B 6012   3.693   4.405   9.003  1.3412  0.5414  1.3127
   48CHL1  H21C 6013   3.689   4.404   9.192  0.0396  1.1548  1.3646
   48CHL1   C22 6014   3.463   4.455   8.935  0.4626 -0.3909  0.3481
   48CHL1  H22A 6015   3.365   4.507   8.930  1.5104  1.9137  1.8243
   48CHL1  H22B 6016   3.531   4.534   8.896 -0.5919  0.8637  0.9721
   48CHL1   C23 6017   3.472   4.336   8.834 -0.9237 -0.3899  0.8880
   48CHL1  H23A 6018   3.578   4.317   8.808 -0.4879  2.0469  0.6331
   48CHL1  H23B 6019   3.430   4.250   8.891  0.2635 -0.3595  1.8487
   48CHL1   C24 6020   3.381   4.359   8.712 -0.0478  0.4540  0.3724
   48CHL1  H24A 6021   3.384   4.260   8.662  1.6299 -0.0431  1.3699
   48CHL1  H24B 6022   3.278   4.380   8.746 -1.7399 -3.7589 -1.4657
   48CHL1   C25 6023   3.421   4.465   8.608  0.3753  0.1823 -0.8793
   48CHL1   H25 6024   3.449   4.558   8.663 -0.5815 -0.4604  0.7456
   48CHL1   C26 6025   3.539   4.402   8.525  0.6297  0.2961 -0.6142
   48CHL1  H26A 6026   3.632   4.394   8.585 -1.0051 -1.4711  1.8841
   48CHL1  H26B 6027   3.503   4.304   8.486  0.5125  0.0977 -0.0169
   48CHL1  H26C 6028   3.558   4.464   8.435  1.4629 -0.9368 -1.3103
   48CHL1   C27 6029   3.315   4.515   8.510 -0.2317 -0.0191 -0.0107
   48CHL1  H27A 6030   3.281   4.431   8.445 -3.9040  0.9860  0.3625
   48CHL1  H27B 6031   3.235   4.560   8.573  0.8606  2.0626 -0.0231
   48CHL1  H27C 6032   3.363   4.594   8.448 -0.7076 -1.0477 -1.7458
   49CHL1    C3 6033   3.044   6.647  10.089  0.3079  0.1243 -1.2005
   49CHL1    H3 6034   3.017   6.540  10.082 -2.3289  0.5927  0.3797
   49CHL1    O3 6035   3.055   6.695  10.224  0.5128 -0.1486  0.6780
   49CHL1   H3' 6036   3.098   6.779  10.207  1.2736 -0.7209 -0.3529
   49CHL1    C4 6037   3.166   6.693  10.012 -0.0910  0.1990 -0.5083
   49CHL1   H4A 6038   3.193   6.799  10.031 -1.4298  0.1997  1.6948
   49CHL1   H4B 6039   3.247   6.633  10.057 -0.0762  0.6122  0.0260
   49CHL1    C5 6040   3.155   6.670   9.865 -0.0470  0.7390 -0.1285
   49CHL1    C6 6041   3.238   6.578   9.806 -0.1949  0.0918 -1.0776
   49CHL1    H6 6042   3.297   6.511   9.870  0.0060 -1.3108 -2.6801
   49CHL1    C7 6043   3.231   6.546   9.659  0.7971  0.2260  0.2437
   49CHL1   H7A 6044   3.335   6.543   9.619  0.3815  0.0959 -0.8765
   49CHL1   H7B 6045   3.209   6.439   9.640 -0.9490  0.0804  2.6363
   49CHL1    C8 6046   3.151   6.647   9.576 -0.1162  0.4450  0.0456
   49CHL1    H8 6047   3.210   6.740   9.567 -2.1099  1.6612 -1.0483
   49CHL1   C14 6048   3.118   6.598   9.436 -0.2695 -0.5769 -0.5631
   49CHL1   H14 6049   3.036   6.523   9.446 -2.6489  1.8058 -0.8395
   49CHL1   C15 6050   3.235   6.541   9.357 -0.5700 -0.1125 -0.0080
   49CHL1  H15A 6051   3.328   6.599   9.373 -0.1570  0.0691 -2.6852
   49CHL1  H15B 6052   3.260   6.439   9.393  1.5580  0.9237  1.6788
   49CHL1   C16 6053   3.196   6.546   9.212  0.5239 -0.2007  0.2158
   49CHL1  H16A 6054   3.258   6.617   9.154 -0.1856 -0.5700 -1.0308
   49CHL1  H16B 6055   3.191   6.448   9.160  1.1555 -0.2720  0.2829
   49CHL1   C17 6056   3.057   6.624   9.217  0.6054  0.8154 -0.7339
   49CHL1   H17 6057   2.994   6.536   9.242 -0.4382  1.8719  0.5250
   49CHL1   C13 6058   3.059   6.705   9.346  0.9185 -0.7016 -0.0325
   49CHL1   C18 6059   3.148   6.832   9.327 -0.0021  0.1968  0.4953
   49CHL1  H18A 6060   3.248   6.805   9.288 -0.2899  1.7072 -1.4342
   49CHL1  H18B 6061   3.113   6.914   9.260 -0.2281 -0.5582 -0.3420
   49CHL1  H18C 6062   3.168   6.887   9.421  0.8391  0.1746  0.3378
   49CHL1   C12 6063   2.919   6.746   9.403 -0.2393  0.0198 -0.4182
   49CHL1  H12A 6064   2.881   6.830   9.341 -0.4786 -0.0028 -0.3016
   49CHL1  H12B 6065   2.850   6.660   9.392  0.5808 -0.5065 -1.6684
   49CHL1   C11 6066   2.929   6.784   9.554  0.1341  0.2102  0.5316
   49CHL1  H11A 6067   2.959   6.890   9.562  0.5464  0.1563 -0.2226
   49CHL1  H11B 6068   2.827   6.782   9.598 -1.0213 -0.1870 -1.9717
   49CHL1    C9 6069   3.017   6.691   9.646  0.6732 -0.3560  0.6626
   49CHL1    H9 6070   2.962   6.597   9.668 -1.7949  1.1522  1.3314
   49CHL1   C10 6071   3.041   6.743   9.789 -0.0780 -0.2871  0.4692
   49CHL1   C19 6072   3.084   6.892   9.783  0.4553 -0.1105 -0.4764
   49CHL1  H19A 6073   2.988   6.948   9.774 -0.5759 -1.9691 -1.8097
   49CHL1  H19B 6074   3.139   6.943   9.865 -1.8712  2.2377 -0.2364
   49CHL1  H19C 6075   3.145   6.922   9.696 -1.4172  0.6712 -1.5875
   49CHL1    C1 6076   2.915   6.704   9.873 -0.7697  0.6283 -0.2219
   49CHL1   H1A 6077   2.828   6.769   9.848 -0.4107  1.3219  0.2768
   49CHL1   H1B 6078   2.895   6.595   9.865 -0.5510  0.5386  0.3951
   49CHL1    C2 6079   2.923   6.720  10.028 -1.0776  0.6089 -0.6479
   49CHL1   H2A 6080   2.833   6.677  10.078  0.0712  2.3614  3.3267
   49CHL1   H2B 6081   2.930   6.827  10.057 -1.5794 -0.0492  2.2098
   49CHL1   C20 6082   2.996   6.683   9.089 -0.7822 -0.4982  0.8470
   49CHL1   H20 6083   2.926   6.767   9.107 -0.1068  0.3743 -0.4293
   49CHL1   C21 6084   2.932   6.562   9.005 -0.2754 -0.1965  0.0613
   49CHL1  H21A 6085   2.896   6.596   8.905  1.0056 -0.2388 -0.4325
   49CHL1  H21B 6086   2.842   6.523   9.055 -0.8004  0.8418 -0.0406
   49CHL1  H21C 6087   3.007   6.481   8.993  0.3086  0.3345  0.0696
   49CHL1   C22 6088   3.108   6.752   8.993  0.3560  0.7401 -0.2450
   49CHL1  H22A 6089   3.171   6.821   9.053  0.5879 -0.5170  0.9938
   49CHL1  H22B 6090   3.185   6.674   8.975 -1.6457 -1.4331  0.0557
   49CHL1   C23 6091   3.048   6.834   8.880  0.0560  0.0657 -0.7431
   49CHL1  H23A 6092   2.997   6.769   8.805 -1.8166 -0.4909  0.9161
   49CHL1  H23B 6093   2.960   6.882   8.928  1.1994  0.5903  0.9056
   49CHL1   C24 6094   3.144   6.941   8.823  0.7405  0.4058 -0.0806
   49CHL1  H24A 6095   3.181   7.011   8.902  0.3484 -0.2867  0.7354
   49CHL1  H24B 6096   3.240   6.902   8.783 -1.0318 -1.7912 -2.4412
   49CHL1   C25 6097   3.075   7.001   8.699 -0.4728 -0.0486 -0.6818
   49CHL1   H25 6098   3.069   6.912   8.631  0.2607 -0.7512  0.1501
   49CHL1   C26 6099   2.930   7.061   8.719 -0.6705 -0.1360 -0.0468
   49CHL1  H26A 6100   2.928   7.127   8.808  1.9210  0.8234 -0.6279
   49CHL1  H26B 6101   2.910   7.131   8.636 -0.4801  0.9342  0.7892
   49CHL1  H26C 6102   2.852   6.982   8.717  0.3100 -1.1194 -1.5622
   49CHL1   C27 6103   3.161   7.112   8.636  0.2754  0.5961 -0.3657
   49CHL1  H27A 6104   3.266   7.079   8.626 -0.6221 -2.2346 -1.4067
   49CHL1  H27B 6105   3.121   7.146   8.538 -1.6106  0.6180  0.3649
   49CHL1  H27C 6106   3.155   7.209   8.689  1.1919  1.9661 -2.6402
   50CHL1    C3 6107   5.117   3.165  10.073  0.9689  0.2802  0.0351
   50CHL1    H3 6108   5.168   3.257  10.107  2.9962 -0.9575  0.5307
   50CHL1    O3 6109   5.065   3.106  10.192 -0.0848 -0.0751  0.5459
   50CHL1   H3' 6110   4.984   3.156  10.205 -0.1663  0.3986 -1.4285
   50CHL1    C4 6111   5.003   3.194   9.974  0.1113 -0.0099  0.3751
   50CHL1   H4A 6112   4.959   3.093   9.957  2.6207 -0.9719 -0.9644
   50CHL1   H4B 6113   4.925   3.262  10.014  0.7831  1.9564 -1.4764
   50CHL1    C5 6114   5.058   3.234   9.838 -0.0355  0.9748  0.4398
   50CHL1    C6 6115   5.025   3.342   9.773  0.2778 -0.2172 -1.0425
   50CHL1    H6 6116   4.959   3.421   9.813 -0.0999 -0.1033 -1.8720
   50CHL1    C7 6117   5.056   3.369   9.630 -0.0858 -0.1754  0.0500
   50CHL1   H7A 6118   4.959   3.394   9.584  0.5720  0.6038 -0.9739
   50CHL1   H7B 6119   5.120   3.457   9.606  0.4448 -0.8810 -1.2263
   50CHL1    C8 6120   5.122   3.244   9.559 -0.7454 -0.0089 -0.6921
   50CHL1    H8 6121   5.037   3.177   9.531 -3.3357  2.5355  0.6130
   50CHL1   C14 6122   5.190   3.297   9.430  0.2313 -0.2881 -0.3279
   50CHL1   H14 6123   5.256   3.378   9.466 -1.0894  1.0450 -0.7932
   50CHL1   C15 6124   5.092   3.352   9.322  0.1242 -0.6946  0.1282
   50CHL1  H15A 6125   5.014   3.274   9.315  0.3320 -0.8934  0.0210
   50CHL1  H15B 6126   5.046   3.452   9.336 -1.2287 -0.4340 -4.4222
   50CHL1   C16 6127   5.177   3.374   9.198  0.0789 -0.7205 -0.5362
   50CHL1  H16A 6128   5.111   3.345   9.114 -1.0266  0.2610 -0.0324
   50CHL1  H16B 6129   5.204   3.481   9.182 -2.6281  0.0389 -0.4589
   50CHL1   C17 6130   5.300   3.278   9.211  0.2180 -0.6527  0.0367
   50CHL1   H17 6131   5.392   3.338   9.228 -0.2617  0.0424  0.2040
   50CHL1   C13 6132   5.272   3.201   9.343 -0.4799  0.0829 -0.2199
   50CHL1   C18 6133   5.189   3.072   9.309  0.0017 -0.1516 -0.1389
   50CHL1  H18A 6134   5.114   3.100   9.232  0.8423  1.2888 -0.4775
   50CHL1  H18B 6135   5.251   2.982   9.290  1.4998 -0.1979  3.9582
   50CHL1  H18C 6136   5.137   3.036   9.400 -0.8888 -0.9957 -0.9582
   50CHL1   C12 6137   5.389   3.164   9.435  0.3107  0.4503 -0.2017
   50CHL1  H12A 6138   5.458   3.087   9.393  0.8702  1.0465 -0.3963
   50CHL1  H12B 6139   5.445   3.258   9.455  0.9907 -0.1358  0.7089
   50CHL1   C11 6140   5.332   3.104   9.574 -0.1629  0.2462 -0.7491
   50CHL1  H11A 6141   5.295   3.005   9.541  4.4983 -1.6347 -1.0138
   50CHL1  H11B 6142   5.416   3.069   9.637 -1.4702 -1.2668  0.2461
   50CHL1    C9 6143   5.220   3.188   9.650  0.5298  0.0312 -0.5789
   50CHL1    H9 6144   5.276   3.278   9.682 -1.2176 -0.0329  3.1895
   50CHL1   C10 6145   5.153   3.132   9.779 -0.5280  0.6058  0.4089
   50CHL1   C19 6146   5.073   3.011   9.737 -0.1756 -0.2808  0.2932
   50CHL1  H19A 6147   5.010   2.961   9.814 -1.4388  1.6921  0.6182
   50CHL1  H19B 6148   4.989   3.028   9.666 -0.4032 -1.4323  0.2732
   50CHL1  H19C 6149   5.139   2.936   9.689 -2.0809 -1.6462 -0.3115
   50CHL1    C1 6150   5.272   3.101   9.873 -0.3602  0.3467  0.2073
   50CHL1   H1A 6151   5.333   3.018   9.831 -0.2631  1.0281 -1.0224
   50CHL1   H1B 6152   5.331   3.194   9.883  1.8964 -1.1319  1.7455
   50CHL1    C2 6153   5.221   3.067  10.015  0.4042  0.5148  0.0509
   50CHL1   H2A 6154   5.305   3.064  10.088 -0.3142 -2.2317  0.8982
   50CHL1   H2B 6155   5.189   2.961  10.016 -1.2885  0.9929  0.7698
   50CHL1   C20 6156   5.334   3.197   9.085  0.3050  0.7766 -0.3858
   50CHL1   H20 6157   5.251   3.131   9.054  2.1778 -1.6010 -0.6599
   50CHL1   C21 6158   5.454   3.102   9.114  0.1897 -0.4317 -0.1201
   50CHL1  H21A 6159   5.426   3.027   9.192 -0.8557 -1.2268 -1.2227
   50CHL1  H21B 6160   5.543   3.151   9.158  0.0312 -1.9303  2.0339
   50CHL1  H21C 6161   5.484   3.047   9.022 -2.4320  0.0701 -1.3771
   50CHL1   C22 6162   5.371   3.295   8.965 -0.0928  0.6027 -0.2293
   50CHL1  H22A 6163   5.291   3.371   8.952 -0.5818  0.0740 -0.3482
   50CHL1  H22B 6164   5.471   3.339   8.988  1.0788 -3.0149  2.4487
   50CHL1   C23 6165   5.387   3.225   8.829  0.0703  0.5013 -0.0373
   50CHL1  H23A 6166   5.434   3.296   8.758  1.2551  1.7996  1.9245
   50CHL1  H23B 6167   5.456   3.139   8.836 -0.3706 -0.0143 -1.5704
   50CHL1   C24 6168   5.258   3.162   8.774 -0.2869  0.3259 -0.2137
   50CHL1  H24A 6169   5.234   3.081   8.845 -1.0445  0.3979 -0.3747
   50CHL1  H24B 6170   5.178   3.239   8.784 -0.3498  0.0784  1.3341
   50CHL1   C25 6171   5.267   3.105   8.631  0.8588  0.7966  0.1634
   50CHL1   H25 6172   5.318   3.181   8.569 -1.5825  1.3695 -1.2619
   50CHL1   C26 6173   5.351   2.973   8.622  0.1586  0.1100 -0.2239
   50CHL1  H26A 6174   5.315   2.905   8.702 -1.6138  2.6549  1.2690
   50CHL1  H26B 6175   5.328   2.932   8.521 -2.1855 -0.9598  0.6848
   50CHL1  H26C 6176   5.457   2.998   8.643  0.1264 -0.9215  1.3668
   50CHL1   C27 6177   5.123   3.079   8.575 -0.3816  0.3341 -0.0688
   50CHL1  H27A 6178   5.134   3.044   8.470  2.4181 -2.4760  1.0082
   50CHL1  H27B 6179   5.082   2.994   8.632 -1.1273 -0.1867 -1.3624
   50CHL1  H27C 6180   5.061   3.171   8.585  1.1304  1.4452 -0.5255
   51CHL1    C3 6181   6.795   0.702  10.188  0.0417  0.1113  0.0108
   51CHL1    H3 6182   6.692   0.666  10.205  0.5250 -1.7739 -0.6662
   51CHL1    O3 6183   6.857   0.701  10.313 -0.4259  0.2034  0.2178
   51CHL1   H3' 6184   6.952   0.694  10.297 -0.3631  0.1526  0.6109
   51CHL1    C4 6185   6.872   0.609  10.095  0.3090 -0.0299 -0.3122
   51CHL1   H4A 6186   6.980   0.630  10.110 -0.2195  2.6135  0.3529
   51CHL1   H4B 6187   6.860   0.502  10.122  0.4339 -0.2339 -1.0561
   51CHL1    C5 6188   6.829   0.617   9.950 -0.2561  0.7760  0.0751
   51CHL1    C6 6189   6.799   0.503   9.884 -0.7977 -0.1115  0.5621
   51CHL1    H6 6190   6.814   0.402   9.925  3.7290 -0.8469 -2.0971
   51CHL1    C7 6191   6.761   0.501   9.738 -0.2472 -0.2353  0.6036
   51CHL1   H7A 6192   6.823   0.421   9.692  0.6360  0.4729  0.5170
   51CHL1   H7B 6193   6.654   0.475   9.723 -0.3669 -0.1409  1.2500
   51CHL1    C8 6194   6.796   0.632   9.664  0.2109  0.9167  0.0509
   51CHL1    H8 6195   6.906   0.628   9.646  0.1218 -0.3534 -0.2905
   51CHL1   C14 6196   6.729   0.636   9.530 -0.4794  0.1556 -0.5785
   51CHL1   H14 6197   6.622   0.633   9.559 -0.1133  0.5535  0.9018
   51CHL1   C15 6198   6.748   0.517   9.445  0.1810 -0.3908  1.0205
   51CHL1  H15A 6199   6.859   0.506   9.449  0.6864  2.4924 -1.2728
   51CHL1  H15B 6200   6.686   0.428   9.468  0.8384 -1.0886  0.1402
   51CHL1   C16 6201   6.691   0.571   9.309 -0.4679  0.2516 -0.3371
   51CHL1  H16A 6202   6.757   0.527   9.231 -0.4109 -0.1358 -0.0735
   51CHL1  H16B 6203   6.598   0.514   9.293  1.2860 -3.2383  0.9238
   51CHL1   C17 6204   6.675   0.723   9.327  0.2823 -0.1592 -0.0797
   51CHL1   H17 6205   6.576   0.739   9.375 -0.9397  2.6880 -3.1490
   51CHL1   C13 6206   6.757   0.763   9.448  0.3780  0.2126  0.5482
   51CHL1   C18 6207   6.905   0.782   9.411 -1.0540  0.4276 -0.3434
   51CHL1  H18A 6208   6.945   0.696   9.352 -0.3697  0.3092  0.2807
   51CHL1  H18B 6209   6.914   0.879   9.357  0.2746 -0.6765 -2.2614
   51CHL1  H18C 6210   6.966   0.796   9.503  0.6975  2.0188 -1.6708
   51CHL1   C12 6211   6.712   0.889   9.534 -0.2559  0.4587  0.4699
   51CHL1  H12A 6212   6.742   0.979   9.476 -0.4689  1.0495  1.2582
   51CHL1  H12B 6213   6.602   0.887   9.546 -0.2877 -1.2021  0.1979
   51CHL1   C11 6214   6.777   0.892   9.676  0.2216 -0.3434  0.6915
   51CHL1  H11A 6215   6.885   0.910   9.658 -0.2582  1.6568 -0.4581
   51CHL1  H11B 6216   6.736   0.970   9.745 -0.5826  1.5986 -1.8051
   51CHL1    C9 6217   6.758   0.753   9.748  1.0050 -0.1882 -0.2192
   51CHL1    H9 6218   6.647   0.755   9.756  0.9263 -1.8618 -0.6202
   51CHL1   C10 6219   6.829   0.757   9.890  0.9171  0.0513 -0.5407
   51CHL1   C19 6220   6.971   0.817   9.880  0.8917 -0.1027 -0.0090
   51CHL1  H19A 6221   6.967   0.927   9.872 -0.3968  0.2729  3.7954
   51CHL1  H19B 6222   7.042   0.785   9.960  1.1080 -2.4810 -1.0596
   51CHL1  H19C 6223   7.009   0.782   9.782 -1.7797  1.6490 -1.7844
   51CHL1    C1 6224   6.750   0.855   9.981 -0.5700  1.2910 -0.7754
   51CHL1   H1A 6225   6.754   0.964   9.960 -1.6292  0.9294 -3.1192
   51CHL1   H1B 6226   6.645   0.823   9.964  0.5757 -1.3877 -3.9645
   51CHL1    C2 6227   6.797   0.849  10.131 -0.8178  0.1552  0.1573
   51CHL1   H2A 6228   6.724   0.915  10.182  0.0565  0.9395  0.4348
   51CHL1   H2B 6229   6.899   0.893  10.138 -1.0099  0.4942  0.9245
   51CHL1   C20 6230   6.673   0.815   9.206  0.3280  0.8559 -0.3623
   51CHL1   H20 6231   6.720   0.908   9.244  1.2079  0.9605 -1.6390
   51CHL1   C21 6232   6.523   0.829   9.166 -0.4508  0.4536 -0.0299
   51CHL1  H21A 6233   6.500   0.895   9.080  0.3059 -1.4828 -1.8197
   51CHL1  H21B 6234   6.470   0.855   9.260  2.3216 -0.4157  1.9012
   51CHL1  H21C 6235   6.493   0.727   9.133  0.2318 -0.4087  1.8303
   51CHL1   C22 6236   6.764   0.783   9.088 -0.2007  0.7667  0.2678
   51CHL1  H22A 6237   6.866   0.774   9.131 -1.3175  0.2990  3.0473
   51CHL1  H22B 6238   6.728   0.687   9.046  1.9457 -0.3228  0.7804
   51CHL1   C23 6239   6.775   0.898   8.984  0.2949  0.5507 -0.0704
   51CHL1  H23A 6240   6.683   0.957   8.964 -0.6636 -1.3337 -1.6202
   51CHL1  H23B 6241   6.853   0.959   9.035  0.1788 -1.5284  2.8271
   51CHL1   C24 6242   6.838   0.847   8.848 -0.7674 -0.1735  1.2706
   51CHL1  H24A 6243   6.936   0.805   8.879 -0.2702 -0.8595 -1.0429
   51CHL1  H24B 6244   6.760   0.780   8.807 -1.6394  1.1511  0.6824
   51CHL1   C25 6245   6.855   0.952   8.734  0.6090  0.6885 -0.0106
   51CHL1   H25 6246   6.873   0.894   8.641  0.4525  0.1656  0.2822
   51CHL1   C26 6247   6.726   1.033   8.706  0.5770  0.8495 -0.1570
   51CHL1  H26A 6248   6.730   1.085   8.608  1.9104 -1.8906 -1.6601
   51CHL1  H26B 6249   6.640   0.964   8.690  0.8913  0.7180 -1.3780
   51CHL1  H26C 6250   6.699   1.101   8.790 -1.5591 -1.3945  1.1337
   51CHL1   C27 6251   6.980   1.033   8.754 -0.3589 -0.0089 -0.0163
   51CHL1  H27A 6252   7.065   0.964   8.772 -0.9802 -0.4996  1.1863
   51CHL1  H27B 6253   7.022   1.087   8.667  0.3922  1.7246  1.3574
   51CHL1  H27C 6254   6.982   1.098   8.844 -1.3874  0.5376 -0.3704
   52CHL1    C3 6255   1.687   4.711   9.929 -0.0450 -1.0690 -0.0890
   52CHL1    H3 6256   1.683   4.812   9.884 -1.1596 -0.5799  1.0494
   52CHL1    O3 6257   1.618   4.704  10.051 -0.4461  0.1401 -0.2167
   52CHL1   H3' 6258   1.653   4.776  10.105 -1.8811  1.3532 -0.8671
   52CHL1    C4 6259   1.635   4.609   9.826 -0.1905 -0.6218 -0.1347
   52CHL1   H4A 6260   1.640   4.514   9.884  0.7826  0.3138  1.3765
   52CHL1   H4B 6261   1.528   4.636   9.811  0.3570  3.4289  1.9346
   52CHL1    C5 6262   1.733   4.585   9.706  0.6534 -0.3058  0.2709
   52CHL1    C6 6263   1.675   4.593   9.583  0.5306  0.3537  0.0507
   52CHL1    H6 6264   1.570   4.624   9.580 -0.1488 -1.8316 -0.4731
   52CHL1    C7 6265   1.765   4.553   9.466 -0.1847 -0.6469  0.2519
   52CHL1   H7A 6266   1.711   4.492   9.390  0.6870 -0.5866 -0.4231
   52CHL1   H7B 6267   1.779   4.655   9.424  0.4999 -1.0941 -0.6288
   52CHL1    C8 6268   1.907   4.489   9.495 -0.4137 -0.5129  0.2896
   52CHL1    H8 6269   1.890   4.380   9.512  0.1350 -0.7200 -0.4386
   52CHL1   C14 6270   1.995   4.502   9.379  0.2792 -0.4535  0.1430
   52CHL1   H14 6271   2.017   4.611   9.378 -0.3797 -0.2290  2.5010
   52CHL1   C15 6272   1.935   4.463   9.241  0.0192  0.0186  0.5577
   52CHL1  H15A 6273   1.896   4.359   9.246  0.9148 -0.5605 -2.4058
   52CHL1  H15B 6274   1.863   4.535   9.198  0.1416 -1.1136 -1.6734
   52CHL1   C16 6275   2.063   4.459   9.153 -0.0673 -0.1853 -0.3259
   52CHL1  H16A 6276   2.057   4.358   9.108 -0.8525 -1.3596  2.2210
   52CHL1  H16B 6277   2.066   4.543   9.081  1.3038  1.5119  1.6039
   52CHL1   C17 6278   2.187   4.466   9.254 -0.0623  0.8808  0.3247
   52CHL1   H17 6279   2.214   4.574   9.246  3.0959  0.1813  0.2524
   52CHL1   C13 6280   2.127   4.434   9.391 -0.4397  0.7912  0.9730
   52CHL1   C18 6281   2.115   4.285   9.390  0.0612 -0.0206 -0.0291
   52CHL1  H18A 6282   2.070   4.252   9.487  2.7763  3.9025  2.8674
   52CHL1  H18B 6283   2.052   4.245   9.308 -0.3154  0.5625 -0.0314
   52CHL1  H18C 6284   2.214   4.236   9.398 -0.3444 -0.5693  2.9090
   52CHL1   C12 6285   2.196   4.487   9.522 -0.2016  0.1741  0.1398
   52CHL1  H12A 6286   2.289   4.429   9.539 -0.2649 -0.1185 -0.5084
   52CHL1  H12B 6287   2.228   4.592   9.504 -0.3113  0.1921  0.0442
   52CHL1   C11 6288   2.104   4.495   9.646  1.5705 -0.4661 -0.2862
   52CHL1  H11A 6289   2.101   4.390   9.683  0.1308  0.1961  1.6595
   52CHL1  H11B 6290   2.152   4.554   9.728  0.4869 -0.3589  0.2814
   52CHL1    C9 6291   1.965   4.554   9.622  0.2872  0.6448  0.5358
   52CHL1    H9 6292   1.977   4.660   9.592 -2.4249  1.0839  0.7681
   52CHL1   C10 6293   1.877   4.549   9.748  0.6514  0.1015 -0.2874
   52CHL1   C19 6294   1.881   4.404   9.819 -0.5896 -1.1173  0.2252
   52CHL1  H19A 6295   1.855   4.316   9.757  1.5294 -1.4097 -0.3310
   52CHL1  H19B 6296   1.977   4.384   9.872  0.8048  1.1754 -1.2628
   52CHL1  H19C 6297   1.811   4.406   9.905  0.5410  1.9702  1.2120
   52CHL1    C1 6298   1.921   4.672   9.837  0.4800  0.4809 -0.1177
   52CHL1   H1A 6299   2.026   4.670   9.875  0.7876  2.4108 -0.7795
   52CHL1   H1B 6300   1.902   4.771   9.791  1.7759  0.9887  0.3681
   52CHL1    C2 6301   1.832   4.679   9.967  0.5645 -0.0235  0.6526
   52CHL1   H2A 6302   1.866   4.764  10.030  2.4100 -1.7847  2.2138
   52CHL1   H2B 6303   1.842   4.585  10.025 -1.2230 -1.1518 -0.7613
   52CHL1   C20 6304   2.314   4.390   9.203 -0.6897  0.1351 -0.0888
   52CHL1   H20 6305   2.290   4.283   9.186  2.2038 -0.3731 -1.5710
   52CHL1   C21 6306   2.441   4.403   9.295  0.4710 -0.1366  0.4160
   52CHL1  H21A 6307   2.435   4.500   9.349  0.1427  0.8952 -1.3864
   52CHL1  H21B 6308   2.538   4.414   9.242  0.9277 -2.0102  0.7920
   52CHL1  H21C 6309   2.447   4.311   9.356  0.5249 -0.3722  0.0571
   52CHL1   C22 6310   2.365   4.438   9.067  0.0906  0.3909 -0.2029
   52CHL1  H22A 6311   2.285   4.480   9.002  2.1058  0.9099 -2.4926
   52CHL1  H22B 6312   2.439   4.520   9.067 -0.1916  0.7010 -2.0243
   52CHL1   C23 6313   2.415   4.313   8.978  0.2490  0.1943  0.0909
   52CHL1  H23A 6314   2.523   4.301   9.001  0.0563 -0.7664  0.5477
   52CHL1  H23B 6315   2.362   4.223   9.016  2.6443 -0.8122  1.2069
   52CHL1   C24 6316   2.380   4.337   8.830 -0.1196  0.1240  0.0360
   52CHL1  H24A 6317   2.436   4.263   8.769  4.4271  2.3610  1.0183
   52CHL1  H24B 6318   2.271   4.317   8.831  0.0759 -1.9899 -3.4424
   52CHL1   C25 6319   2.412   4.469   8.760  0.5953  0.0896  0.1502
   52CHL1   H25 6320   2.353   4.555   8.797  1.5007  1.4088 -1.3742
   52CHL1   C26 6321   2.555   4.512   8.792 -0.2114 -0.2585  0.2271
   52CHL1  H26A 6322   2.623   4.436   8.749 -0.6060 -0.0425 -0.8139
   52CHL1  H26B 6323   2.583   4.609   8.745  0.0185  0.6936  2.2159
   52CHL1  H26C 6324   2.573   4.523   8.901  2.5336 -0.6986 -0.1028
   52CHL1   C27 6325   2.387   4.459   8.606  0.5287  0.1189 -0.0687
   52CHL1  H27A 6326   2.284   4.419   8.596  0.3145  0.4401  0.7657
   52CHL1  H27B 6327   2.394   4.561   8.563  1.2964  0.2010  0.2381
   52CHL1  H27C 6328   2.464   4.393   8.558  0.8347 -0.5696  1.3345
   53CHL1    C3 6329   4.372   3.960  10.053  0.8117 -0.0641  0.1363
   53CHL1    H3 6330   4.480   3.933  10.055  1.4530  2.0823 -1.1139
   53CHL1    O3 6331   4.321   3.983  10.182  0.0540  0.5991 -0.5097
   53CHL1   H3' 6332   4.387   4.039  10.224  1.1466 -1.1252  0.1486
   53CHL1    C4 6333   4.355   4.089   9.969 -0.1721 -0.6269  0.3341
   53CHL1   H4A 6334   4.252   4.130   9.977 -0.4850 -1.3338  0.0907
   53CHL1   H4B 6335   4.405   4.177  10.014 -1.0118  2.9963 -4.8642
   53CHL1    C5 6336   4.396   4.083   9.825 -0.2137  0.1714 -0.1340
   53CHL1    C6 6337   4.491   4.156   9.772  0.0371 -0.3446  0.6581
   53CHL1    H6 6338   4.538   4.237   9.830 -0.4802  1.1946 -0.9557
   53CHL1    C7 6339   4.542   4.149   9.627  0.3608 -0.3118 -0.2966
   53CHL1   H7A 6340   4.566   4.249   9.586 -0.9158  0.5026  0.8562
   53CHL1   H7B 6341   4.642   4.102   9.611 -0.4821 -1.3784 -2.9668
   53CHL1    C8 6342   4.438   4.082   9.543  0.1101  0.3177 -0.6311
   53CHL1    H8 6343   4.358   4.157   9.531  1.2063  1.3352 -1.9429
   53CHL1   C14 6344   4.481   4.047   9.409 -0.8647  0.4986  0.3099
   53CHL1   H14 6345   4.580   3.995   9.414 -1.6463 -1.0406  0.4055
   53CHL1   C15 6346   4.521   4.174   9.325 -0.2866 -0.1130  0.2729
   53CHL1  H15A 6347   4.433   4.242   9.334 -1.3689 -1.6427  2.1769
   53CHL1  H15B 6348   4.611   4.233   9.352  0.8573 -0.9029 -1.6192
   53CHL1   C16 6349   4.534   4.111   9.187  0.2541 -0.6413  0.2728
   53CHL1  H16A 6350   4.478   4.166   9.108 -0.2436 -0.6305  0.6310
   53CHL1  H16B 6351   4.640   4.104   9.154 -0.1046  0.0812 -1.1069
   53CHL1   C17 6352   4.476   3.965   9.195  0.3795  0.0597  0.4439
   53CHL1   H17 6353   4.569   3.912   9.224  0.7326  0.3557 -0.1200
   53CHL1   C13 6354   4.397   3.965   9.322  0.7690  0.0903  0.8311
   53CHL1   C18 6355   4.266   4.041   9.296  0.4832  0.5401  0.3471
   53CHL1  H18A 6356   4.288   4.132   9.236  0.8161 -0.0294 -0.4093
   53CHL1  H18B 6357   4.199   3.971   9.240  1.1865 -1.1551  1.5546
   53CHL1  H18C 6358   4.213   4.081   9.385  0.7184 -1.0626  1.2406
   53CHL1   C12 6359   4.377   3.834   9.393  0.0188 -0.1258  0.0784
   53CHL1  H12A 6360   4.306   3.773   9.333  0.7199 -1.6811  0.7632
   53CHL1  H12B 6361   4.474   3.782   9.412  0.7898  1.2721  0.1005
   53CHL1   C11 6362   4.314   3.853   9.531  0.2717  0.5379  0.3056
   53CHL1  H11A 6363   4.210   3.883   9.509  1.3693  1.9502 -3.7811
   53CHL1  H11B 6364   4.310   3.750   9.571  0.5111 -0.1431 -1.3751
   53CHL1    C9 6365   4.385   3.949   9.612 -0.4630  0.1208 -0.3481
   53CHL1    H9 6366   4.482   3.900   9.637 -0.6919  0.3793  1.1357
   53CHL1   C10 6367   4.318   3.975   9.751  0.1138  0.1966  0.8216
   53CHL1   C19 6368   4.175   4.014   9.742  0.5660 -0.3696  1.2184
   53CHL1  H19A 6369   4.178   4.102   9.675  2.4469 -0.3535  1.2767
   53CHL1  H19B 6370   4.119   3.934   9.687  1.9022 -0.7295  0.3311
   53CHL1  H19C 6371   4.113   4.033   9.832 -2.3470 -2.5968 -0.1234
   53CHL1    C1 6372   4.330   3.848   9.833  0.1425  0.9483 -0.0175
   53CHL1   H1A 6373   4.276   3.764   9.785  0.8283  1.0245 -0.9359
   53CHL1   H1B 6374   4.434   3.809   9.834  0.0911  0.7996 -0.4358
   53CHL1    C2 6375   4.288   3.852   9.986  0.3149 -0.1246  1.0201
   53CHL1   H2A 6376   4.296   3.767  10.057 -2.1291 -0.3632  1.0769
   53CHL1   H2B 6377   4.184   3.886   9.972  0.3733 -0.2820  0.1169
   53CHL1   C20 6378   4.422   3.899   9.069 -0.3691 -0.2273 -0.2916
   53CHL1   H20 6379   4.372   3.809   9.108  0.4267 -0.6164 -0.1486
   53CHL1   C21 6380   4.541   3.836   8.987 -0.2751  0.2043 -0.5377
   53CHL1  H21A 6381   4.495   3.749   8.935  0.8747 -1.9088  1.7600
   53CHL1  H21B 6382   4.602   3.774   9.057 -0.1814 -0.9623 -1.6013
   53CHL1  H21C 6383   4.608   3.897   8.923  3.8449 -3.5079 -0.2513
   53CHL1   C22 6384   4.323   3.985   8.985 -0.1821  0.0001  0.5517
   53CHL1  H22A 6385   4.257   4.048   9.049  2.4213  2.0590  1.4328
   53CHL1  H22B 6386   4.382   4.063   8.931  0.9246  0.3155  2.1208
   53CHL1   C23 6387   4.240   3.903   8.889 -0.0538  0.4737 -0.2873
   53CHL1  H23A 6388   4.301   3.843   8.818  1.5939  2.4093 -0.6185
   53CHL1  H23B 6389   4.177   3.831   8.946  2.1364 -1.2366  0.0873
   53CHL1   C24 6390   4.145   4.003   8.814  0.8624  0.2523 -0.5861
   53CHL1  H24A 6391   4.099   4.076   8.884 -1.5558 -2.0664  0.4363
   53CHL1  H24B 6392   4.209   4.064   8.746  2.8980 -1.5392 -0.3814
   53CHL1   C25 6393   4.025   3.940   8.759  0.2177  0.2956  0.4285
   53CHL1   H25 6394   3.994   3.858   8.828  0.2014 -0.7286 -0.7576
   53CHL1   C26 6395   3.923   4.046   8.745 -0.7373 -0.0163 -0.0240
   53CHL1  H26A 6396   3.903   4.098   8.841 -1.0300 -0.8615  0.3883
   53CHL1  H26B 6397   3.948   4.128   8.675 -1.4044  1.2249  1.1375
   53CHL1  H26C 6398   3.826   3.998   8.718 -0.6333 -0.6224  0.6285
   53CHL1   C27 6399   4.062   3.875   8.629  0.2295  0.5831  0.1365
   53CHL1  H27A 6400   4.159   3.822   8.644 -1.8831 -3.7800  0.1053
   53CHL1  H27B 6401   3.990   3.795   8.601  0.2374  0.1304  1.3137
   53CHL1  H27C 6402   4.076   3.955   8.554  1.0432  1.3119  1.0406
   54CHL1    C3 6403   4.189   5.226  10.059  0.1529  0.7066 -0.7688
   54CHL1    H3 6404   4.087   5.208  10.019 -0.2639 -3.1518  1.4823
   54CHL1    O3 6405   4.182   5.202  10.201 -0.3445  0.4993  0.7323
   54CHL1   H3' 6406   4.225   5.116  10.205 -1.4489 -0.0530  1.3263
   54CHL1    C4 6407   4.291   5.132   9.977  0.9538 -0.1681  0.2175
   54CHL1   H4A 6408   4.389   5.134  10.031  1.0457 -1.6578  0.1456
   54CHL1   H4B 6409   4.257   5.027   9.981  0.4903  0.0130  2.1765
   54CHL1    C5 6410   4.303   5.177   9.826  0.2814 -0.1088  0.1957
   54CHL1    C6 6411   4.277   5.090   9.725  0.4252 -0.6455  1.0184
   54CHL1    H6 6412   4.247   4.988   9.752 -2.4794 -0.8349 -2.1255
   54CHL1    C7 6413   4.279   5.115   9.573 -0.3509 -0.7187 -0.1705
   54CHL1   H7A 6414   4.341   5.035   9.528 -2.8517 -2.9921  0.1936
   54CHL1   H7B 6415   4.175   5.110   9.535 -1.4046 -1.4350  2.6171
   54CHL1    C8 6416   4.341   5.256   9.540  0.2596 -0.4079  0.0250
   54CHL1    H8 6417   4.452   5.252   9.548  0.3144 -0.2345 -0.5675
   54CHL1   C14 6418   4.303   5.305   9.399  0.1803 -0.0258 -0.0876
   54CHL1   H14 6419   4.192   5.304   9.404  0.1334  2.7419  2.5986
   54CHL1   C15 6420   4.340   5.213   9.280  0.0342 -0.0999  0.8120
   54CHL1  H15A 6421   4.444   5.179   9.301  0.0728  1.3414  3.2512
   54CHL1  H15B 6422   4.281   5.119   9.275  0.0407 -0.0426 -0.7724
   54CHL1   C16 6423   4.338   5.304   9.160  0.2838 -0.6296 -0.7256
   54CHL1  H16A 6424   4.430   5.312   9.098 -0.2303 -0.0725 -1.4193
   54CHL1  H16B 6425   4.252   5.278   9.094 -1.1442 -0.1219  0.8605
   54CHL1   C17 6426   4.303   5.454   9.213 -0.3526 -0.3068 -0.2385
   54CHL1   H17 6427   4.192   5.462   9.220 -0.1994  0.5743  3.3759
   54CHL1   C13 6428   4.346   5.447   9.364  0.2942 -0.1838 -0.6705
   54CHL1   C18 6429   4.502   5.453   9.370  0.1346 -0.0502 -0.4929
   54CHL1  H18A 6430   4.539   5.558   9.373 -0.0718  0.0099 -0.0458
   54CHL1  H18B 6431   4.539   5.425   9.471  0.3512  0.5164 -0.4081
   54CHL1  H18C 6432   4.554   5.384   9.300  0.4467  1.5971 -1.9621
   54CHL1   C12 6433   4.274   5.543   9.466  0.4614  0.3767 -0.5176
   54CHL1  H12A 6434   4.306   5.648   9.451 -1.0054  0.9889  0.3562
   54CHL1  H12B 6435   4.164   5.524   9.467  0.7879 -1.8130 -0.7634
   54CHL1   C11 6436   4.315   5.508   9.608  0.5777 -0.2064  0.0431
   54CHL1  H11A 6437   4.424   5.532   9.613  0.5604  0.1958 -1.1734
   54CHL1  H11B 6438   4.256   5.587   9.658  1.5938  1.3658 -1.1603
   54CHL1    C9 6439   4.288   5.355   9.644  0.0026 -0.6115  0.0434
   54CHL1    H9 6440   4.178   5.350   9.628 -0.3752  3.1982  0.3978
   54CHL1   C10 6441   4.325   5.326   9.797  0.1260 -0.4653  0.4940
   54CHL1   C19 6442   4.474   5.372   9.808 -0.3741  0.3570  0.2384
   54CHL1  H19A 6443   4.491   5.481   9.820 -0.2684  0.1964  1.8190
   54CHL1  H19B 6444   4.518   5.326   9.899  0.1301 -3.0469 -1.5727
   54CHL1  H19C 6445   4.535   5.337   9.723 -1.3645  3.4048 -1.8907
   54CHL1    C1 6446   4.237   5.410   9.899  0.4884  0.2771 -0.2571
   54CHL1   H1A 6447   4.272   5.515   9.886 -1.4805  0.8885 -1.0182
   54CHL1   H1B 6448   4.131   5.401   9.869  0.1384  1.4508  0.5531
   54CHL1    C2 6449   4.241   5.366  10.043  0.5233 -0.4242  0.1844
   54CHL1   H2A 6450   4.183   5.429  10.114  0.4081 -2.0747  1.6136
   54CHL1   H2B 6451   4.344   5.370  10.086  0.8683 -0.5045 -0.6119
   54CHL1   C20 6452   4.358   5.570   9.124 -0.7092 -0.9463  0.5573
   54CHL1   H20 6453   4.461   5.555   9.087 -0.2423  1.3619  0.7921
   54CHL1   C21 6454   4.355   5.706   9.201 -0.1943  0.3137 -0.2154
   54CHL1  H21A 6455   4.255   5.735   9.240 -0.0549 -0.7535  1.0057
   54CHL1  H21B 6456   4.398   5.779   9.130 -2.5930  0.0444 -2.0768
   54CHL1  H21C 6457   4.421   5.706   9.290 -1.7387  0.0612  0.9845
   54CHL1   C22 6458   4.271   5.588   8.995 -0.6647 -0.6766  0.3555
   54CHL1  H22A 6459   4.284   5.489   8.946 -0.1302  0.1750 -1.3112
   54CHL1  H22B 6460   4.163   5.603   9.018 -0.2699  1.2956  1.0716
   54CHL1   C23 6461   4.323   5.689   8.891  0.0316 -0.6383  0.0493
   54CHL1  H23A 6462   4.302   5.793   8.925  0.3735 -1.3802  2.7629
   54CHL1  H23B 6463   4.434   5.685   8.887  0.3618  1.6345  3.3338
   54CHL1   C24 6464   4.283   5.668   8.752  0.5119 -0.3065  0.3502
   54CHL1  H24A 6465   4.254   5.561   8.746 -0.9224  0.0741 -0.0036
   54CHL1  H24B 6466   4.195   5.728   8.719  0.4993 -0.0617  0.8108
   54CHL1   C25 6467   4.387   5.696   8.647  0.0194  0.1615  0.5603
   54CHL1   H25 6468   4.479   5.638   8.669  0.4584  0.3697 -0.6349
   54CHL1   C26 6469   4.351   5.660   8.508  0.2767  0.1510  0.1521
   54CHL1  H26A 6470   4.245   5.683   8.484  0.1236  0.2717  0.9194
   54CHL1  H26B 6471   4.399   5.722   8.429 -0.0961 -0.1640 -0.3344
   54CHL1  H26C 6472   4.379   5.553   8.493  1.1838  0.2683  0.9452
   54CHL1   C27 6473   4.427   5.848   8.656  0.2333  0.3477  0.0692
   54CHL1  H27A 6474   4.432   5.893   8.758  1.1031  1.4580 -0.4369
   54CHL1  H27B 6475   4.528   5.845   8.609 -1.3023 -2.3141 -3.5470
   54CHL1  H27C 6476   4.350   5.908   8.604 -1.7666 -1.6170  0.6409
   55CHL1    C3 6477   4.737   3.729  10.067  0.3969  0.0816 -0.1817
   55CHL1    H3 6478   4.636   3.751  10.026  0.7706 -0.9020 -1.7155
   55CHL1    O3 6479   4.714   3.712  10.207 -0.3070  0.5246 -0.5826
   55CHL1   H3' 6480   4.760   3.770  10.269 -2.5805 -0.2981  2.0890
   55CHL1    C4 6481   4.787   3.615  10.002 -0.0593 -0.1631  0.4263
   55CHL1   H4A 6482   4.875   3.560  10.043  0.3403  1.3663  1.7082
   55CHL1   H4B 6483   4.706   3.544  10.027  0.3021 -1.0249 -0.7312
   55CHL1    C5 6484   4.795   3.645   9.854  0.3688  0.9874  0.5218
   55CHL1    C6 6485   4.727   3.569   9.766  1.0921  0.2525  0.5542
   55CHL1    H6 6486   4.670   3.485   9.808 -2.1710  2.7813  1.6169
   55CHL1    C7 6487   4.721   3.595   9.613 -0.7513  0.8642  0.5278
   55CHL1   H7A 6488   4.717   3.500   9.555  2.9749  0.7826  0.1365
   55CHL1   H7B 6489   4.633   3.656   9.585 -0.8327  1.4396  1.9470
   55CHL1    C8 6490   4.850   3.675   9.572  0.1840 -0.8303 -0.9622
   55CHL1    H8 6491   4.935   3.613   9.607 -1.0319 -0.3566  3.5171
   55CHL1   C14 6492   4.851   3.709   9.422 -0.3953  0.1678  0.6009
   55CHL1   H14 6493   4.763   3.777   9.415  2.4078  3.9646 -2.0461
   55CHL1   C15 6494   4.803   3.608   9.311 -0.8527 -0.0720  0.2212
   55CHL1  H15A 6495   4.826   3.503   9.341 -1.3192 -0.2305  0.0284
   55CHL1  H15B 6496   4.692   3.608   9.307 -0.8326 -1.2782 -2.3412
   55CHL1   C16 6497   4.881   3.663   9.190 -0.2466 -0.0034 -0.4080
   55CHL1  H16A 6498   4.978   3.610   9.183 -0.1817  0.2697 -1.8821
   55CHL1  H16B 6499   4.823   3.662   9.095  1.8024 -0.3416 -1.7087
   55CHL1   C17 6500   4.934   3.814   9.230 -0.0230 -0.2194  0.3213
   55CHL1   H17 6501   4.845   3.880   9.220 -0.6822 -1.2589 -0.8764
   55CHL1   C13 6502   4.964   3.801   9.379 -0.0402 -0.0122  0.0306
   55CHL1   C18 6503   5.103   3.736   9.412 -0.7126  0.2660 -0.0786
   55CHL1  H18A 6504   5.107   3.715   9.521  0.3304  0.7290 -0.0165
   55CHL1  H18B 6505   5.119   3.643   9.352  1.0055  0.8736 -0.6264
   55CHL1  H18C 6506   5.193   3.799   9.399  0.0807 -0.2999  2.2230
   55CHL1   C12 6507   4.950   3.924   9.460  0.4869 -0.0823  0.3948
   55CHL1  H12A 6508   5.027   3.995   9.422  0.5508 -1.1479 -1.5964
   55CHL1  H12B 6509   4.850   3.971   9.450  1.8146  3.4416  2.0739
   55CHL1   C11 6510   4.961   3.905   9.609 -0.4553 -0.1396 -0.1813
   55CHL1  H11A 6511   5.065   3.877   9.635 -0.2753  1.0358  0.4101
   55CHL1  H11B 6512   4.941   4.006   9.651 -0.5908  0.7378 -2.2428
   55CHL1    C9 6513   4.858   3.801   9.663  0.3904 -0.4100 -0.2711
   55CHL1    H9 6514   4.761   3.852   9.646  0.5425  0.5649  1.5311
   55CHL1   C10 6515   4.880   3.768   9.817 -0.1455 -0.0115 -0.2381
   55CHL1   C19 6516   5.028   3.728   9.845  0.7105  0.0786 -0.5572
   55CHL1  H19A 6517   5.091   3.812   9.809 -0.1213  1.2506  0.6700
   55CHL1  H19B 6518   5.052   3.701   9.950 -0.5268  1.0552 -0.0065
   55CHL1  H19C 6519   5.055   3.636   9.788 -0.7810 -0.7813  0.0904
   55CHL1    C1 6520   4.849   3.887   9.905 -0.9616 -1.0919 -0.0923
   55CHL1   H1A 6521   4.933   3.959   9.902 -3.5163  2.0973 -2.0527
   55CHL1   H1B 6522   4.757   3.940   9.871  0.0134 -0.1678 -1.3699
   55CHL1    C2 6523   4.833   3.851  10.053 -0.4178 -0.3637 -0.2173
   55CHL1   H2A 6524   4.800   3.931  10.123  0.8460 -2.6885  3.2927
   55CHL1   H2B 6525   4.936   3.825  10.086  0.3489  2.2402 -0.3640
   55CHL1   C20 6526   5.053   3.877   9.153 -0.5186  0.8278  0.5532
   55CHL1   H20 6527   5.118   3.924   9.230  1.0387 -0.2394 -0.0438
   55CHL1   C21 6528   4.998   3.981   9.054 -0.3633 -0.8686  0.0289
   55CHL1  H21A 6529   4.927   4.054   9.098  1.8535  2.2675 -1.2224
   55CHL1  H21B 6530   4.953   3.930   8.966 -0.9897 -0.3931  0.0653
   55CHL1  H21C 6531   5.080   4.043   9.013 -2.1546  1.7979  0.1918
   55CHL1   C22 6532   5.147   3.779   9.078  0.0661 -0.0336  0.0137
   55CHL1  H22A 6533   5.189   3.707   9.152  0.6649  1.5042  1.2163
   55CHL1  H22B 6534   5.101   3.719   8.997 -2.8706  0.2871  1.3138
   55CHL1   C23 6535   5.273   3.839   9.015 -0.5642 -0.1454 -0.0123
   55CHL1  H23A 6536   5.247   3.910   8.933 -1.0653 -0.0475  0.2308
   55CHL1  H23B 6537   5.340   3.890   9.087 -0.7172 -0.5612  0.4334
   55CHL1   C24 6538   5.349   3.724   8.947  0.3479  0.2005  0.7572
   55CHL1  H24A 6539   5.341   3.625   8.996 -3.5819 -0.2621 -0.5030
   55CHL1  H24B 6540   5.292   3.699   8.855 -2.5335  0.3488  2.3805
   55CHL1   C25 6541   5.483   3.765   8.885 -0.4842 -0.3722 -0.1006
   55CHL1   H25 6542   5.542   3.810   8.968 -1.5534  1.7040 -0.3979
   55CHL1   C26 6543   5.549   3.634   8.820 -0.6007 -0.1508 -0.0527
   55CHL1  H26A 6544   5.588   3.569   8.900 -0.4009 -1.2172 -0.9904
   55CHL1  H26B 6545   5.470   3.574   8.771 -1.0943 -2.0099  2.8074
   55CHL1  H26C 6546   5.622   3.680   8.750 -1.7099 -0.2482 -1.3154
   55CHL1   C27 6547   5.467   3.871   8.776 -0.1866  0.2269  0.6963
   55CHL1  H27A 6548   5.417   3.960   8.820  0.2284  0.8883 -0.1306
   55CHL1  H27B 6549   5.567   3.898   8.736 -0.1295 -2.2857 -1.0496
   55CHL1  H27C 6550   5.416   3.832   8.685 -2.7625  1.7814  1.3592
   56CHL1    C3 6551   3.599   0.016  10.157  0.0241 -0.6099 -0.3246
   56CHL1    H3 6552   3.620  -0.093  10.151 -0.6325 -0.7686  0.1592
   56CHL1    O3 6553   3.609   0.062  10.294  0.0673 -0.7457 -0.2925
   56CHL1   H3' 6554   3.617   0.158  10.292  0.6760 -0.5894  3.4174
   56CHL1    C4 6555   3.724   0.072  10.080  0.8888  0.0642  0.7321
   56CHL1   H4A 6556   3.732   0.182  10.097  1.7833 -0.2188  2.4058
   56CHL1   H4B 6557   3.814   0.027  10.129 -1.3203 -3.0428  2.2622
   56CHL1    C5 6558   3.727   0.049   9.929  0.0532  0.2505  0.4425
   56CHL1    C6 6559   3.826  -0.026   9.867  0.2522  0.2214  0.0450
   56CHL1    H6 6560   3.919  -0.047   9.922  1.5079  0.6052 -1.8344
   56CHL1    C7 6561   3.825  -0.073   9.724  0.0324 -0.2383  0.7600
   56CHL1   H7A 6562   3.930  -0.054   9.695 -0.4561  0.7592 -0.4557
   56CHL1   H7B 6563   3.812  -0.183   9.709  3.1869 -0.4952 -0.9829
   56CHL1    C8 6564   3.733   0.018   9.645 -0.1201  0.1635  0.4699
   56CHL1    H8 6565   3.789   0.114   9.645  1.1220 -0.5289  1.1368
   56CHL1   C14 6566   3.713  -0.043   9.502 -0.5663  0.3219  0.6484
   56CHL1   H14 6567   3.670  -0.144   9.516 -0.0010  0.1424  1.1430
   56CHL1   C15 6568   3.847  -0.079   9.428 -0.0240  0.0622 -0.1719
   56CHL1  H15A 6569   3.917   0.007   9.436 -1.3175  1.0718  0.7878
   56CHL1  H15B 6570   3.893  -0.173   9.466 -1.4428  0.0318  1.6067
   56CHL1   C16 6571   3.800  -0.096   9.286  0.2278 -0.1174  0.0277
   56CHL1  H16A 6572   3.864  -0.036   9.219  1.1399 -1.8919 -0.7515
   56CHL1  H16B 6573   3.804  -0.202   9.253 -1.7504 -0.0720 -0.5358
   56CHL1   C17 6574   3.649  -0.045   9.280 -0.6154 -0.8726 -0.1724
   56CHL1   H17 6575   3.589  -0.136   9.302 -0.0086 -0.5829  3.3005
   56CHL1   C13 6576   3.627   0.036   9.405  0.5022  0.4755 -0.0588
   56CHL1   C18 6577   3.683   0.181   9.390 -0.0521  0.4011 -0.0760
   56CHL1  H18A 6578   3.607   0.236   9.330  0.6441  0.6822 -0.7202
   56CHL1  H18B 6579   3.705   0.223   9.490  0.9841 -2.6816  1.1228
   56CHL1  H18C 6580   3.779   0.200   9.336 -1.3453  3.2293 -1.5849
   56CHL1   C12 6581   3.480   0.036   9.466  0.5262  0.2892  0.3848
   56CHL1  H12A 6582   3.418   0.110   9.411 -1.2763 -1.6089 -0.2716
   56CHL1  H12B 6583   3.439  -0.065   9.449 -2.2060  1.1249  1.5656
   56CHL1   C11 6584   3.479   0.090   9.611  0.2429 -1.3323  0.4335
   56CHL1  H11A 6585   3.498   0.199   9.609  0.7622 -1.4321 -0.5847
   56CHL1  H11B 6586   3.380   0.067   9.656 -0.4052  0.7672  0.1877
   56CHL1    C9 6587   3.587   0.032   9.706 -0.4295  0.0137  0.5387
   56CHL1    H9 6588   3.552  -0.071   9.729  0.7810 -0.1469  1.8377
   56CHL1   C10 6589   3.599   0.092   9.849 -0.4803  0.3889 -0.6060
   56CHL1   C19 6590   3.583   0.242   9.844  0.6545  0.2849 -0.5176
   56CHL1  H19A 6591   3.580   0.288   9.946 -0.8639  0.4740 -0.6195
   56CHL1  H19B 6592   3.654   0.299   9.781  0.8852  1.0722  0.4312
   56CHL1  H19C 6593   3.478   0.257   9.811 -0.2628 -3.9068 -0.1609
   56CHL1    C1 6594   3.477   0.032   9.932  0.5771  0.6291 -0.0846
   56CHL1   H1A 6595   3.378   0.064   9.894 -0.4782  2.0852  3.4285
   56CHL1   H1B 6596   3.478  -0.079   9.929 -2.8263  0.4517  0.8079
   56CHL1    C2 6597   3.474   0.076  10.083  0.6419  0.1625 -0.1682
   56CHL1   H2A 6598   3.382   0.027  10.121  0.5579 -1.6224 -2.4120
   56CHL1   H2B 6599   3.464   0.186  10.090 -2.2460  0.1033 -1.8142
   56CHL1   C20 6600   3.611   0.012   9.148 -0.0355 -0.1684  0.7174
   56CHL1   H20 6601   3.662   0.110   9.134  1.9586 -1.4245 -1.4897
   56CHL1   C21 6602   3.465   0.042   9.145  0.2715  0.3064  0.5839
   56CHL1  H21A 6603   3.407  -0.053   9.151  0.7590  0.0383  1.0752
   56CHL1  H21B 6604   3.431   0.082   9.047  1.6689  0.4048  0.1248
   56CHL1  H21C 6605   3.431   0.119   9.217 -1.2038  0.8814 -0.6506
   56CHL1   C22 6606   3.661  -0.074   9.031 -0.4736 -0.2586 -0.0429
   56CHL1  H22A 6607   3.772  -0.074   9.032 -0.3197  3.3947  1.4334
   56CHL1  H22B 6608   3.629  -0.179   9.045  2.2823 -1.2712 -0.8958
   56CHL1   C23 6609   3.624  -0.020   8.894 -0.3043 -0.3922  0.0541
   56CHL1  H23A 6610   3.516  -0.002   8.877  0.2827  1.7764 -2.0525
   56CHL1  H23B 6611   3.677   0.078   8.897 -0.9273  0.0226 -1.4964
   56CHL1   C24 6612   3.669  -0.103   8.767 -0.3030 -0.3399  0.0474
   56CHL1  H24A 6613   3.779  -0.114   8.778 -0.1120 -0.7777 -1.8947
   56CHL1  H24B 6614   3.626  -0.206   8.759 -2.3152  0.6050 -3.9440
   56CHL1   C25 6615   3.639  -0.038   8.632  0.0099 -0.3066 -1.1452
   56CHL1   H25 6616   3.684   0.063   8.624 -2.4603  0.9029 -0.6251
   56CHL1   C26 6617   3.710  -0.130   8.532 -0.7284 -0.4310 -0.4338
   56CHL1  H26A 6618   3.655  -0.118   8.437 -1.4493  2.1125  0.2288
   56CHL1  H26B 6619   3.820  -0.114   8.523 -0.4910 -1.9644 -0.4868
   56CHL1  H26C 6620   3.693  -0.236   8.559  0.4145 -1.1070 -2.1808
   56CHL1   C27 6621   3.487  -0.012   8.609 -1.0822 -0.4705 -0.4812
   56CHL1  H27A 6622   3.434  -0.110   8.614 -2.0273 -0.0515 -1.8766
   56CHL1  H27B 6623   3.452   0.044   8.698 -0.2549 -1.8566  0.7841
   56CHL1  H27C 6624   3.471   0.028   8.507  0.5938 -1.3170 -1.1248
   57CHL1    C3 6625   5.255   3.755  10.254  0.1705  0.0811 -0.2842
   57CHL1    H3 6626   5.159   3.774  10.202  0.6181  1.5899 -0.6305
   57CHL1    O3 6627   5.236   3.717  10.396 -0.1632 -0.0267 -0.8119
   57CHL1   H3' 6628   5.166   3.652  10.392 -2.4429  2.2640 -0.9044
   57CHL1    C4 6629   5.321   3.644  10.187  0.4506  0.4896  0.2040
   57CHL1   H4A 6630   5.416   3.629  10.242  0.5884 -1.3694 -0.4803
   57CHL1   H4B 6631   5.263   3.550  10.194  1.5904 -0.3103 -0.7653
   57CHL1    C5 6632   5.347   3.666  10.039  0.5159  0.1763 -0.4369
   57CHL1    C6 6633   5.307   3.574   9.947 -0.3216  0.3958 -0.0379
   57CHL1    H6 6634   5.254   3.484   9.981 -0.8474  0.2840 -1.0992
   57CHL1    C7 6635   5.349   3.577   9.801  0.9277 -0.3868 -0.8181
   57CHL1   H7A 6636   5.370   3.476   9.759 -2.0011 -0.9636 -1.1214
   57CHL1   H7B 6637   5.257   3.602   9.744  0.0063 -1.1633  0.2574
   57CHL1    C8 6638   5.471   3.676   9.773  0.3117  0.7541  0.0677
   57CHL1    H8 6639   5.562   3.627   9.811 -0.4028  0.1378  1.0305
   57CHL1   C14 6640   5.474   3.707   9.620 -0.8424  0.0294 -0.1471
   57CHL1   H14 6641   5.373   3.748   9.596 -0.3646  0.7780 -0.9442
   57CHL1   C15 6642   5.491   3.585   9.521 -0.2321 -0.7474  0.3695
   57CHL1  H15A 6643   5.574   3.522   9.558  0.1313 -1.2457 -1.2302
   57CHL1  H15B 6644   5.403   3.519   9.509 -0.6188  0.0441 -1.4218
   57CHL1   C16 6645   5.540   3.656   9.392  0.5626 -0.7783 -0.0596
   57CHL1  H16A 6646   5.639   3.615   9.362  0.1596 -2.2567  0.5412
   57CHL1  H16B 6647   5.474   3.643   9.304  2.2828  0.4531 -1.6102
   57CHL1   C17 6648   5.555   3.811   9.430 -0.5140  0.6913  0.2582
   57CHL1   H17 6649   5.453   3.851   9.408 -1.0710 -1.3292 -1.2089
   57CHL1   C13 6650   5.574   3.808   9.582 -0.6918 -0.6234 -0.1289
   57CHL1   C18 6651   5.721   3.752   9.612  0.3006  1.0935  0.0445
   57CHL1  H18A 6652   5.735   3.718   9.717 -2.6766 -1.6760 -0.3050
   57CHL1  H18B 6653   5.745   3.669   9.543 -1.1601 -0.6623  1.5434
   57CHL1  H18C 6654   5.795   3.830   9.587 -1.4748  2.0751 -2.5320
   57CHL1   C12 6655   5.549   3.943   9.661 -0.6885 -0.2663  0.4415
   57CHL1  H12A 6656   5.624   4.020   9.631  0.0308 -1.2049 -0.2279
   57CHL1  H12B 6657   5.449   3.979   9.626 -0.5616 -0.0030  0.3475
   57CHL1   C11 6658   5.549   3.912   9.812  0.0876  0.7442 -0.2911
   57CHL1  H11A 6659   5.652   3.879   9.839  0.1465 -0.1565 -1.5115
   57CHL1  H11B 6660   5.531   4.004   9.871  1.3507 -0.1467  1.5605
   57CHL1    C9 6661   5.446   3.805   9.855 -1.5360 -0.0048 -0.1424
   57CHL1    H9 6662   5.347   3.845   9.827 -3.2672 -2.0525  2.5518
   57CHL1   C10 6663   5.436   3.778  10.006 -0.2141 -0.3641  0.4069
   57CHL1   C19 6664   5.572   3.776  10.078 -0.0954  0.4652  0.3540
   57CHL1  H19A 6665   5.612   3.680  10.038 -0.6802  0.2571  0.2567
   57CHL1  H19B 6666   5.635   3.865  10.056  0.2713  0.5001  1.4967
   57CHL1  H19C 6667   5.567   3.755  10.187  1.3237 -0.2069  0.3124
   57CHL1    C1 6668   5.370   3.903  10.082  0.0405 -0.6104 -0.2809
   57CHL1   H1A 6669   5.438   3.990  10.074  0.7749 -1.0404  1.1151
   57CHL1   H1B 6670   5.277   3.939  10.032 -0.1217  0.1202  0.5219
   57CHL1    C2 6671   5.334   3.887  10.229 -0.0711  0.1268 -0.0289
   57CHL1   H2A 6672   5.272   3.969  10.271  1.4901  1.8356 -0.9198
   57CHL1   H2B 6673   5.424   3.885  10.295 -1.4933 -0.6973  1.9937
   57CHL1   C20 6674   5.657   3.902   9.356 -0.1879 -0.6055  0.1120
   57CHL1   H20 6675   5.732   3.931   9.433 -0.9851  0.9751  0.3433
   57CHL1   C21 6676   5.591   4.044   9.323  0.5375 -0.3836  0.3073
   57CHL1  H21A 6677   5.665   4.124   9.302  0.1903 -0.2892 -0.6139
   57CHL1  H21B 6678   5.539   4.075   9.416 -0.3003 -0.2339 -0.2003
   57CHL1  H21C 6679   5.524   4.041   9.235 -2.4797  1.6608  2.3259
   57CHL1   C22 6680   5.728   3.841   9.232 -0.0101 -0.4688  0.0979
   57CHL1  H22A 6681   5.782   3.752   9.270 -2.2510 -2.5158 -1.2487
   57CHL1  H22B 6682   5.652   3.808   9.158  0.5333  0.4299 -0.9007
   57CHL1   C23 6683   5.818   3.933   9.151 -0.5825 -0.7453  0.2703
   57CHL1  H23A 6684   5.758   4.021   9.117 -1.1243 -1.1000  0.2898
   57CHL1  H23B 6685   5.902   3.977   9.208 -1.1270  2.1939 -1.0039
   57CHL1   C24 6686   5.893   3.859   9.033 -0.1498  0.2152  0.0187
   57CHL1  H24A 6687   5.951   3.777   9.080  0.7692  0.6399 -0.3569
   57CHL1  H24B 6688   5.817   3.813   8.966  0.1441 -0.7059  0.2978
   57CHL1   C25 6689   5.983   3.960   8.957 -0.5488  0.1012  0.1659
   57CHL1   H25 6690   5.930   4.056   8.935 -0.9497 -0.1114  0.1870
   57CHL1   C26 6691   6.120   3.986   9.022  0.1533  0.1375 -0.2056
   57CHL1  H26A 6692   6.104   4.057   9.106 -2.7732  1.0040 -1.3458
   57CHL1  H26B 6693   6.163   3.890   9.056 -0.3327  0.1801  0.5562
   57CHL1  H26C 6694   6.188   4.047   8.959  0.9904 -0.2671  0.2902
   57CHL1   C27 6695   6.019   3.904   8.817  0.6342  0.0656 -0.7341
   57CHL1  H27A 6696   6.090   3.819   8.819 -0.5143 -0.9052 -0.6818
   57CHL1  H27B 6697   5.930   3.856   8.772  0.6979  1.2032 -2.1561
   57CHL1  H27C 6698   6.063   3.984   8.753 -0.9594  0.8777 -0.8636
   58CHL1    C3 6699   1.802   2.677  10.031 -0.4766 -0.2663  0.9209
   58CHL1    H3 6700   1.798   2.774   9.978  1.9328 -0.8739 -0.5408
   58CHL1    O3 6701   1.776   2.704  10.169  0.3277 -0.3458  0.1498
   58CHL1   H3' 6702   1.759   2.614  10.197  0.2178 -0.0434  1.0995
   58CHL1    C4 6703   1.687   2.591   9.969 -0.1762  0.2576 -0.6064
   58CHL1   H4A 6704   1.678   2.506  10.039  0.3403  1.7654  1.4049
   58CHL1   H4B 6705   1.592   2.649   9.965 -0.6019 -0.4702 -1.2381
   58CHL1    C5 6706   1.723   2.548   9.827  0.2873 -0.3746  0.3068
   58CHL1    C6 6707   1.641   2.577   9.724 -0.1396 -0.2674 -0.1383
   58CHL1    H6 6708   1.548   2.631   9.745  0.3133  0.1583  0.8310
   58CHL1    C7 6709   1.675   2.536   9.583 -1.1443  0.0107 -0.1025
   58CHL1   H7A 6710   1.579   2.499   9.541 -1.1283 -1.8253  1.3434
   58CHL1   H7B 6711   1.703   2.629   9.530 -0.5242  0.7062  1.3969
   58CHL1    C8 6712   1.780   2.432   9.556  0.0599  0.2209  0.3416
   58CHL1    H8 6713   1.728   2.338   9.582  0.3334 -0.1895 -0.5636
   58CHL1   C14 6714   1.838   2.436   9.417 -0.3149  0.7048 -0.3808
   58CHL1   H14 6715   1.895   2.532   9.412  1.6691 -0.4338 -0.5662
   58CHL1   C15 6716   1.743   2.430   9.299 -0.6209  0.3327 -0.4549
   58CHL1  H15A 6717   1.673   2.347   9.322  0.9366 -0.4661  1.7438
   58CHL1  H15B 6718   1.682   2.522   9.283 -2.4437 -0.3831  1.8094
   58CHL1   C16 6719   1.835   2.401   9.178  0.4244 -0.9322  0.3870
   58CHL1  H16A 6720   1.784   2.335   9.105  0.7373  0.0232 -0.7370
   58CHL1  H16B 6721   1.853   2.489   9.112 -0.2294 -1.7783 -0.9553
   58CHL1   C17 6722   1.971   2.365   9.236  0.3691 -0.4150  0.4836
   58CHL1   H17 6723   2.033   2.457   9.239 -0.3767  0.1328 -0.4421
   58CHL1   C13 6724   1.946   2.329   9.382  0.2848 -0.1368 -0.5838
   58CHL1   C18 6725   1.878   2.183   9.397  0.0779 -0.2987 -0.3365
   58CHL1  H18A 6726   1.811   2.173   9.486  2.0780 -0.4119  1.2299
   58CHL1  H18B 6727   1.829   2.148   9.304 -2.2334 -0.7061  0.9382
   58CHL1  H18C 6728   1.960   2.109   9.410 -0.3819 -0.8187 -0.3236
   58CHL1   C12 6729   2.058   2.342   9.483  0.4629 -0.2660 -0.0312
   58CHL1  H12A 6730   2.115   2.247   9.487  1.0348  0.0073 -1.2422
   58CHL1  H12B 6731   2.136   2.418   9.460 -0.3614  1.1994  1.7227
   58CHL1   C11 6732   2.021   2.367   9.626 -0.0571 -0.3244  0.0234
   58CHL1  H11A 6733   1.968   2.274   9.654  1.4480 -2.1404 -2.7392
   58CHL1  H11B 6734   2.114   2.388   9.684 -0.5362  1.0862  0.3346
   58CHL1    C9 6735   1.901   2.468   9.645  0.6096  0.5869  0.7120
   58CHL1    H9 6736   1.938   2.564   9.605  2.0495  0.7543  2.3286
   58CHL1   C10 6737   1.856   2.473   9.797  0.4653 -0.5710 -0.1134
   58CHL1   C19 6738   1.854   2.327   9.853 -0.0538 -0.2807 -0.0544
   58CHL1  H19A 6739   1.815   2.325   9.957 -2.7433  1.4941 -0.9019
   58CHL1  H19B 6740   1.791   2.252   9.801  2.1717 -3.4809  1.5787
   58CHL1  H19C 6741   1.958   2.292   9.866  0.1674 -0.0396 -1.1200
   58CHL1    C1 6742   1.967   2.561   9.874  0.7554  0.7839 -0.4446
   58CHL1   H1A 6743   2.058   2.500   9.888 -0.3776 -0.3777  2.9748
   58CHL1   H1B 6744   1.981   2.650   9.810  1.5237  2.1777  1.5739
   58CHL1    C2 6745   1.939   2.610  10.015 -0.0841 -0.0339 -0.1799
   58CHL1   H2A 6746   2.025   2.672  10.048 -0.0080 -1.0202  1.6062
   58CHL1   H2B 6747   1.950   2.514  10.070  2.6014  0.4345  0.2437
   58CHL1   C20 6748   2.052   2.263   9.157  0.7322  0.6278  0.0819
   58CHL1   H20 6749   1.994   2.169   9.156  1.3798  0.2249 -0.8780
   58CHL1   C21 6750   2.183   2.227   9.220 -0.8304 -0.7228 -0.0983
   58CHL1  H21A 6751   2.187   2.155   9.304 -0.0318 -0.7491 -0.1444
   58CHL1  H21B 6752   2.243   2.310   9.265 -0.1567 -0.8082 -0.8157
   58CHL1  H21C 6753   2.248   2.174   9.147 -0.8433 -0.1286 -0.5566
   58CHL1   C22 6754   2.078   2.310   9.008  0.4573 -0.3221  0.4632
   58CHL1  H22A 6755   2.118   2.220   8.957 -0.3956 -1.0022  0.9585
   58CHL1  H22B 6756   1.979   2.330   8.961  0.7502  0.5279  0.1881
   58CHL1   C23 6757   2.170   2.433   8.993  0.2292 -0.0817  1.3322
   58CHL1  H23A 6758   2.128   2.530   9.027 -1.8527 -0.4557 -0.0122
   58CHL1  H23B 6759   2.262   2.422   9.056  1.2916  1.5218  0.1403
   58CHL1   C24 6760   2.234   2.469   8.850 -0.0251  0.5613  0.4328
   58CHL1  H24A 6761   2.275   2.572   8.846 -1.6315  1.2173 -0.0513
   58CHL1  H24B 6762   2.318   2.399   8.829  0.1254  0.8535  0.0535
   58CHL1   C25 6763   2.129   2.469   8.736  0.1360 -0.2568  0.3412
   58CHL1   H25 6764   2.054   2.387   8.737  0.6340 -0.8406 -2.3749
   58CHL1   C26 6765   2.053   2.601   8.719  0.2627 -0.2010 -0.2905
   58CHL1  H26A 6766   2.114   2.683   8.676 -1.7320  2.0578  0.9134
   58CHL1  H26B 6767   1.961   2.594   8.656 -0.5524  2.5637  0.4355
   58CHL1  H26C 6768   2.016   2.637   8.818  4.3581 -2.0232  2.1376
   58CHL1   C27 6769   2.211   2.446   8.611 -0.0353  0.2930 -0.1869
   58CHL1  H27A 6770   2.138   2.418   8.532 -0.0894  1.2467 -0.4907
   58CHL1  H27B 6771   2.271   2.531   8.572  0.1961 -0.9312 -2.6829
   58CHL1  H27C 6772   2.281   2.362   8.631 -1.4778 -0.6242  1.2896
   59CHL1    C3 6773   1.097   1.060  10.374  0.3944 -0.2998  0.1338
   59CHL1    H3 6774   1.170   0.994  10.323 -0.2715 -0.4763 -0.6006
   59CHL1    O3 6775   1.092   1.038  10.515 -0.1014 -0.4516 -0.2104
   59CHL1   H3' 6776   1.142   1.111  10.553 -1.0204 -0.2749  0.6721
   59CHL1    C4 6777   1.152   1.204  10.351 -0.0980 -0.5147  0.5488
   59CHL1   H4A 6778   1.092   1.286  10.396  0.7606  2.1383 -2.7023
   59CHL1   H4B 6779   1.252   1.215  10.398 -0.6197  1.1005  1.3578
   59CHL1    C5 6780   1.169   1.231  10.195 -0.4676  0.5189 -0.2503
   59CHL1    C6 6781   1.291   1.259  10.149 -0.2786  0.4828  0.4456
   59CHL1    H6 6782   1.381   1.264  10.212  0.8608  2.2607 -1.1877
   59CHL1    C7 6783   1.311   1.287   9.999 -0.1687 -0.1138  0.7184
   59CHL1   H7A 6784   1.347   1.391   9.987 -1.5948  0.2828 -0.3515
   59CHL1   H7B 6785   1.382   1.215   9.953 -1.1804 -0.5132 -0.2546
   59CHL1    C8 6786   1.174   1.297   9.915 -0.0133  0.0703  0.0109
   59CHL1    H8 6787   1.132   1.398   9.934  1.1676  0.8940 -1.5164
   59CHL1   C14 6788   1.197   1.273   9.766  0.5530  0.0151 -0.2357
   59CHL1   H14 6789   1.234   1.168   9.757 -1.1843 -0.5949 -0.6975
   59CHL1   C15 6790   1.314   1.353   9.697  0.8006  0.1506  0.4988
   59CHL1  H15A 6791   1.315   1.453   9.746 -1.7860 -0.7913  2.7206
   59CHL1  H15B 6792   1.412   1.303   9.712  3.0653  2.9409 -3.1774
   59CHL1   C16 6793   1.260   1.366   9.552 -0.0483 -0.4128  0.4603
   59CHL1  H16A 6794   1.230   1.472   9.533 -2.3034 -0.5222  2.8709
   59CHL1  H16B 6795   1.344   1.346   9.482 -1.5140 -1.7856 -1.0047
   59CHL1   C17 6796   1.135   1.273   9.540 -0.3442  0.4272  0.0005
   59CHL1   H17 6797   1.172   1.169   9.541  0.2622  0.6093 -1.3836
   59CHL1   C13 6798   1.066   1.284   9.679 -0.2068 -0.7525  0.4298
   59CHL1   C18 6799   1.007   1.429   9.696 -0.1464  0.0978 -0.5676
   59CHL1  H18A 6800   1.073   1.514   9.668  0.0004  1.1829  2.6804
   59CHL1  H18B 6801   0.906   1.440   9.653 -2.3304 -1.5213  3.5569
   59CHL1  H18C 6802   0.989   1.457   9.802  0.8824  0.7993 -0.5564
   59CHL1   C12 6803   0.977   1.173   9.718 -0.0106 -0.3373  0.7028
   59CHL1  H12A 6804   0.879   1.172   9.666  0.0794  0.5273  0.5003
   59CHL1  H12B 6805   1.026   1.077   9.693 -1.4830 -0.8065 -0.5109
   59CHL1   C11 6806   0.946   1.179   9.870 -1.2652  0.0542 -0.7633
   59CHL1  H11A 6807   0.878   1.267   9.875 -1.3244  0.0789 -1.7740
   59CHL1  H11B 6808   0.885   1.090   9.898 -1.6807 -0.6228 -3.5510
   59CHL1    C9 6809   1.071   1.195   9.963 -0.5415  1.0886  0.6258
   59CHL1    H9 6810   1.122   1.096   9.967 -0.6558  0.9964 -0.1038
   59CHL1   C10 6811   1.036   1.209  10.116  0.5717 -0.0974 -0.0412
   59CHL1   C19 6812   0.956   1.338  10.141 -0.0006 -0.4029 -0.8094
   59CHL1  H19A 6813   1.015   1.426  10.108  1.2941 -0.3437  1.4211
   59CHL1  H19B 6814   0.861   1.335  10.083 -2.1719 -3.0538  2.4749
   59CHL1  H19C 6815   0.936   1.352  10.250  1.7669  0.1315 -0.5286
   59CHL1    C1 6816   0.959   1.089  10.159  0.3803  0.3093 -0.2861
   59CHL1   H1A 6817   0.852   1.089  10.128 -0.0471  1.5091  1.0748
   59CHL1   H1B 6818   1.003   1.003  10.106 -1.0862 -0.5230 -0.2137
   59CHL1    C2 6819   0.956   1.060  10.313  0.8229 -0.2709  0.4265
   59CHL1   H2A 6820   0.902   0.963  10.313 -0.0365  0.1976  1.0695
   59CHL1   H2B 6821   0.892   1.142  10.350  0.7894  0.5114 -1.2736
   59CHL1   C20 6822   1.053   1.301   9.405 -0.5199  0.1706 -0.2371
   59CHL1   H20 6823   1.029   1.408   9.394 -0.9274  0.2168  0.9914
   59CHL1   C21 6824   0.925   1.221   9.417  0.2445 -0.0862 -0.0369
   59CHL1  H21A 6825   0.869   1.224   9.321  0.3484  3.9832 -0.1645
   59CHL1  H21B 6826   0.852   1.269   9.487  0.5229  0.2721  0.0110
   59CHL1  H21C 6827   0.943   1.118   9.453 -0.7994 -0.0096  0.7658
   59CHL1   C22 6828   1.136   1.237   9.295  0.2944  0.1055  0.0882
   59CHL1  H22A 6829   1.233   1.289   9.281 -0.0622  0.5909 -0.6380
   59CHL1  H22B 6830   1.165   1.135   9.330  1.0767  0.9090  1.9312
   59CHL1   C23 6831   1.083   1.231   9.151 -0.5786  0.3424  0.4581
   59CHL1  H23A 6832   1.142   1.157   9.093 -0.7530  0.8569 -0.3929
   59CHL1  H23B 6833   0.978   1.193   9.155 -1.3199  2.2760  4.6489
   59CHL1   C24 6834   1.082   1.366   9.078  0.5881 -0.0910  0.5035
   59CHL1  H24A 6835   1.018   1.444   9.123  2.1966  1.5269  0.1369
   59CHL1  H24B 6836   1.187   1.395   9.055 -0.2151  1.7510 -1.1603
   59CHL1   C25 6837   1.020   1.345   8.938 -0.0884  0.1379  0.0096
   59CHL1   H25 6838   1.078   1.257   8.902  2.7488  0.5895  3.0684
   59CHL1   C26 6839   0.868   1.306   8.933 -0.2066 -0.1339  0.4740
   59CHL1  H26A 6840   0.867   1.211   8.991  1.0268 -0.8670 -0.6612
   59CHL1  H26B 6841   0.812   1.382   8.992  0.0283  0.1289  0.3622
   59CHL1  H26C 6842   0.833   1.304   8.828 -1.4885  1.5741  0.8191
   59CHL1   C27 6843   1.046   1.466   8.850  0.8798  0.1191 -0.8477
   59CHL1  H27A 6844   1.147   1.505   8.873  1.1984  0.2907 -2.4252
   59CHL1  H27B 6845   1.050   1.433   8.744  0.7197  0.6046 -1.0066
   59CHL1  H27C 6846   0.966   1.543   8.859 -0.6486 -1.3538 -1.2463
   60CHL1    C3 6847   1.128   0.518  10.307 -0.8692  0.3733 -0.1425
   60CHL1    H3 6848   1.201   0.452  10.255 -1.1960 -0.4054  0.3668
   60CHL1    O3 6849   1.131   0.507  10.448  0.2660 -0.1030  0.2464
   60CHL1   H3' 6850   1.225   0.527  10.459  0.4965  1.2931 -2.9774
   60CHL1    C4 6851   1.146   0.666  10.256 -0.5084 -0.0265 -0.1578
   60CHL1   H4A 6852   1.065   0.707  10.321  0.4698 -0.1854  1.1851
   60CHL1   H4B 6853   1.245   0.683  10.303 -1.0862 -0.0691  1.1130
   60CHL1    C5 6854   1.120   0.684  10.112 -0.7516  0.5756 -0.5565
   60CHL1    C6 6855   1.221   0.736  10.039 -0.6229 -0.0220  0.3823
   60CHL1    H6 6856   1.310   0.772  10.094 -2.4167 -0.3027  3.7777
   60CHL1    C7 6857   1.219   0.757   9.892  0.7803  0.7109  0.2596
   60CHL1   H7A 6858   1.241   0.858   9.851 -2.0388  0.9798 -0.7555
   60CHL1   H7B 6859   1.277   0.678   9.840 -1.7307 -0.7098 -0.5093
   60CHL1    C8 6860   1.074   0.730   9.839  0.5077  0.2976 -0.1214
   60CHL1    H8 6861   1.014   0.823   9.851 -0.8634 -0.2099 -2.4465
   60CHL1   C14 6862   1.076   0.701   9.686  0.3635  0.5848 -0.2706
   60CHL1   H14 6863   1.129   0.604   9.683 -0.7942 -0.0440 -1.6404
   60CHL1   C15 6864   1.154   0.799   9.609 -0.4817 -0.3320 -0.1036
   60CHL1  H15A 6865   1.131   0.891   9.666  0.7096  1.4169 -2.2725
   60CHL1  H15B 6866   1.264   0.788   9.617 -0.3987  0.9822  0.8979
   60CHL1   C16 6867   1.109   0.790   9.461  0.0883  0.3952  0.4866
   60CHL1  H16A 6868   1.075   0.892   9.435  0.0165  0.3730  0.4943
   60CHL1  H16B 6869   1.187   0.756   9.389 -1.3396 -1.5435 -0.2326
   60CHL1   C17 6870   0.990   0.686   9.469 -0.3363 -0.3056 -0.7539
   60CHL1   H17 6871   1.037   0.586   9.461  0.7186  0.1982 -0.9546
   60CHL1   C13 6872   0.941   0.685   9.614  0.4541  0.2676  0.1954
   60CHL1   C18 6873   0.849   0.814   9.633  0.4819  0.2846  0.3851
   60CHL1  H18A 6874   0.806   0.817   9.736 -1.3057  1.1787 -0.3522
   60CHL1  H18B 6875   0.891   0.905   9.585 -1.1354  1.1215  0.4827
   60CHL1  H18C 6876   0.754   0.796   9.578  0.0330  1.7165  0.6677
   60CHL1   C12 6877   0.873   0.560   9.680 -0.8384  0.3327 -0.3674
   60CHL1  H12A 6878   0.767   0.570   9.649 -1.3394 -1.5754  0.6363
   60CHL1  H12B 6879   0.926   0.466   9.654 -0.5689  0.8417 -1.7722
   60CHL1   C11 6880   0.867   0.574   9.839 -0.4058  0.7002  0.1649
   60CHL1  H11A 6881   0.794   0.655   9.862  0.2588  1.5819 -0.7674
   60CHL1  H11B 6882   0.814   0.488   9.886 -0.5778  0.4193 -0.5275
   60CHL1    C9 6883   0.997   0.613   9.909 -0.8259 -0.4363  0.2502
   60CHL1    H9 6884   1.060   0.525   9.883 -2.4403 -1.5661  0.0227
   60CHL1   C10 6885   0.992   0.632  10.057  0.9890  0.8224 -0.4328
   60CHL1   C19 6886   0.872   0.717  10.098 -0.5247 -0.2184  0.2099
   60CHL1  H19A 6887   0.773   0.680  10.066 -0.9518  1.5057 -0.5732
   60CHL1  H19B 6888   0.870   0.736  10.207  2.3852  1.2748  0.1197
   60CHL1  H19C 6889   0.884   0.818  10.054 -0.5670 -0.0593  0.5600
   60CHL1    C1 6890   0.971   0.486  10.109 -0.6738  0.2411 -0.1870
   60CHL1   H1A 6891   0.869   0.446  10.090  0.0668 -2.3011  0.6804
   60CHL1   H1B 6892   1.052   0.419  10.075 -1.6315 -1.2213  0.2968
   60CHL1    C2 6893   0.986   0.468  10.265  0.6747  0.7479 -0.1343
   60CHL1   H2A 6894   0.961   0.369  10.307 -2.4147  1.3948 -0.1755
   60CHL1   H2B 6895   0.910   0.532  10.316  1.0066 -0.9766  2.7393
   60CHL1   C20 6896   0.897   0.719   9.353  0.2419  0.6058 -0.3705
   60CHL1   H20 6897   0.861   0.824   9.355 -1.7740 -0.0362 -0.6180
   60CHL1   C21 6898   0.772   0.627   9.366  0.3109  0.6139  0.7218
   60CHL1  H21A 6899   0.697   0.644   9.286  2.7937  1.7070 -1.5178
   60CHL1  H21B 6900   0.716   0.632   9.463  0.4919  0.8976  0.8122
   60CHL1  H21C 6901   0.802   0.520   9.361  2.0521  1.0630  1.0810
   60CHL1   C22 6902   0.968   0.703   9.215 -0.4250  0.3699  0.0272
   60CHL1  H22A 6903   1.078   0.717   9.221 -0.3017 -1.0180  2.4498
   60CHL1  H22B 6904   0.960   0.598   9.178 -0.9532  0.4985 -0.2281
   60CHL1   C23 6905   0.927   0.806   9.103 -0.0801 -0.0394  0.2185
   60CHL1  H23A 6906   0.820   0.781   9.087  0.0727 -0.4173 -0.2478
   60CHL1  H23B 6907   0.949   0.906   9.146 -0.4124  0.4820 -0.7987
   60CHL1   C24 6908   0.998   0.796   8.975 -0.3828  0.1244 -0.2828
   60CHL1  H24A 6909   1.048   0.698   8.965  2.2179  1.1997  1.1455
   60CHL1  H24B 6910   0.936   0.825   8.888 -0.2441 -0.8751 -0.7257
   60CHL1   C25 6911   1.123   0.880   8.950 -0.6564  0.4225  1.1241
   60CHL1   H25 6912   1.079   0.981   8.933 -0.2436  0.7150  1.7557
   60CHL1   C26 6913   1.238   0.876   9.050  0.6939 -0.1009  0.9310
   60CHL1  H26A 6914   1.316   0.939   9.004  0.9142  0.1335  1.6087
   60CHL1  H26B 6915   1.210   0.918   9.149  0.2923  0.1379  0.7149
   60CHL1  H26C 6916   1.277   0.774   9.074 -0.7918 -0.9155  0.0322
   60CHL1   C27 6917   1.182   0.843   8.809 -0.1378 -0.3657  0.2078
   60CHL1  H27A 6918   1.101   0.849   8.732  1.0775 -0.7501 -1.1467
   60CHL1  H27B 6919   1.271   0.902   8.779  0.3233 -0.5223  1.2457
   60CHL1  H27C 6920   1.216   0.738   8.806 -1.7627 -0.9958  1.7827
   61CHL1    C3 6921   4.573   6.487  10.396  0.0066  0.7276 -0.1275
   61CHL1    H3 6922   4.484   6.551  10.379  1.1329  2.4933  0.2734
   61CHL1    O3 6923   4.553   6.450  10.532  0.1435 -0.3669 -0.2672
   61CHL1   H3' 6924   4.605   6.370  10.547 -0.7884 -0.8642  0.4070
   61CHL1    C4 6925   4.580   6.359  10.313  0.0153 -0.4772 -0.2299
   61CHL1   H4A 6926   4.662   6.293  10.348  1.1621  2.3702  3.0563
   61CHL1   H4B 6927   4.484   6.305  10.303 -0.0882 -0.1322 -1.2925
   61CHL1    C5 6928   4.619   6.406  10.168  0.6493 -0.1014  0.4401
   61CHL1    C6 6929   4.549   6.352  10.063  0.0254 -0.3567  0.0690
   61CHL1    H6 6930   4.465   6.284  10.086  1.1257 -1.8553 -0.1368
   61CHL1    C7 6931   4.582   6.376   9.922  0.8626  0.5055 -0.8503
   61CHL1   H7A 6932   4.593   6.279   9.869  0.8740 -0.2650  0.5015
   61CHL1   H7B 6933   4.514   6.452   9.877  1.3613  2.6540  1.7698
   61CHL1    C8 6934   4.718   6.439   9.901  0.2096  0.6993 -0.3200
   61CHL1    H8 6935   4.790   6.354   9.905  0.4611  0.9353  0.1499
   61CHL1   C14 6936   4.734   6.498   9.765  0.2691  0.4118  0.3240
   61CHL1   H14 6937   4.669   6.587   9.761  0.2499  0.3625 -0.6672
   61CHL1   C15 6938   4.687   6.403   9.645 -1.0617 -0.5227 -0.5443
   61CHL1  H15A 6939   4.736   6.305   9.659  0.8699  0.6046  1.1629
   61CHL1  H15B 6940   4.576   6.398   9.642 -1.0661 -0.0397 -1.6683
   61CHL1   C16 6941   4.761   6.464   9.532  0.4814 -1.1281 -0.0332
   61CHL1  H16A 6942   4.799   6.381   9.468 -1.8428 -0.9890 -1.7380
   61CHL1  H16B 6943   4.685   6.512   9.466  1.1758  3.0055  1.9088
   61CHL1   C17 6944   4.855   6.574   9.580  0.2997 -0.6507 -0.0544
   61CHL1   H17 6945   4.800   6.670   9.575 -0.6708 -1.1442  0.8022
   61CHL1   C13 6946   4.877   6.546   9.733 -0.6307 -0.1583  0.4943
   61CHL1   C18 6947   4.989   6.438   9.750  0.4045 -0.1361 -0.1645
   61CHL1  H18A 6948   4.964   6.335   9.718  2.4757 -1.2948  1.6848
   61CHL1  H18B 6949   5.092   6.462   9.716  1.5815 -5.5459 -1.2935
   61CHL1  H18C 6950   5.007   6.427   9.859 -0.5722 -0.1476  0.0008
   61CHL1   C12 6951   4.908   6.664   9.826 -0.2580 -0.3881 -0.1401
   61CHL1  H12A 6952   5.011   6.702   9.813 -0.3782  0.0151  0.0714
   61CHL1  H12B 6953   4.841   6.749   9.800  0.8337  1.6854  3.2002
   61CHL1   C11 6954   4.867   6.639   9.979  0.2857  0.1936 -0.4234
   61CHL1  H11A 6955   4.956   6.598  10.031  0.1403  0.1690 -0.1931
   61CHL1  H11B 6956   4.844   6.737  10.026  0.5926  0.2655 -0.4225
   61CHL1    C9 6957   4.743   6.549  10.003 -0.7889  0.1274 -0.1927
   61CHL1    H9 6958   4.657   6.618   9.990 -1.7213 -0.5312  1.9808
   61CHL1   C10 6959   4.742   6.499  10.149 -0.3273  0.1086 -0.0529
   61CHL1   C19 6960   4.857   6.408  10.178 -0.4726  0.0202  0.5295
   61CHL1  H19A 6961   4.866   6.323  10.107  1.0024  0.9740 -0.4884
   61CHL1  H19B 6962   4.955   6.460  10.178  0.7379 -2.1626  0.1897
   61CHL1  H19C 6963   4.859   6.377  10.285 -0.9484 -0.5313  0.3841
   61CHL1    C1 6964   4.740   6.617  10.248  0.5353 -0.6610  0.9958
   61CHL1   H1A 6965   4.835   6.675  10.249  0.3700 -0.2258  4.3537
   61CHL1   H1B 6966   4.656   6.685  10.222 -0.9545 -2.7415  0.0600
   61CHL1    C2 6967   4.703   6.569  10.390 -0.3414 -0.2007 -0.1366
   61CHL1   H2A 6968   4.691   6.660  10.454 -1.3454  0.6929 -1.5370
   61CHL1   H2B 6969   4.787   6.511  10.433  0.6010  1.3905  0.2697
   61CHL1   C20 6970   4.975   6.592   9.489  0.0559 -0.0537 -0.7390
   61CHL1   H20 6971   5.043   6.505   9.498 -0.6008 -0.8148 -2.5828
   61CHL1   C21 6972   5.059   6.722   9.521  0.7179  0.3985  0.6016
   61CHL1  H21A 6973   5.096   6.707   9.625  1.1220 -2.2679  0.1585
   61CHL1  H21B 6974   4.988   6.807   9.526 -0.5311 -0.5758  0.0520
   61CHL1  H21C 6975   5.148   6.733   9.456  1.0040  0.7902  1.0514
   61CHL1   C22 6976   4.941   6.600   9.340 -0.0224  0.4865 -0.1782
   61CHL1  H22A 6977   4.887   6.509   9.307  0.5241 -1.0458  2.8283
   61CHL1  H22B 6978   4.876   6.687   9.316  1.5165  0.8302 -3.8379
   61CHL1   C23 6979   5.062   6.604   9.246 -0.3052 -0.5023  0.1173
   61CHL1  H23A 6980   5.082   6.712   9.230 -1.2947 -0.4323 -0.8287
   61CHL1  H23B 6981   5.151   6.559   9.295  1.0289  1.0702 -0.7591
   61CHL1   C24 6982   5.051   6.552   9.101 -0.3378 -0.3643 -0.0125
   61CHL1  H24A 6983   5.158   6.560   9.071 -0.1526  0.2734  0.7739
   61CHL1  H24B 6984   5.019   6.446   9.108  0.9461 -0.7032  1.2331
   61CHL1   C25 6985   4.954   6.632   9.017 -0.5530  0.0232  0.3041
   61CHL1   H25 6986   4.857   6.629   9.071  0.1719 -1.4684  1.6116
   61CHL1   C26 6987   4.995   6.777   8.986 -0.6245  0.8956 -0.2800
   61CHL1  H26A 6988   4.916   6.819   8.919 -0.3690  1.0492 -0.4865
   61CHL1  H26B 6989   5.017   6.837   9.077  2.4543 -1.3003  0.5766
   61CHL1  H26C 6990   5.091   6.779   8.929  0.5102  0.0822  1.5257
   61CHL1   C27 6991   4.923   6.561   8.885 -0.6451  0.0994  0.1132
   61CHL1  H27A 6992   4.870   6.464   8.899 -1.1725  0.5921  1.8614
   61CHL1  H27B 6993   4.860   6.631   8.826  0.6789  0.7331 -0.5613
   61CHL1  H27C 6994   5.010   6.543   8.819 -1.5281  1.0898 -1.3690
   62CHL1    C3 6995   4.489   3.252  10.060  0.1928  0.3758  0.0442
   62CHL1    H3 6996   4.517   3.360  10.060  1.3037  0.1052  1.0435
   62CHL1    O3 6997   4.432   3.230  10.188 -0.0981 -0.1088 -0.2571
   62CHL1   H3' 6998   4.339   3.254  10.187  0.2010  1.1792  0.0779
   62CHL1    C4 6999   4.380   3.236   9.959 -0.6332 -0.0749  0.5156
   62CHL1   H4A 7000   4.340   3.134   9.979 -1.4657  0.3595  1.1421
   62CHL1   H4B 7001   4.300   3.310   9.979  0.1597  0.9850 -0.1030
   62CHL1    C5 7002   4.426   3.251   9.809 -0.0149  0.5562 -0.4722
   62CHL1    C6 7003   4.377   3.354   9.734 -0.2941  0.5605  0.3206
   62CHL1    H6 7004   4.308   3.418   9.791 -1.3803  0.0328 -0.3614
   62CHL1    C7 7005   4.417   3.373   9.588 -0.0540 -0.3122  0.3182
   62CHL1   H7A 7006   4.325   3.375   9.526  0.6834  0.0359 -0.8074
   62CHL1   H7B 7007   4.463   3.473   9.571 -0.6908  0.0357  0.6068
   62CHL1    C8 7008   4.496   3.253   9.533 -0.0368 -0.4471  0.5434
   62CHL1    H8 7009   4.424   3.171   9.515 -1.0812  0.2568  1.3878
   62CHL1   C14 7010   4.556   3.291   9.396  0.1655 -0.4696  0.1057
   62CHL1   H14 7011   4.606   3.388   9.418 -2.3606  0.6039  1.5122
   62CHL1   C15 7012   4.454   3.333   9.293 -1.0618 -0.0202 -0.3174
   62CHL1  H15A 7013   4.357   3.277   9.298 -0.5212 -1.0378 -0.7848
   62CHL1  H15B 7014   4.431   3.440   9.308  2.1542  0.7563 -0.3178
   62CHL1   C16 7015   4.525   3.300   9.164 -1.0386  0.8621  0.0809
   62CHL1  H16A 7016   4.469   3.235   9.094  0.0873 -0.3955  0.2925
   62CHL1  H16B 7017   4.540   3.398   9.113  1.3837  0.8148  0.5604
   62CHL1   C17 7018   4.674   3.249   9.204  1.0440  0.1197  0.3629
   62CHL1   H17 7019   4.740   3.338   9.208  1.3856 -0.1322  0.3272
   62CHL1   C13 7020   4.645   3.184   9.345 -0.5229  0.0715  0.4380
   62CHL1   C18 7021   4.571   3.046   9.336 -0.6651  0.1364  0.2046
   62CHL1  H18A 7022   4.544   3.004   9.435  0.2098 -0.4475  0.2084
   62CHL1  H18B 7023   4.494   3.039   9.256  0.4984 -3.4936 -0.8080
   62CHL1  H18C 7024   4.639   2.964   9.303 -0.8911  0.1937 -0.4307
   62CHL1   C12 7025   4.765   3.179   9.438 -0.2721  0.0994 -0.2032
   62CHL1  H12A 7026   4.844   3.111   9.401 -0.6010  0.1875 -1.0805
   62CHL1  H12B 7027   4.803   3.284   9.439 -1.3565  0.5097 -0.4622
   62CHL1   C11 7028   4.728   3.145   9.582  0.3147  0.4226 -0.3001
   62CHL1  H11A 7029   4.712   3.035   9.579 -0.6534  0.4287  2.2975
   62CHL1  H11B 7030   4.809   3.167   9.655  1.1822  2.6016 -1.8271
   62CHL1    C9 7031   4.608   3.221   9.635 -0.2122 -0.3105 -0.1413
   62CHL1    H9 7032   4.654   3.321   9.650 -1.6679  0.3127  0.3717
   62CHL1   C10 7033   4.547   3.169   9.769  0.7668 -0.3841 -0.1547
   62CHL1   C19 7034   4.491   3.029   9.740  0.2084 -0.7151 -1.1039
   62CHL1  H19A 7035   4.470   3.013   9.633 -1.2447 -1.3572 -0.7484
   62CHL1  H19B 7036   4.578   2.964   9.766  0.4673  0.2646  0.6456
   62CHL1  H19C 7037   4.409   2.997   9.808  2.2066 -1.0437  1.3473
   62CHL1    C1 7038   4.654   3.174   9.878  0.1697 -0.8220  0.0273
   62CHL1   H1A 7039   4.738   3.107   9.854  0.3046 -0.7106  0.1858
   62CHL1   H1B 7040   4.699   3.276   9.881 -2.3002  0.3483  0.3378
   62CHL1    C2 7041   4.605   3.151  10.022  0.0453  0.0625 -0.2905
   62CHL1   H2A 7042   4.683   3.144  10.101 -0.6160 -3.4101  0.1784
   62CHL1   H2B 7043   4.563   3.049  10.020  2.1464 -0.9195  1.4752
   62CHL1   C20 7044   4.721   3.156   9.098 -0.3636 -0.0105  0.3888
   62CHL1   H20 7045   4.650   3.071   9.095  0.2351 -0.4974 -1.4672
   62CHL1   C21 7046   4.859   3.095   9.133 -0.1797 -0.2029  0.9018
   62CHL1  H21A 7047   4.850   3.029   9.222 -2.5982  0.1025  0.9528
   62CHL1  H21B 7048   4.939   3.171   9.136 -1.3317  1.2308 -1.5743
   62CHL1  H21C 7049   4.878   3.012   9.062  0.0654  0.6420 -0.0366
   62CHL1   C22 7050   4.722   3.213   8.954 -0.1632  1.0958  0.2237
   62CHL1  H22A 7051   4.769   3.136   8.889 -0.9890 -0.1948  1.1161
   62CHL1  H22B 7052   4.618   3.227   8.918  0.9990  0.2875 -4.0053
   62CHL1   C23 7053   4.804   3.344   8.926  0.4363  0.0108  0.0575
   62CHL1  H23A 7054   4.768   3.426   8.991 -0.7641  0.4328 -1.1186
   62CHL1  H23B 7055   4.908   3.309   8.947 -0.3632 -3.2918 -0.9947
   62CHL1   C24 7056   4.792   3.387   8.777  0.3744  0.0301  0.0807
   62CHL1  H24A 7057   4.835   3.304   8.718  0.5693  1.1201 -1.3722
   62CHL1  H24B 7058   4.683   3.402   8.760  0.5483  0.4163 -0.7745
   62CHL1   C25 7059   4.864   3.517   8.755 -0.0139  0.0877  0.0451
   62CHL1   H25 7060   4.833   3.591   8.832  1.6703 -2.0037  2.9311
   62CHL1   C26 7061   5.020   3.502   8.769 -0.2637  0.1729 -0.7779
   62CHL1  H26A 7062   5.066   3.602   8.756  0.3514 -0.1158 -0.8576
   62CHL1  H26B 7063   5.045   3.460   8.869 -1.3284 -0.0072 -0.5724
   62CHL1  H26C 7064   5.065   3.440   8.689  1.3343 -1.3957  1.2300
   62CHL1   C27 7065   4.839   3.568   8.613  0.0087 -0.1430 -0.7639
   62CHL1  H27A 7066   4.893   3.663   8.590 -0.1118 -0.3759 -2.0807
   62CHL1  H27B 7067   4.872   3.491   8.541 -1.8287 -1.2817 -0.4630
   62CHL1  H27C 7068   4.734   3.599   8.595 -0.5755 -0.2131  2.0588
   63CHL1    C3 7069   6.442   3.576  10.323 -0.3587  0.6602 -0.0302
   63CHL1    H3 7070   6.540   3.625  10.344  0.2394 -0.4806 -0.1000
   63CHL1    O3 7071   6.377   3.592  10.445 -0.2899  0.4088  0.0121
   63CHL1   H3' 7072   6.298   3.640  10.419  0.4496  0.8640 -1.5305
   63CHL1    C4 7073   6.365   3.651  10.214 -0.4316  0.1774 -0.5151
   63CHL1   H4A 7074   6.259   3.620  10.221 -0.1412 -0.4914  2.9407
   63CHL1   H4B 7075   6.358   3.754  10.257  0.3219 -0.2053  0.5937
   63CHL1    C5 7076   6.439   3.625  10.086  0.9433  0.3166  0.0851
   63CHL1    C6 7077   6.475   3.731  10.013  0.1248  0.6345  0.2938
   63CHL1    H6 7078   6.446   3.833  10.044 -2.0922  1.1095 -2.9204
   63CHL1    C7 7079   6.544   3.714   9.886  0.0066  0.3004  0.2353
   63CHL1   H7A 7080   6.509   3.785   9.809 -2.4749 -1.2428 -0.1808
   63CHL1   H7B 7081   6.652   3.737   9.900  0.3081 -1.5817  1.4509
   63CHL1    C8 7082   6.540   3.571   9.827 -0.3075  0.4238  0.0500
   63CHL1    H8 7083   6.435   3.553   9.795 -1.3742  1.1917  2.7788
   63CHL1   C14 7084   6.635   3.554   9.711  1.1220  0.3211 -0.2075
   63CHL1   H14 7085   6.733   3.570   9.760  0.7274  4.4074 -0.3502
   63CHL1   C15 7086   6.639   3.658   9.594 -0.4628  0.1511 -0.4687
   63CHL1  H15A 7087   6.540   3.694   9.560 -0.1508 -1.9256 -4.0786
   63CHL1  H15B 7088   6.694   3.750   9.623  0.1616  0.1597 -1.6232
   63CHL1   C16 7089   6.696   3.585   9.478 -0.2374  0.9596 -0.5521
   63CHL1  H16A 7090   6.622   3.575   9.395  0.4589  1.2294 -1.2257
   63CHL1  H16B 7091   6.779   3.635   9.424 -1.8173  1.8524 -2.2886
   63CHL1   C17 7092   6.738   3.449   9.535  0.1609  0.4186  0.7805
   63CHL1   H17 7093   6.840   3.469   9.576  1.4523  0.0730 -2.0438
   63CHL1   C13 7094   6.635   3.416   9.644 -0.3859 -0.4128  0.0751
   63CHL1   C18 7095   6.499   3.382   9.583  0.4313 -0.2537  0.0216
   63CHL1  H18A 7096   6.488   3.274   9.558 -1.8858 -0.3021  0.9774
   63CHL1  H18B 7097   6.411   3.380   9.651 -0.3924  0.4899 -1.0003
   63CHL1  H18C 7098   6.484   3.453   9.499  2.0240 -0.0374 -0.0977
   63CHL1   C12 7099   6.678   3.319   9.751 -0.2668  0.0475 -0.1826
   63CHL1  H12A 7100   6.676   3.220   9.700  0.7628 -0.8963  1.5118
   63CHL1  H12B 7101   6.781   3.334   9.792 -0.1298  1.5024 -1.0105
   63CHL1   C11 7102   6.585   3.323   9.874  0.6459 -0.9175 -0.1559
   63CHL1  H11A 7103   6.491   3.277   9.839  0.1057 -0.1561  0.2730
   63CHL1  H11B 7104   6.620   3.266   9.963 -0.3638  0.6651  1.3133
   63CHL1    C9 7105   6.564   3.468   9.933  0.1239 -0.3585 -0.4793
   63CHL1    H9 7106   6.659   3.505   9.976  0.0301 -2.4110  1.6780
   63CHL1   C10 7107   6.468   3.482  10.053 -0.5625  0.1082 -0.2608
   63CHL1   C19 7108   6.347   3.395  10.014 -0.3634 -0.1960 -0.0661
   63CHL1  H19A 7109   6.379   3.290   9.994  2.8645  0.8017 -0.7196
   63CHL1  H19B 7110   6.285   3.392  10.106  1.3165  0.8956  1.1753
   63CHL1  H19C 7111   6.290   3.445   9.933 -0.5669 -1.4074 -0.7060
   63CHL1    C1 7112   6.553   3.420  10.172  1.0285  0.5895 -0.6880
   63CHL1   H1A 7113   6.571   3.312  10.154  1.2980  0.4148  0.5690
   63CHL1   H1B 7114   6.652   3.471  10.177  2.3999 -1.9748  0.0552
   63CHL1    C2 7115   6.472   3.432  10.297 -0.1972 -0.1159  0.3670
   63CHL1   H2A 7116   6.543   3.388  10.370 -0.4785 -0.8982  0.1802
   63CHL1   H2B 7117   6.378   3.373  10.296 -0.8947  0.8500  2.6802
   63CHL1   C20 7118   6.748   3.328   9.432  0.7645  0.0262  0.5084
   63CHL1   H20 7119   6.688   3.244   9.474 -1.7498 -0.2046 -3.0523
   63CHL1   C21 7120   6.890   3.277   9.436 -0.4999  0.0297 -0.2257
   63CHL1  H21A 7121   6.910   3.194   9.365 -0.0916 -0.8304  0.8517
   63CHL1  H21B 7122   6.922   3.248   9.539 -0.5219  2.8675  0.6490
   63CHL1  H21C 7123   6.957   3.360   9.404 -2.2598  1.4896 -0.2515
   63CHL1   C22 7124   6.704   3.356   9.281  0.4322 -0.0771 -0.0071
   63CHL1  H22A 7125   6.594   3.373   9.278  0.1187 -1.6502  1.0181
   63CHL1  H22B 7126   6.761   3.449   9.259 -0.2440  0.3821  0.1567
   63CHL1   C23 7127   6.723   3.245   9.180 -0.4657  0.1423 -0.2994
   63CHL1  H23A 7128   6.830   3.220   9.167 -0.4967  0.1797 -0.6413
   63CHL1  H23B 7129   6.669   3.156   9.218 -0.8582  0.9925  1.2302
   63CHL1   C24 7130   6.675   3.277   9.040 -1.3025  0.2407 -0.1988
   63CHL1  H24A 7131   6.660   3.185   8.979  2.0944 -1.8022  1.7823
   63CHL1  H24B 7132   6.579   3.333   9.048 -0.8598  0.8127  1.7174
   63CHL1   C25 7133   6.763   3.369   8.943 -0.4690 -0.0458 -1.0385
   63CHL1   H25 7134   6.793   3.455   9.005 -0.1957 -0.3006 -0.8137
   63CHL1   C26 7135   6.902   3.315   8.902 -0.5344 -0.0931 -0.0581
   63CHL1  H26A 7136   6.959   3.293   8.995  1.4383  1.0422 -0.9439
   63CHL1  H26B 7137   6.888   3.221   8.845  2.4930 -0.6723 -0.0390
   63CHL1  H26C 7138   6.954   3.386   8.834 -0.7339 -1.3133 -1.5475
   63CHL1   C27 7139   6.692   3.419   8.818  0.2467 -0.5550  0.0953
   63CHL1  H27A 7140   6.637   3.334   8.771  0.5390 -1.4902  1.3984
   63CHL1  H27B 7141   6.618   3.500   8.836  1.5059  0.3378  1.4594
   63CHL1  H27C 7142   6.759   3.461   8.740 -1.4688  0.8187 -0.7108
   64CHL1    C3 7143   5.652   4.939   9.968  0.1621 -0.3516 -0.5556
   64CHL1    H3 7144   5.702   4.841   9.978  0.1948 -0.6513 -3.1370
   64CHL1    O3 7145   5.601   4.973  10.100 -0.1595  0.3022 -0.1360
   64CHL1   H3' 7146   5.673   4.953  10.159 -1.4946  2.0676  2.3032
   64CHL1    C4 7147   5.754   5.041   9.930  0.6869 -0.0379  0.2031
   64CHL1   H4A 7148   5.714   5.144   9.937  0.0854 -0.3933  3.6389
   64CHL1   H4B 7149   5.835   5.044  10.006  1.1643  0.1236 -0.3045
   64CHL1    C5 7150   5.815   5.023   9.792  0.1991  0.1374  0.0599
   64CHL1    C6 7151   5.947   4.998   9.778  0.6147 -0.6664 -0.2534
   64CHL1    H6 7152   6.011   4.979   9.866 -0.0196 -2.5790 -0.1463
   64CHL1    C7 7153   6.006   4.979   9.645  0.1662  0.1998  0.0087
   64CHL1   H7A 7154   6.095   5.045   9.635 -0.8028  1.2564 -2.0388
   64CHL1   H7B 7155   6.038   4.873   9.650  1.2321  0.5282  0.4352
   64CHL1    C8 7156   5.915   5.007   9.530  0.5803 -0.3814 -0.0524
   64CHL1    H8 7157   5.897   5.116   9.519 -1.9701 -0.8242 -0.7914
   64CHL1   C14 7158   5.972   4.946   9.405 -0.5032 -0.2243 -0.0629
   64CHL1   H14 7159   5.971   4.839   9.437  1.5911  0.2928  1.9741
   64CHL1   C15 7160   6.121   4.974   9.364 -0.2019 -0.0194  0.5676
   64CHL1  H15A 7161   6.134   5.084   9.375  2.0493 -0.3216  1.3437
   64CHL1  H15B 7162   6.189   4.910   9.424  1.5848  1.0587 -0.2207
   64CHL1   C16 7163   6.118   4.935   9.211 -1.2866 -0.7584  0.0235
   64CHL1  H16A 7164   6.147   5.021   9.147 -1.1174 -1.1024 -0.3617
   64CHL1  H16B 7165   6.187   4.849   9.199 -1.2626 -0.5652 -1.3879
   64CHL1   C17 7166   5.971   4.891   9.173 -0.9225  0.1149  0.9538
   64CHL1   H17 7167   5.955   4.782   9.188 -3.8796  0.2360 -0.6640
   64CHL1   C13 7168   5.883   4.962   9.273 -0.2092 -0.7460 -0.2749
   64CHL1   C18 7169   5.862   5.111   9.235 -0.4656 -0.8994  0.7851
   64CHL1  H18A 7170   5.785   5.117   9.155  2.5570  2.0555 -2.2368
   64CHL1  H18B 7171   5.835   5.171   9.324  1.5703  0.7623  0.3732
   64CHL1  H18C 7172   5.955   5.142   9.182 -2.0994  1.5866 -0.8420
   64CHL1   C12 7173   5.748   4.898   9.304 -0.6828 -0.0952  0.2614
   64CHL1  H12A 7174   5.675   4.903   9.220  1.1244 -3.9694 -1.8324
   64CHL1  H12B 7175   5.758   4.788   9.317 -2.1299 -0.7710 -3.1976
   64CHL1   C11 7176   5.688   4.972   9.424 -0.0474  0.8424 -0.5720
   64CHL1  H11A 7177   5.682   5.082   9.408  0.1084  0.7278 -1.4860
   64CHL1  H11B 7178   5.584   4.944   9.453 -0.3783  2.2838 -0.2750
   64CHL1    C9 7179   5.773   4.955   9.545  0.1816  0.3157  0.1296
   64CHL1    H9 7180   5.783   4.844   9.552 -3.2785 -0.1958 -1.3820
   64CHL1   C10 7181   5.704   5.014   9.685 -0.2840 -0.4476  0.0626
   64CHL1   C19 7182   5.644   5.159   9.656  0.2167 -0.0376 -0.0588
   64CHL1  H19A 7183   5.714   5.243   9.636  2.7721 -2.3921 -1.7319
   64CHL1  H19B 7184   5.571   5.155   9.573  1.6904 -3.8556 -1.3844
   64CHL1  H19C 7185   5.588   5.187   9.748  0.6646 -1.2330  0.6000
   64CHL1    C1 7186   5.589   4.914   9.734 -0.7038 -0.0808  0.5110
   64CHL1   H1A 7187   5.505   4.904   9.661  0.0761 -1.7895 -0.2078
   64CHL1   H1B 7188   5.635   4.814   9.726 -1.5552 -0.4342 -0.1820
   64CHL1    C2 7189   5.541   4.940   9.869  0.3860  0.2432  0.5092
   64CHL1   H2A 7190   5.460   4.874   9.907  0.2493 -0.8262 -1.5056
   64CHL1   H2B 7191   5.505   5.045   9.873 -0.0228  0.1216  0.0414
   64CHL1   C20 7192   5.934   4.903   9.022  0.0378 -0.4810 -0.0254
   64CHL1   H20 7193   5.907   5.009   9.004 -0.5862 -0.3085  1.7412
   64CHL1   C21 7194   5.814   4.820   8.980 -0.2070 -0.6458  0.4342
   64CHL1  H21A 7195   5.730   4.859   9.041 -0.7558 -1.1452  0.0077
   64CHL1  H21B 7196   5.835   4.712   8.996  3.1870 -0.3387 -1.1765
   64CHL1  H21C 7197   5.795   4.831   8.871  2.5186 -0.9832 -0.1466
   64CHL1   C22 7198   6.053   4.872   8.923 -0.8468  0.7177  0.7381
   64CHL1  H22A 7199   6.143   4.932   8.948  1.1548 -1.3190 -1.0797
   64CHL1  H22B 7200   6.079   4.765   8.936 -0.6531  0.4874 -1.1484
   64CHL1   C23 7201   6.014   4.885   8.767 -0.2877  0.3347 -0.2645
   64CHL1  H23A 7202   5.934   4.812   8.738  0.0803  0.0630 -0.6038
   64CHL1  H23B 7203   5.970   4.984   8.745 -1.2593  0.0290  0.2261
   64CHL1   C24 7204   6.147   4.868   8.689 -0.6824 -0.0016  0.4712
   64CHL1  H24A 7205   6.212   4.947   8.732 -1.2562 -0.1947  1.7487
   64CHL1  H24B 7206   6.201   4.772   8.704  0.0454  0.2990 -0.1703
   64CHL1   C25 7207   6.124   4.876   8.536 -0.2912 -0.8222  0.0008
   64CHL1   H25 7208   6.032   4.933   8.511  2.7106  2.8843 -4.0276
   64CHL1   C26 7209   6.237   4.955   8.471 -0.0420 -0.0570 -0.2342
   64CHL1  H26A 7210   6.223   4.962   8.361 -1.7885  1.9468  0.0354
   64CHL1  H26B 7211   6.247   5.060   8.508  0.5412  0.2483 -1.2373
   64CHL1  H26C 7212   6.335   4.913   8.500 -0.7102 -0.5823  1.3821
   64CHL1   C27 7213   6.110   4.732   8.474  0.1028  0.3292  0.0409
   64CHL1  H27A 7214   6.091   4.764   8.369  1.8440  0.8146 -0.1624
   64CHL1  H27B 7215   6.202   4.674   8.497 -1.5785 -1.4022  3.1000
   64CHL1  H27C 7216   6.018   4.682   8.510  0.5713  0.2076  1.1155
   65CHL1    C3 7217   1.600   0.862  10.396  0.2472  0.2662 -0.5652
   65CHL1    H3 7218   1.583   0.753  10.389  0.0291  0.3090 -0.7329
   65CHL1    O3 7219   1.594   0.883  10.531  0.0508  0.1804  0.1166
   65CHL1   H3' 7220   1.539   0.960  10.543  1.7981  1.2981  1.5809
   65CHL1    C4 7221   1.742   0.896  10.336 -0.8475 -0.1729  0.1880
   65CHL1   H4A 7222   1.770   0.999  10.370  0.0748 -0.4260  0.2331
   65CHL1   H4B 7223   1.820   0.827  10.374  0.5063 -0.8157 -3.4034
   65CHL1    C5 7224   1.745   0.896  10.184  0.2906  0.3881  0.4264
   65CHL1    C6 7225   1.833   0.824  10.127 -1.1997  0.0361  1.1090
   65CHL1    H6 7226   1.912   0.768  10.177  0.0391  0.9781  0.2606
   65CHL1    C7 7227   1.845   0.825   9.976 -0.8045 -0.3715  0.2730
   65CHL1   H7A 7228   1.953   0.839   9.956  0.3690 -3.7846  3.1818
   65CHL1   H7B 7229   1.824   0.720   9.946 -2.4879  0.2757 -0.9859
   65CHL1    C8 7230   1.766   0.929   9.897 -0.1720 -0.1318  0.2142
   65CHL1    H8 7231   1.814   1.029   9.895 -1.4961  0.5186 -0.2949
   65CHL1   C14 7232   1.757   0.871   9.756  0.5142 -0.2128  0.5040
   65CHL1   H14 7233   1.702   0.775   9.767 -0.1377  0.2724  1.6553
   65CHL1   C15 7234   1.877   0.839   9.672 -0.6123 -0.4534 -0.0262
   65CHL1  H15A 7235   1.954   0.915   9.697 -0.4441 -0.4694 -0.4756
   65CHL1  H15B 7236   1.942   0.751   9.691  2.2302  1.1777 -1.4375
   65CHL1   C16 7237   1.840   0.848   9.525  1.0731  0.0229 -0.1697
   65CHL1  H16A 7238   1.906   0.920   9.471  0.7115 -0.5060 -1.3554
   65CHL1  H16B 7239   1.853   0.756   9.464  0.8148  0.1731 -0.4551
   65CHL1   C17 7240   1.690   0.884   9.519  0.1743 -0.3074 -0.2088
   65CHL1   H17 7241   1.643   0.783   9.522 -0.8284  0.1562  3.0252
   65CHL1   C13 7242   1.670   0.954   9.657  0.3738  0.1187  0.0896
   65CHL1   C18 7243   1.728   1.103   9.644 -0.3683  0.3624  0.1690
   65CHL1  H18A 7244   1.728   1.162   9.738  0.1950  0.7152 -0.0513
   65CHL1  H18B 7245   1.835   1.095   9.616 -0.3499  2.6791 -0.6788
   65CHL1  H18C 7246   1.677   1.161   9.564  0.1305  0.9137  0.2454
   65CHL1   C12 7247   1.528   0.963   9.719  0.2116 -0.3595  0.1203
   65CHL1  H12A 7248   1.470   1.030   9.652  0.5370  0.1487  0.3371
   65CHL1  H12B 7249   1.481   0.863   9.714  0.2829 -0.3764 -0.2594
   65CHL1   C11 7250   1.537   1.014   9.863  0.0006 -0.5301  0.6966
   65CHL1  H11A 7251   1.580   1.116   9.856  0.0136 -0.5703  0.1473
   65CHL1  H11B 7252   1.436   1.023   9.911  0.6687 -1.3442  2.3550
   65CHL1    C9 7253   1.629   0.935   9.956  0.0038  0.1728  0.0230
   65CHL1    H9 7254   1.596   0.830   9.943 -1.9084  0.8765 -1.1591
   65CHL1   C10 7255   1.636   0.970  10.109  0.1468  0.3132  0.3091
   65CHL1   C19 7256   1.660   1.121  10.128  1.1008 -0.4960 -0.3384
   65CHL1  H19A 7257   1.669   1.152  10.235  0.6070  1.6797 -0.8890
   65CHL1  H19B 7258   1.760   1.141  10.085  1.7478 -0.0882  1.2554
   65CHL1  H19C 7259   1.587   1.193  10.086 -0.4551 -0.9602  1.4043
   65CHL1    C1 7260   1.503   0.925  10.180  0.3271 -0.4088 -0.0403
   65CHL1   H1A 7261   1.421   0.986  10.135  0.3779  0.2695  0.7643
   65CHL1   H1B 7262   1.487   0.819  10.152 -0.1408 -0.4184  0.2720
   65CHL1    C2 7263   1.490   0.939  10.333  0.3608  0.4468 -0.1911
   65CHL1   H2A 7264   1.391   0.893  10.353  0.8490 -1.3726 -1.7461
   65CHL1   H2B 7265   1.498   1.047  10.361  0.2964  0.1102  1.2065
   65CHL1   C20 7266   1.648   0.954   9.386  0.3092 -0.1679 -0.3407
   65CHL1   H20 7267   1.687   1.058   9.389  0.6129 -0.3088  2.0452
   65CHL1   C21 7268   1.496   0.942   9.378  0.3100 -0.1732  0.1276
   65CHL1  H21A 7269   1.471   0.837   9.405  1.2221 -0.5346 -0.3810
   65CHL1  H21B 7270   1.458   0.970   9.277  2.2348  0.6295 -0.4356
   65CHL1  H21C 7271   1.443   1.010   9.447 -1.1245 -0.8836 -0.2374
   65CHL1   C22 7272   1.716   0.897   9.259 -0.1856 -0.1392  0.3763
   65CHL1  H22A 7273   1.825   0.885   9.277  0.2438  0.4645 -1.4919
   65CHL1  H22B 7274   1.683   0.792   9.246  1.6219 -0.7881  0.8315
   65CHL1   C23 7275   1.705   0.979   9.126  0.3171  0.2114  0.5001
   65CHL1  H23A 7276   1.603   1.021   9.120  0.1731 -0.1766  0.1523
   65CHL1  H23B 7277   1.774   1.066   9.119 -0.0667  0.4105 -2.1552
   65CHL1   C24 7278   1.735   0.888   9.001  0.4492 -0.1170  0.4052
   65CHL1  H24A 7279   1.839   0.849   8.994  0.2465 -0.4664 -1.3474
   65CHL1  H24B 7280   1.671   0.798   9.007  0.3777 -0.1542 -0.7259
   65CHL1   C25 7281   1.704   0.951   8.863 -0.3474 -0.5506 -0.4265
   65CHL1   H25 7282   1.740   0.880   8.786 -1.2987 -1.8799  0.3185
   65CHL1   C26 7283   1.560   0.991   8.835  0.2084 -0.3308  0.6341
   65CHL1  H26A 7284   1.535   1.086   8.887  1.7622 -0.7791  2.3062
   65CHL1  H26B 7285   1.551   0.989   8.724  1.0854 -0.3267  0.5526
   65CHL1  H26C 7286   1.501   0.908   8.879  0.2269 -0.1517  1.0045
   65CHL1   C27 7287   1.805   1.079   8.825  1.0251  0.6472 -0.4502
   65CHL1  H27A 7288   1.783   1.158   8.900  2.0630 -1.0167  1.7474
   65CHL1  H27B 7289   1.906   1.034   8.836 -0.4258 -2.3219  2.8809
   65CHL1  H27C 7290   1.785   1.122   8.725  1.7460  1.7315 -0.1515
   66CHL1    C3 7291   4.373   0.690  10.757  0.4749  0.5495 -0.8334
   66CHL1    H3 7292   4.288   0.757  10.729  0.8598  0.4055 -2.4365
   66CHL1    O3 7293   4.351   0.650  10.895  0.4740 -0.2266  0.0654
   66CHL1   H3' 7294   4.358   0.734  10.941 -2.1806  0.6179 -0.8938
   66CHL1    C4 7295   4.369   0.567  10.663 -0.0273  0.1265  0.1396
   66CHL1   H4A 7296   4.448   0.499  10.703 -0.6708  0.9000  2.9091
   66CHL1   H4B 7297   4.269   0.523  10.677 -0.3342  0.2021 -1.5868
   66CHL1    C5 7298   4.404   0.603  10.522 -0.3712 -0.0530 -0.5325
   66CHL1    C6 7299   4.320   0.569  10.421 -0.5852  0.5298 -0.2626
   66CHL1    H6 7300   4.233   0.504  10.436  0.9077 -1.7325 -0.9522
   66CHL1    C7 7301   4.345   0.605  10.275  0.1610  0.3430 -0.1447
   66CHL1   H7A 7302   4.316   0.525  10.204 -0.0600  0.9452 -0.7490
   66CHL1   H7B 7303   4.278   0.693  10.267 -2.0800 -1.0909  1.5456
   66CHL1    C8 7304   4.492   0.642  10.250 -0.0104  0.1603 -0.0281
   66CHL1    H8 7305   4.550   0.547  10.252 -0.0416  0.1470  0.9457
   66CHL1   C14 7306   4.506   0.720  10.119  0.1312  0.0587  0.4502
   66CHL1   H14 7307   4.430   0.801  10.117 -2.1637 -2.0042 -0.9321
   66CHL1   C15 7308   4.461   0.645   9.988  0.4295  0.0407 -0.6668
   66CHL1  H15A 7309   4.473   0.535   9.990  0.4322  0.0473 -0.1930
   66CHL1  H15B 7310   4.352   0.665   9.974  0.4088  1.5999  1.2566
   66CHL1   C16 7311   4.546   0.698   9.873  0.2046 -0.4168  0.3580
   66CHL1  H16A 7312   4.602   0.610   9.835 -2.3154 -2.2419  0.6512
   66CHL1  H16B 7313   4.486   0.744   9.792 -0.4342 -0.4059  0.8281
   66CHL1   C17 7314   4.637   0.805   9.942 -0.0925 -0.6779 -1.0495
   66CHL1   H17 7315   4.577   0.899   9.940 -0.6086 -0.9981 -0.6561
   66CHL1   C13 7316   4.650   0.760  10.089 -0.2025  0.3230 -0.0782
   66CHL1   C18 7317   4.748   0.645  10.094  0.7914 -0.1933 -0.3978
   66CHL1  H18A 7318   4.849   0.691  10.090  0.7602  0.2139  2.0520
   66CHL1  H18B 7319   4.753   0.598  10.195  3.5652  2.0621  0.6360
   66CHL1  H18C 7320   4.737   0.567  10.016 -1.0372  2.1400 -2.6360
   66CHL1   C12 7321   4.673   0.876  10.193 -0.7432  0.0687 -0.3982
   66CHL1  H12A 7322   4.762   0.943  10.181 -0.2868 -0.1784  1.4024
   66CHL1  H12B 7323   4.597   0.955  10.174  0.3967  1.2973 -0.0429
   66CHL1   C11 7324   4.665   0.806  10.333  0.3325  0.4887  0.3507
   66CHL1  H11A 7325   4.744   0.728  10.340 -0.2235 -0.2994 -1.5235
   66CHL1  H11B 7326   4.689   0.887  10.406 -0.5043 -0.8033  2.1211
   66CHL1    C9 7327   4.534   0.737  10.361 -0.4955 -0.3527  0.1374
   66CHL1    H9 7328   4.450   0.809  10.355 -2.1507 -2.1735  0.3185
   66CHL1   C10 7329   4.530   0.687  10.508  0.3676  0.4845  0.2861
   66CHL1   C19 7330   4.652   0.601  10.539 -0.4606 -0.0749 -0.5266
   66CHL1  H19A 7331   4.660   0.526  10.457 -0.1570 -0.8318  0.1753
   66CHL1  H19B 7332   4.740   0.667  10.528 -1.0616  0.8706  0.2708
   66CHL1  H19C 7333   4.655   0.549  10.637  0.7142 -0.2040 -0.6120
   66CHL1    C1 7334   4.531   0.806  10.606  0.1607  0.0829  0.0010
   66CHL1   H1A 7335   4.627   0.862  10.601  0.7716 -0.8020  1.1641
   66CHL1   H1B 7336   4.460   0.886  10.578 -0.1226 -0.4877 -0.9343
   66CHL1    C2 7337   4.502   0.770  10.751 -0.1958 -0.2026  0.5632
   66CHL1   H2A 7338   4.494   0.865  10.807 -1.0894  1.0324 -1.5341
   66CHL1   H2B 7339   4.591   0.713  10.786  1.6487  2.7123  0.9735
   66CHL1   C20 7340   4.766   0.834   9.858  0.0693 -0.3298 -0.7423
   66CHL1   H20 7341   4.822   0.738   9.850 -1.5134 -1.5060  1.2088
   66CHL1   C21 7342   4.866   0.932   9.928 -0.0698  0.7057  0.1419
   66CHL1  H21A 7343   4.906   0.882  10.019 -0.8265  0.4205  0.3212
   66CHL1  H21B 7344   4.825   1.032   9.955 -1.6392 -0.4883  2.5018
   66CHL1  H21C 7345   4.954   0.954   9.864 -0.2859 -0.1819 -0.4701
   66CHL1   C22 7346   4.727   0.903   9.723 -0.4476  0.1980 -0.5676
   66CHL1  H22A 7347   4.633   0.960   9.736 -0.2436  0.6623 -1.0573
   66CHL1  H22B 7348   4.803   0.983   9.708  0.9510 -0.8576  0.6199
   66CHL1   C23 7349   4.717   0.811   9.599  0.2376  0.1256  0.4647
   66CHL1  H23A 7350   4.642   0.730   9.610  0.7228 -0.5656 -1.0157
   66CHL1  H23B 7351   4.676   0.882   9.523 -1.0322  1.4366  2.2788
   66CHL1   C24 7352   4.852   0.757   9.558  0.1001  0.7504  0.2141
   66CHL1  H24A 7353   4.934   0.831   9.565  0.1731  0.9009 -1.7173
   66CHL1  H24B 7354   4.878   0.678   9.632  0.2626  0.8299  0.2407
   66CHL1   C25 7355   4.859   0.712   9.413  0.0289  0.2716  0.1171
   66CHL1   H25 7356   4.803   0.785   9.350 -2.0176  0.7594  2.3869
   66CHL1   C26 7357   5.011   0.694   9.375 -0.1980 -0.6053 -0.3946
   66CHL1  H26A 7358   5.055   0.796   9.386  0.3559 -0.6770 -1.8148
   66CHL1  H26B 7359   5.069   0.615   9.426 -0.1593 -1.3332 -1.5355
   66CHL1  H26C 7360   5.014   0.669   9.267 -0.8172 -1.1796 -0.2846
   66CHL1   C27 7361   4.800   0.569   9.404  0.1431  0.2731 -0.1813
   66CHL1  H27A 7362   4.862   0.502   9.467  0.7672  0.3440 -0.7129
   66CHL1  H27B 7363   4.693   0.573   9.434  0.4617  3.3289  0.9435
   66CHL1  H27C 7364   4.804   0.537   9.298  1.1624  0.6436 -0.2668
   67CHL1    C3 7365   3.804   0.779  10.318  0.0245 -0.6759  0.6545
   67CHL1    H3 7366   3.860   0.867  10.279  0.9197 -1.3002  0.4871
   67CHL1    O3 7367   3.817   0.772  10.455 -0.3541  0.3483 -0.6255
   67CHL1   H3' 7368   3.736   0.732  10.487  0.7503 -2.0905 -0.6642
   67CHL1    C4 7369   3.657   0.774  10.274  0.1609 -0.4331 -0.6648
   67CHL1   H4A 7370   3.607   0.689  10.324  1.2048 -0.8631 -0.3371
   67CHL1   H4B 7371   3.602   0.863  10.312  1.4121  0.4763 -0.9030
   67CHL1    C5 7372   3.647   0.763  10.122 -0.2744 -0.0929  0.3206
   67CHL1    C6 7373   3.580   0.861  10.059 -0.0632  0.0345 -0.2898
   67CHL1    H6 7374   3.531   0.941  10.115  0.9787  1.1920 -0.9887
   67CHL1    C7 7375   3.571   0.876   9.911 -0.3803  0.2006 -0.1689
   67CHL1   H7A 7376   3.469   0.905   9.878 -0.6800  0.7630  1.1587
   67CHL1   H7B 7377   3.641   0.955   9.876 -0.1014  0.1170  0.1870
   67CHL1    C8 7378   3.618   0.749   9.829 -0.2774 -0.2185 -0.0415
   67CHL1    H8 7379   3.543   0.670   9.851  2.0603 -2.2715  1.1278
   67CHL1   C14 7380   3.637   0.772   9.682  0.5818 -0.0173  0.0334
   67CHL1   H14 7381   3.719   0.845   9.672 -0.0314  0.5471 -1.0965
   67CHL1   C15 7382   3.522   0.846   9.608  0.2494 -0.1724  0.4264
   67CHL1  H15A 7383   3.425   0.795   9.624  1.4535 -2.9500 -0.4655
   67CHL1  H15B 7384   3.516   0.953   9.637 -0.5863  0.2084 -1.0383
   67CHL1   C16 7385   3.555   0.816   9.456  0.2512 -0.7541  0.0367
   67CHL1  H16A 7386   3.465   0.778   9.404 -1.4159  0.7762  1.6345
   67CHL1  H16B 7387   3.595   0.913   9.419  0.7972 -0.6885  0.7663
   67CHL1   C17 7388   3.676   0.717   9.455  0.1432  0.1319 -0.6264
   67CHL1   H17 7389   3.764   0.786   9.454  0.4289 -0.2270 -1.5173
   67CHL1   C13 7390   3.684   0.653   9.599  0.5513  0.2719 -0.1006
   67CHL1   C18 7391   3.565   0.547   9.589 -0.0128 -0.3111  0.2016
   67CHL1  H18A 7392   3.481   0.580   9.524 -0.9751 -0.7525  1.1764
   67CHL1  H18B 7393   3.604   0.453   9.544  1.2595 -0.4596  1.5519
   67CHL1  H18C 7394   3.524   0.517   9.688 -0.4883  1.8498  0.7142
   67CHL1   C12 7395   3.815   0.598   9.654 -0.0970 -0.4296  0.1855
   67CHL1  H12A 7396   3.842   0.498   9.613 -2.0189 -0.6195 -0.6916
   67CHL1  H12B 7397   3.899   0.671   9.651 -0.4213 -0.0531  0.2726
   67CHL1   C11 7398   3.790   0.571   9.807 -0.5642  0.7495  0.5150
   67CHL1  H11A 7399   3.715   0.489   9.806  0.9127 -0.6582 -0.0488
   67CHL1  H11B 7400   3.885   0.529   9.847 -2.1755 -3.3655  0.5100
   67CHL1    C9 7401   3.743   0.697   9.890 -0.3370 -0.1984  0.1258
   67CHL1    H9 7402   3.819   0.777   9.885 -0.4722 -0.0517  0.3639
   67CHL1   C10 7403   3.734   0.664  10.046  0.1010  0.0378 -0.0910
   67CHL1   C19 7404   3.658   0.536  10.070 -0.1365 -0.0773  0.1612
   67CHL1  H19A 7405   3.645   0.502  10.175  0.2780  0.7812  0.4961
   67CHL1  H19B 7406   3.558   0.524  10.022 -0.5707  1.0288  0.7709
   67CHL1  H19C 7407   3.720   0.447  10.041  1.6366  0.9958  0.5151
   67CHL1    C1 7408   3.875   0.662  10.102 -0.1000  0.3750 -0.4798
   67CHL1   H1A 7409   3.929   0.570  10.070  0.4381 -1.6114  5.1324
   67CHL1   H1B 7410   3.925   0.751  10.057 -1.5312  1.7004  0.4449
   67CHL1    C2 7411   3.877   0.659  10.255  0.3244  0.1956 -0.3991
   67CHL1   H2A 7412   3.984   0.658  10.286  0.3655 -0.6047 -0.5671
   67CHL1   H2B 7413   3.819   0.568  10.283 -0.3589  1.1633  1.5459
   67CHL1   C20 7414   3.703   0.626   9.331  0.3708  0.4237  0.4576
   67CHL1   H20 7415   3.635   0.538   9.339 -0.2158  0.9747  2.0651
   67CHL1   C21 7416   3.845   0.558   9.343 -0.2981 -0.1448 -0.5585
   67CHL1  H21A 7417   3.923   0.614   9.399  1.2013 -1.2605 -1.4486
   67CHL1  H21B 7418   3.892   0.525   9.248  1.1235 -1.2267  0.4666
   67CHL1  H21C 7419   3.841   0.469   9.411  1.1039  1.4121  1.7281
   67CHL1   C22 7420   3.690   0.694   9.201  0.2278  0.5995  0.2791
   67CHL1  H22A 7421   3.691   0.619   9.119  0.5375  1.3743 -0.4379
   67CHL1  H22B 7422   3.596   0.753   9.212  0.2845  0.4588  1.7426
   67CHL1   C23 7423   3.807   0.784   9.171  0.3824  1.1325 -0.1025
   67CHL1  H23A 7424   3.793   0.884   9.219 -2.3495  0.4947  0.6288
   67CHL1  H23B 7425   3.906   0.745   9.202 -0.0661 -0.8839 -1.0510
   67CHL1   C24 7426   3.814   0.814   9.019  0.3537 -0.3389  0.1925
   67CHL1  H24A 7427   3.725   0.864   8.975  3.2684  1.0826 -4.8320
   67CHL1  H24B 7428   3.887   0.897   9.009 -0.1204  0.1541  0.7503
   67CHL1   C25 7429   3.851   0.707   8.913  0.7665 -0.3881 -0.4010
   67CHL1   H25 7430   3.785   0.618   8.920 -0.7793  0.5863 -1.9017
   67CHL1   C26 7431   3.844   0.756   8.767 -0.1915 -0.6368  0.0415
   67CHL1  H26A 7432   3.873   0.684   8.687 -0.4353  0.5451 -1.1443
   67CHL1  H26B 7433   3.743   0.793   8.739  0.8425  1.9694 -0.5351
   67CHL1  H26C 7434   3.918   0.839   8.769 -0.7795 -0.1129  2.1013
   67CHL1   C27 7435   3.985   0.649   8.947 -0.1266 -0.1914 -0.5888
   67CHL1  H27A 7436   4.014   0.581   8.864  1.7249  0.9125 -0.9115
   67CHL1  H27B 7437   4.059   0.731   8.954 -1.4440  0.9986 -0.1961
   67CHL1  H27C 7438   3.986   0.596   9.044  1.5263  0.4296 -0.2351
   68CHL1    C3 7439   1.472   0.444  10.153  0.0679 -0.3771  0.3908
   68CHL1    H3 7440   1.381   0.508  10.158 -1.1090 -1.6063 -2.8272
   68CHL1    O3 7441   1.527   0.419  10.279  0.0125 -0.1640 -0.0337
   68CHL1   H3' 7442   1.504   0.327  10.287  0.1300 -0.4074 -2.1641
   68CHL1    C4 7443   1.442   0.312  10.070 -0.0267  0.3798 -0.9340
   68CHL1   H4A 7444   1.534   0.250  10.065 -0.0014  0.4773 -2.0910
   68CHL1   H4B 7445   1.365   0.259  10.129  0.8175  0.4211  0.2342
   68CHL1    C5 7446   1.391   0.356   9.936 -0.1552 -0.3360  0.2646
   68CHL1    C6 7447   1.277   0.310   9.889 -0.1577  0.0291  0.0694
   68CHL1    H6 7448   1.215   0.253   9.959  0.4377  0.1659  0.7112
   68CHL1    C7 7449   1.240   0.306   9.741 -0.1343 -0.6065  0.0911
   68CHL1   H7A 7450   1.202   0.207   9.709 -1.2953 -0.2474  0.3240
   68CHL1   H7B 7451   1.152   0.370   9.718  0.3630  0.8181  1.9087
   68CHL1    C8 7452   1.359   0.358   9.650  0.3413  0.1569  0.6431
   68CHL1    H8 7453   1.433   0.279   9.628  0.9125  0.7442  0.4100
   68CHL1   C14 7454   1.311   0.406   9.511  0.4578  0.4450 -0.8026
   68CHL1   H14 7455   1.251   0.498   9.525 -0.1713  0.0072 -0.6086
   68CHL1   C15 7456   1.205   0.312   9.437  0.7350 -0.4786 -0.0711
   68CHL1  H15A 7457   1.238   0.208   9.457 -0.7589 -1.1552 -0.9384
   68CHL1  H15B 7458   1.103   0.331   9.477  0.7023 -1.5488  0.3884
   68CHL1   C16 7459   1.227   0.354   9.292 -0.0930  0.6425 -0.3895
   68CHL1  H16A 7460   1.266   0.271   9.230  2.2645 -0.8007  2.7372
   68CHL1  H16B 7461   1.130   0.388   9.249  0.1168  0.2304 -1.1962
   68CHL1   C17 7462   1.339   0.467   9.284  0.0634  0.4120  0.2411
   68CHL1   H17 7463   1.285   0.562   9.304 -0.5496 -0.2761  2.1159
   68CHL1   C13 7464   1.421   0.440   9.414 -0.1259 -1.1817 -0.5379
   68CHL1   C18 7465   1.520   0.328   9.386 -0.0512  0.1175 -0.2446
   68CHL1  H18A 7466   1.475   0.242   9.331  0.8396  0.0416 -0.8655
   68CHL1  H18B 7467   1.594   0.369   9.314 -0.5094  0.3727 -0.5743
   68CHL1  H18C 7468   1.569   0.280   9.474 -0.0183  1.6391  0.5933
   68CHL1   C12 7469   1.493   0.562   9.480  0.5691 -0.2068  0.5657
   68CHL1  H12A 7470   1.575   0.599   9.414 -0.8916 -1.7817 -2.2938
   68CHL1  H12B 7471   1.426   0.647   9.504 -0.2096 -0.1884 -1.5244
   68CHL1   C11 7472   1.557   0.523   9.618  0.0843 -0.6824 -0.0273
   68CHL1  H11A 7473   1.637   0.447   9.608  0.8012 -0.1844  1.5891
   68CHL1  H11B 7474   1.610   0.612   9.659 -0.0890 -1.5081  2.1168
   68CHL1    C9 7475   1.443   0.473   9.718 -0.3232  0.2327  0.6353
   68CHL1    H9 7476   1.381   0.565   9.724 -0.7501 -0.0146  0.1421
   68CHL1   C10 7477   1.504   0.425   9.849 -0.7362  0.1243 -0.2115
   68CHL1   C19 7478   1.617   0.319   9.830  0.3571 -0.1079  0.0426
   68CHL1  H19A 7479   1.579   0.233   9.770  1.4538 -0.3269 -0.3718
   68CHL1  H19B 7480   1.702   0.366   9.775  0.2163  1.3670  1.0313
   68CHL1  H19C 7481   1.666   0.276   9.920  2.5143  1.8447 -0.0996
   68CHL1    C1 7482   1.549   0.546   9.939  0.6556 -0.6566 -0.3577
   68CHL1   H1A 7483   1.640   0.593   9.896 -0.3541  1.3129 -0.4287
   68CHL1   H1B 7484   1.474   0.626   9.928  0.0446 -0.9188  1.5830
   68CHL1    C2 7485   1.584   0.522  10.087 -0.0104  0.2797  0.8797
   68CHL1   H2A 7486   1.609   0.615  10.142  0.1279  0.2323  0.8966
   68CHL1   H2B 7487   1.676   0.461  10.083 -0.6135 -0.5911 -1.1109
   68CHL1   C20 7488   1.414   0.462   9.143  0.0059 -1.5640 -0.4421
   68CHL1   H20 7489   1.471   0.368   9.125  0.0154 -1.5470 -0.5026
   68CHL1   C21 7490   1.506   0.581   9.131 -0.1183 -0.2267 -0.4557
   68CHL1  H21A 7491   1.555   0.585   9.031  3.0856  0.1143  1.0048
   68CHL1  H21B 7492   1.591   0.573   9.202  0.3341 -1.2102 -1.0932
   68CHL1  H21C 7493   1.456   0.680   9.145 -0.4341 -0.5574  0.8751
   68CHL1   C22 7494   1.306   0.465   9.033  0.1325  0.6265 -0.2956
   68CHL1  H22A 7495   1.238   0.377   9.034  0.8244  0.0300 -1.8842
   68CHL1  H22B 7496   1.246   0.557   9.051  0.0637  0.6211 -0.4895
   68CHL1   C23 7497   1.356   0.478   8.886 -0.3162 -0.0487 -0.3636
   68CHL1  H23A 7498   1.383   0.585   8.872 -2.1763  0.7715  1.6392
   68CHL1  H23B 7499   1.441   0.415   8.852 -1.6717 -0.5228 -3.1631
   68CHL1   C24 7500   1.245   0.450   8.784 -0.1625 -0.2709 -0.6564
   68CHL1  H24A 7501   1.199   0.350   8.802 -1.6095  0.6780  1.2085
   68CHL1  H24B 7502   1.163   0.522   8.800 -0.4295 -1.4849  6.1613
   68CHL1   C25 7503   1.297   0.455   8.629 -0.3083 -0.0300  0.0294
   68CHL1   H25 7504   1.392   0.398   8.626  0.4462  1.1832  0.4099
   68CHL1   C26 7505   1.207   0.391   8.521  0.0019  0.4239  0.3592
   68CHL1  H26A 7506   1.202   0.280   8.519 -3.4972  0.4748 -0.5355
   68CHL1  H26B 7507   1.099   0.417   8.530 -0.4165 -1.0811 -0.0272
   68CHL1  H26C 7508   1.235   0.422   8.419  0.0606  1.8768  0.7982
   68CHL1   C27 7509   1.325   0.604   8.598 -0.5585  0.1743  0.4609
   68CHL1  H27A 7510   1.395   0.653   8.669 -1.5568  1.3337  0.6636
   68CHL1  H27B 7511   1.374   0.605   8.498  1.2982  4.3546  1.2264
   68CHL1  H27C 7512   1.228   0.658   8.599  0.2258  1.8331  4.1520
   69CHL1    C3 7513   1.444   5.313   6.882 -0.2066  0.1707 -0.5102
   69CHL1    H3 7514   1.396   5.407   6.918 -1.0209  0.2984 -1.8676
   69CHL1    O3 7515   1.490   5.341   6.750 -0.3206  0.1739 -0.4336
   69CHL1   H3' 7516   1.491   5.257   6.704  0.0544  1.3595 -2.8039
   69CHL1    C4 7517   1.563   5.288   6.980  0.1684  0.5155  0.4841
   69CHL1   H4A 7518   1.615   5.206   6.926  1.1212  0.7859  0.9597
   69CHL1   H4B 7519   1.636   5.371   6.969  0.5085  0.3219  1.2556
   69CHL1    C5 7520   1.517   5.255   7.119 -0.5186 -0.4484 -0.0328
   69CHL1    C6 7521   1.574   5.316   7.224 -0.1357 -0.0709 -0.4297
   69CHL1    H6 7522   1.649   5.393   7.205 -0.4428  0.9249  2.1309
   69CHL1    C7 7523   1.538   5.290   7.367 -0.4341 -0.2911  0.0256
   69CHL1   H7A 7524   1.633   5.292   7.424 -0.4808  1.5575  0.1177
   69CHL1   H7B 7525   1.484   5.379   7.407  0.9999  0.2452  0.8441
   69CHL1    C8 7526   1.462   5.164   7.393 -0.0244 -0.6660 -0.3287
   69CHL1    H8 7527   1.542   5.088   7.385  1.0216  0.5258 -2.1610
   69CHL1   C14 7528   1.400   5.166   7.533  0.2094 -0.0269 -0.2364
   69CHL1   H14 7529   1.329   5.251   7.531 -0.1726 -0.3165  0.6984
   69CHL1   C15 7530   1.490   5.191   7.657 -0.6591  0.3719  0.6377
   69CHL1  H15A 7531   1.584   5.135   7.637 -1.9240 -1.4015 -0.6225
   69CHL1  H15B 7532   1.518   5.298   7.671 -0.2185  0.4065 -0.3785
   69CHL1   C16 7533   1.399   5.142   7.768  0.1626  0.7395  0.1042
   69CHL1  H16A 7534   1.459   5.075   7.834  1.6774 -1.1868 -2.9806
   69CHL1  H16B 7535   1.376   5.224   7.839 -0.7507  1.4355 -0.9809
   69CHL1   C17 7536   1.278   5.081   7.702 -0.0708 -0.3949  0.3828
   69CHL1   H17 7537   1.220   5.172   7.676  2.1322  0.8195 -0.5311
   69CHL1   C13 7538   1.320   5.044   7.567 -0.1989  0.6751  0.1010
   69CHL1   C18 7539   1.407   4.907   7.569 -0.2348 -0.1710  0.1063
   69CHL1  H18A 7540   1.493   4.903   7.640  0.5749 -2.2272 -0.9150
   69CHL1  H18B 7541   1.334   4.830   7.601  0.2447 -0.0032  1.7180
   69CHL1  H18C 7542   1.447   4.892   7.466 -0.0624  1.4230 -0.0885
   69CHL1   C12 7543   1.216   5.026   7.463 -0.0206  0.2201  0.0531
   69CHL1  H12A 7544   1.156   4.933   7.470 -2.5013  1.5563 -1.6555
   69CHL1  H12B 7545   1.144   5.111   7.465 -0.4603  0.0543 -3.1137
   69CHL1   C11 7546   1.265   5.036   7.313 -0.0946 -0.3814 -0.9143
   69CHL1  H11A 7547   1.305   4.934   7.298 -2.9517 -1.5292 -1.3579
   69CHL1  H11B 7548   1.176   5.033   7.247 -2.2451 -0.8729  1.8300
   69CHL1    C9 7549   1.350   5.153   7.285  0.3070  0.0318 -0.0257
   69CHL1    H9 7550   1.292   5.247   7.297  1.0163  0.4084  0.6008
   69CHL1   C10 7551   1.410   5.154   7.137 -0.4071  0.5318  0.4418
   69CHL1   C19 7552   1.478   5.013   7.107 -0.4338 -0.5911 -0.3275
   69CHL1  H19A 7553   1.544   4.986   7.192  1.4230  2.3434 -0.6490
   69CHL1  H19B 7554   1.399   4.938   7.087 -0.8081 -1.2425  3.1024
   69CHL1  H19C 7555   1.539   5.011   7.014 -1.2021 -0.8753 -0.8336
   69CHL1    C1 7556   1.295   5.174   7.033 -0.0727 -0.2806  0.2287
   69CHL1   H1A 7557   1.222   5.091   7.040  1.7826 -2.1330 -0.9816
   69CHL1   H1B 7558   1.245   5.271   7.053  2.9519  1.3761  0.3595
   69CHL1    C2 7559   1.347   5.193   6.887 -0.7147  0.3511 -0.6678
   69CHL1   H2A 7560   1.259   5.192   6.820 -0.8392 -0.8121 -0.5091
   69CHL1   H2B 7561   1.407   5.102   6.867  0.7439  0.9821  0.5769
   69CHL1   C20 7562   1.181   4.993   7.786 -0.4238 -0.5285  0.3668
   69CHL1   H20 7563   1.127   4.930   7.711 -0.8879  1.4134 -1.0053
   69CHL1   C21 7564   1.091   5.099   7.860  0.1328 -0.1295 -0.3832
   69CHL1  H21A 7565   1.143   5.157   7.939  2.3527  0.1707 -1.9684
   69CHL1  H21B 7566   1.016   5.049   7.925  0.4472  0.0441  0.1147
   69CHL1  H21C 7567   1.026   5.164   7.797  1.6986  2.3621  0.4334
   69CHL1   C22 7568   1.254   4.906   7.891  0.3599 -0.2414 -0.4567
   69CHL1  H22A 7569   1.332   4.844   7.841  1.4855  1.6948 -1.1995
   69CHL1  H22B 7570   1.301   4.974   7.964  1.4766 -1.1658 -0.2836
   69CHL1   C23 7571   1.156   4.813   7.965 -0.2559 -0.4593 -0.1909
   69CHL1  H23A 7572   1.101   4.876   8.038 -0.4186  1.7941 -2.1291
   69CHL1  H23B 7573   1.082   4.768   7.895  0.1020 -2.3576  0.5933
   69CHL1   C24 7574   1.223   4.698   8.038  0.1573  1.1455  0.2391
   69CHL1  H24A 7575   1.291   4.645   7.968  1.1243  0.1757  1.8601
   69CHL1  H24B 7576   1.280   4.747   8.119  1.7329  0.5523 -0.4731
   69CHL1   C25 7577   1.114   4.594   8.087  0.0716  0.1518  0.4871
   69CHL1   H25 7578   1.053   4.556   8.002  2.0227  0.9920 -1.3782
   69CHL1   C26 7579   1.179   4.481   8.173  0.1218  0.4518 -0.0662
   69CHL1  H26A 7580   1.106   4.413   8.221  1.7319 -0.9129  0.5606
   69CHL1  H26B 7581   1.248   4.423   8.108  1.1083  1.8781 -0.3536
   69CHL1  H26C 7582   1.257   4.506   8.248 -0.1423  0.9297  0.0593
   69CHL1   C27 7583   1.011   4.679   8.173 -0.4119 -0.3037  0.7053
   69CHL1  H27A 7584   0.931   4.614   8.213  0.1080 -1.5496 -0.2165
   69CHL1  H27B 7585   1.061   4.722   8.263 -0.5418 -1.0318  1.1290
   69CHL1  H27C 7586   0.959   4.758   8.116  0.5501 -1.2817 -1.6334
   70CHL1    C3 7587   0.156   2.248   7.007  0.6444  0.0523 -0.1412
   70CHL1    H3 7588   0.106   2.155   7.044  2.7461 -1.5091 -1.0324
   70CHL1    O3 7589   0.188   2.233   6.870 -0.1309 -0.3910  0.0351
   70CHL1   H3' 7590   0.284   2.241   6.876 -0.3422  1.7217  2.0089
   70CHL1    C4 7591   0.057   2.368   7.021 -0.1305 -0.4700  0.0036
   70CHL1   H4A 7592   0.112   2.458   6.987  1.2105 -1.4805 -0.6265
   70CHL1   H4B 7593  -0.022   2.358   6.944  2.8174  0.1449 -3.3843
   70CHL1    C5 7594   0.017   2.397   7.162 -0.7064 -0.5932  0.7060
   70CHL1    C6 7595  -0.109   2.416   7.203  0.1634  0.8450  0.0617
   70CHL1    H6 7596  -0.191   2.400   7.131 -1.6510  0.4132  2.1294
   70CHL1    C7 7597  -0.151   2.449   7.346  0.2767  0.0339 -0.2496
   70CHL1   H7A 7598  -0.229   2.528   7.352 -0.2525 -0.5119  0.1256
   70CHL1   H7B 7599  -0.195   2.354   7.382  0.0739  0.3086  0.2267
   70CHL1    C8 7600  -0.032   2.498   7.430  0.1294 -0.2435  0.4063
   70CHL1    H8 7601  -0.007   2.600   7.393  1.0802 -0.6536 -0.1069
   70CHL1   C14 7602  -0.071   2.497   7.577  1.0006  0.0923 -0.8413
   70CHL1   H14 7603  -0.089   2.390   7.605  0.1648  0.5192  0.3640
   70CHL1   C15 7604  -0.203   2.574   7.615 -0.5546  0.8326 -0.2497
   70CHL1  H15A 7605  -0.203   2.677   7.571 -4.2538  1.2345  0.3830
   70CHL1  H15B 7606  -0.302   2.530   7.593 -0.7778  0.2127  1.8031
   70CHL1   C16 7607  -0.190   2.591   7.769 -0.0677  0.4502  0.6083
   70CHL1  H16A 7608  -0.210   2.700   7.784 -0.1061  0.4751  0.3932
   70CHL1  H16B 7609  -0.268   2.533   7.823 -0.2846 -0.0313 -0.2046
   70CHL1   C17 7610  -0.045   2.544   7.809  0.3552  0.8985 -0.0226
   70CHL1   H17 7611  -0.056   2.439   7.843 -0.9447  0.7861 -0.7392
   70CHL1   C13 7612   0.037   2.541   7.674 -0.5182  0.0373 -0.0840
   70CHL1   C18 7613   0.082   2.691   7.646  0.1940  0.2047  0.1676
   70CHL1  H18A 7614   0.000   2.765   7.657  0.0986  0.5415 -2.3094
   70CHL1  H18B 7615   0.168   2.720   7.710 -0.0908  0.2515  0.5327
   70CHL1  H18C 7616   0.117   2.702   7.541  1.3887  0.4415  0.5800
   70CHL1   C12 7617   0.154   2.441   7.656 -0.3338 -0.3665 -0.5696
   70CHL1  H12A 7618   0.242   2.477   7.712  0.8572 -2.6235 -0.8787
   70CHL1  H12B 7619   0.119   2.341   7.688  1.7097 -0.7752  0.5551
   70CHL1   C11 7620   0.203   2.429   7.519 -0.4424 -0.3130  0.3354
   70CHL1  H11A 7621   0.242   2.529   7.489  1.6351 -1.0111  0.6050
   70CHL1  H11B 7622   0.292   2.365   7.508  0.4224  0.4469  2.3602
   70CHL1    C9 7623   0.094   2.409   7.413 -0.0311 -0.3014  0.0352
   70CHL1    H9 7624   0.060   2.309   7.446 -0.4562 -0.6695 -1.4653
   70CHL1   C10 7625   0.135   2.416   7.261 -0.1032  0.7728 -0.0426
   70CHL1   C19 7626   0.214   2.549   7.226  0.3785  0.5444 -0.9148
   70CHL1  H19A 7627   0.309   2.554   7.284 -0.5467  0.4788  0.6675
   70CHL1  H19B 7628   0.236   2.550   7.118 -1.5537 -1.1557 -1.3924
   70CHL1  H19C 7629   0.153   2.639   7.251 -0.8168 -0.4360 -0.1679
   70CHL1    C1 7630   0.230   2.297   7.237 -0.3025  0.1710 -0.2204
   70CHL1   H1A 7631   0.317   2.308   7.306 -1.4016  1.8006  0.9663
   70CHL1   H1B 7632   0.187   2.202   7.275  2.1117 -1.0493 -0.3376
   70CHL1    C2 7633   0.277   2.268   7.093  0.2391  0.0557 -0.1031
   70CHL1   H2A 7634   0.344   2.179   7.092  1.4043  0.8966 -0.5915
   70CHL1   H2B 7635   0.327   2.354   7.043 -0.8222 -0.6440 -2.5527
   70CHL1   C20 7636   0.013   2.617   7.936 -0.4225 -0.0836 -0.2130
   70CHL1   H20 7637  -0.016   2.724   7.933 -2.5309 -0.6191 -0.8782
   70CHL1   C21 7638   0.168   2.587   7.953  0.2325 -0.2340 -0.0966
   70CHL1  H21A 7639   0.192   2.479   7.960  0.7891 -0.2344 -1.6919
   70CHL1  H21B 7640   0.205   2.642   8.042  0.6849  0.8631 -0.9405
   70CHL1  H21C 7641   0.234   2.627   7.874  1.3399 -2.5113 -0.4161
   70CHL1   C22 7642  -0.062   2.560   8.062 -0.2409  0.5766  0.0879
   70CHL1  H22A 7643  -0.170   2.567   8.035 -0.6337 -2.2202  0.5778
   70CHL1  H22B 7644  -0.034   2.454   8.080  2.3647  1.3014  0.6278
   70CHL1   C23 7645  -0.031   2.645   8.187  0.4560 -0.5422 -0.3685
   70CHL1  H23A 7646   0.075   2.630   8.219  0.2252 -0.3112  0.5219
   70CHL1  H23B 7647  -0.049   2.754   8.181 -0.0339 -0.5207  1.2259
   70CHL1   C24 7648  -0.127   2.596   8.305 -0.4433 -0.3266 -0.0482
   70CHL1  H24A 7649  -0.229   2.638   8.288 -0.4701 -0.7174 -0.8908
   70CHL1  H24B 7650  -0.133   2.485   8.301  0.4796 -0.4894  1.8709
   70CHL1   C25 7651  -0.086   2.640   8.441  0.4412  0.6904 -0.2999
   70CHL1   H25 7652  -0.038   2.740   8.429  0.1680  0.6282 -2.1888
   70CHL1   C26 7653  -0.206   2.653   8.529  0.6012 -0.0309 -0.8168
   70CHL1  H26A 7654  -0.182   2.655   8.638  1.3008 -2.3552 -0.8825
   70CHL1  H26B 7655  -0.269   2.740   8.501  0.3275  0.4778  1.2042
   70CHL1  H26C 7656  -0.262   2.558   8.520  1.2604 -0.4964 -0.1675
   70CHL1   C27 7657   0.019   2.544   8.494 -0.1437 -0.1325  0.4179
   70CHL1  H27A 7658  -0.029   2.445   8.508 -0.6799 -0.3209 -2.2623
   70CHL1  H27B 7659   0.110   2.543   8.431  0.3068 -2.8053  0.9957
   70CHL1  H27C 7660   0.043   2.587   8.593 -1.2170  1.4698  0.0174
   71CHL1    C3 7661   0.522   5.952   6.880 -0.2143  0.0499 -0.5442
   71CHL1    H3 7662   0.466   6.048   6.892 -1.2780 -0.5193 -0.7742
   71CHL1    O3 7663   0.489   5.911   6.747  0.5605 -0.4088 -0.1335
   71CHL1   H3' 7664   0.538   5.828   6.737 -0.2623 -0.9116 -0.0775
   71CHL1    C4 7665   0.674   5.963   6.898  0.0267 -1.1257  0.6337
   71CHL1   H4A 7666   0.728   5.868   6.879 -0.0951 -1.4744  1.9374
   71CHL1   H4B 7667   0.700   6.044   6.826 -3.1119 -0.3724  0.2315
   71CHL1    C5 7668   0.701   6.008   7.040 -0.0961  0.0400 -0.1951
   71CHL1    C6 7669   0.744   6.132   7.068 -0.2056  0.6271  0.4351
   71CHL1    H6 7670   0.775   6.197   6.985  1.9064 -0.1635  0.5299
   71CHL1    C7 7671   0.778   6.178   7.205 -0.0625 -0.2409 -0.4785
   71CHL1   H7A 7672   0.882   6.215   7.196 -0.5112  0.5764 -3.3303
   71CHL1   H7B 7673   0.729   6.273   7.234  2.5235  1.8026 -2.3855
   71CHL1    C8 7674   0.767   6.070   7.320  0.1391 -0.1336  0.5369
   71CHL1    H8 7675   0.861   6.011   7.319  1.4645  1.8652 -0.9537
   71CHL1   C14 7676   0.748   6.141   7.454 -0.3461  0.2811 -0.1105
   71CHL1   H14 7677   0.649   6.192   7.449  0.3929  1.8855  0.6152
   71CHL1   C15 7678   0.853   6.244   7.504  0.2816 -1.0012  0.0039
   71CHL1  H15A 7679   0.948   6.187   7.493  0.2268 -1.1571  0.3073
   71CHL1  H15B 7680   0.859   6.338   7.444  0.4706 -0.8905  0.1923
   71CHL1   C16 7681   0.817   6.263   7.647 -0.4431 -0.0696 -0.1333
   71CHL1  H16A 7682   0.911   6.261   7.705 -0.8671 -0.7406  0.5499
   71CHL1  H16B 7683   0.783   6.366   7.672 -1.0279 -0.5255  1.0224
   71CHL1   C17 7684   0.725   6.150   7.695  0.4632  0.7180  0.5831
   71CHL1   H17 7685   0.625   6.193   7.677  0.8360  1.7528  0.8917
   71CHL1   C13 7686   0.734   6.044   7.579  0.6268 -0.3815 -0.5119
   71CHL1   C18 7687   0.860   5.959   7.594 -0.8364  0.0422 -0.0918
   71CHL1  H18A 7688   0.828   5.867   7.647  0.1022 -0.6047 -0.6017
   71CHL1  H18B 7689   0.899   5.930   7.494 -2.8599  0.3180 -0.9960
   71CHL1  H18C 7690   0.940   6.007   7.655 -0.0582 -3.7239  2.1904
   71CHL1   C12 7691   0.599   5.957   7.556 -0.3690  0.3009  0.5794
   71CHL1  H12A 7692   0.598   5.884   7.640  1.7246  0.8636  1.1707
   71CHL1  H12B 7693   0.504   6.013   7.565 -1.2442 -1.0156 -0.2461
   71CHL1   C11 7694   0.607   5.893   7.413 -0.2247 -0.4746 -0.4553
   71CHL1  H11A 7695   0.690   5.820   7.423  0.7554  0.8075  1.6099
   71CHL1  H11B 7696   0.510   5.842   7.396 -0.2537 -1.0973  1.3732
   71CHL1    C9 7697   0.642   5.981   7.288  0.6121 -0.0415 -0.4321
   71CHL1    H9 7698   0.563   6.058   7.275  1.5616  0.9255 -0.6243
   71CHL1   C10 7699   0.641   5.912   7.147 -0.3053 -0.1631  0.2685
   71CHL1   C19 7700   0.733   5.792   7.159 -0.2915  0.0238 -0.0529
   71CHL1  H19A 7701   0.837   5.824   7.183  0.8158 -3.1151 -0.1998
   71CHL1  H19B 7702   0.704   5.716   7.235  0.8255  1.9748  2.5069
   71CHL1  H19C 7703   0.727   5.737   7.063 -2.3525 -0.6591  0.4172
   71CHL1    C1 7704   0.492   5.870   7.105 -0.6808 -0.2880 -0.3560
   71CHL1   H1A 7705   0.459   5.783   7.166  0.4849  0.0165  0.7581
   71CHL1   H1B 7706   0.436   5.964   7.127 -0.4510 -0.4249  0.9172
   71CHL1    C2 7707   0.470   5.834   6.963  0.0854 -0.3902  0.5540
   71CHL1   H2A 7708   0.370   5.801   6.929  0.4961 -0.9481 -0.1514
   71CHL1   H2B 7709   0.541   5.749   6.949  3.6339  2.3046  0.7649
   71CHL1   C20 7710   0.748   6.108   7.839 -0.2146  0.3674 -0.4762
   71CHL1   H20 7711   0.853   6.079   7.861 -0.8244 -1.4473  0.2227
   71CHL1   C21 7712   0.658   5.982   7.873  0.4807  1.1640 -0.9482
   71CHL1  H21A 7713   0.682   5.952   7.977  0.4273  0.9213 -1.0050
   71CHL1  H21B 7714   0.681   5.890   7.815 -1.2395  1.2386 -1.8269
   71CHL1  H21C 7715   0.552   6.015   7.862 -0.0901 -0.6793 -1.3395
   71CHL1   C22 7716   0.711   6.231   7.930 -0.2279 -0.3675  0.7381
   71CHL1  H22A 7717   0.796   6.303   7.922  0.6074 -1.3643  0.3866
   71CHL1  H22B 7718   0.618   6.272   7.884 -0.8241 -1.3369  1.0659
   71CHL1   C23 7719   0.668   6.216   8.073 -0.3905  0.7063  0.0249
   71CHL1  H23A 7720   0.636   6.307   8.129  0.7274  1.4616 -0.5388
   71CHL1  H23B 7721   0.587   6.140   8.071 -0.1020  0.4097 -0.5648
   71CHL1   C24 7722   0.782   6.145   8.151 -0.4386  0.6502 -0.2920
   71CHL1  H24A 7723   0.840   6.060   8.110 -0.4610 -1.7066  4.0010
   71CHL1  H24B 7724   0.858   6.222   8.176 -0.2207  0.1442  0.6400
   71CHL1   C25 7725   0.735   6.107   8.296  0.7038 -0.3578  0.1842
   71CHL1   H25 7726   0.688   6.194   8.348  0.7292 -0.3662  0.2213
   71CHL1   C26 7727   0.636   5.999   8.274 -0.1367  0.4717 -0.2950
   71CHL1  H26A 7728   0.604   5.966   8.375 -1.4824  1.2176 -0.4614
   71CHL1  H26B 7729   0.543   6.035   8.226 -0.8220 -0.7208  0.0843
   71CHL1  H26C 7730   0.692   5.919   8.221  0.5444  0.1904  0.8119
   71CHL1   C27 7731   0.853   6.069   8.384 -0.1913  0.5348  0.7722
   71CHL1  H27A 7732   0.922   6.155   8.392 -0.6529  0.9610  0.2201
   71CHL1  H27B 7733   0.824   6.041   8.488  0.8688  0.1479  0.9815
   71CHL1  H27C 7734   0.906   5.988   8.329 -0.3815  3.1009 -3.6360
   72CHL1    C3 7735   1.325   3.184   7.052  0.6815 -0.3381  0.4632
   72CHL1    H3 7736   1.392   3.272   7.063  0.1624  0.0520  0.5705
   72CHL1    O3 7737   1.332   3.132   6.920 -0.4588  0.8709 -0.3444
   72CHL1   H3' 7738   1.310   3.212   6.872 -0.2565  1.1600  0.0405
   72CHL1    C4 7739   1.374   3.079   7.157 -0.8079 -0.2699 -0.0130
   72CHL1   H4A 7740   1.327   2.980   7.143  2.7837 -1.9577 -1.2720
   72CHL1   H4B 7741   1.477   3.061   7.121 -0.8070 -0.7251  0.2162
   72CHL1    C5 7742   1.356   3.130   7.300 -0.1485 -0.4047  0.4394
   72CHL1    C6 7743   1.459   3.157   7.379 -0.6687  0.5743 -0.4357
   72CHL1    H6 7744   1.561   3.132   7.349 -1.1752 -0.0219 -1.7709
   72CHL1    C7 7745   1.436   3.201   7.519 -0.7278  0.2381  0.0070
   72CHL1   H7A 7746   1.508   3.137   7.575 -1.5339 -0.5702  0.1342
   72CHL1   H7B 7747   1.477   3.302   7.539  0.2111 -0.3451  1.1915
   72CHL1    C8 7748   1.296   3.189   7.579 -1.0128 -0.5592  0.4247
   72CHL1    H8 7749   1.274   3.082   7.594  1.2233 -0.8418  2.1876
   72CHL1   C14 7750   1.277   3.262   7.712  0.0624  0.1507  0.0276
   72CHL1   H14 7751   1.299   3.369   7.689 -1.0296  0.2276 -0.7226
   72CHL1   C15 7752   1.375   3.233   7.826 -0.4510 -0.1608 -0.2761
   72CHL1  H15A 7753   1.390   3.124   7.841 -1.0175 -0.0704  1.0779
   72CHL1  H15B 7754   1.472   3.287   7.820  0.1024 -0.8563  1.6591
   72CHL1   C16 7755   1.301   3.289   7.948  0.8296  0.3984 -0.5164
   72CHL1  H16A 7756   1.286   3.203   8.017 -1.0908  1.8460  0.9545
   72CHL1  H16B 7757   1.362   3.366   8.000  1.4863  0.4708 -1.3719
   72CHL1   C17 7758   1.163   3.339   7.894  0.6744 -0.4027 -0.0411
   72CHL1   H17 7759   1.181   3.442   7.858 -1.9433  0.4186  0.7621
   72CHL1   C13 7760   1.134   3.260   7.770 -0.3362 -0.4243 -0.0194
   72CHL1   C18 7761   1.102   3.108   7.804 -0.1488 -0.9397 -0.2484
   72CHL1  H18A 7762   1.080   3.056   7.708 -2.7445  0.2956 -0.3989
   72CHL1  H18B 7763   1.187   3.064   7.860  1.3747  0.9889 -0.9227
   72CHL1  H18C 7764   1.003   3.111   7.853  0.0213 -0.3879  0.0685
   72CHL1   C12 7765   1.038   3.321   7.666 -0.4884 -0.5527  0.3965
   72CHL1  H12A 7766   0.936   3.346   7.703 -1.7623 -1.2481 -2.4376
   72CHL1  H12B 7767   1.079   3.424   7.654  1.1112 -1.2807 -0.7723
   72CHL1   C11 7768   1.053   3.265   7.524 -0.7422 -0.0739  0.9513
   72CHL1  H11A 7769   1.009   3.165   7.542 -1.3009  0.1814  1.0132
   72CHL1  H11B 7770   0.995   3.329   7.454 -0.6749 -1.9194 -0.8893
   72CHL1    C9 7771   1.202   3.245   7.471 -0.2128  0.2769 -0.5362
   72CHL1    H9 7772   1.228   3.352   7.456 -0.9573  0.7382  1.1883
   72CHL1   C10 7773   1.215   3.172   7.334 -0.2369 -1.1377 -0.1720
   72CHL1   C19 7774   1.136   3.040   7.343  0.7798  0.4098 -0.0275
   72CHL1  H19A 7775   1.154   2.982   7.250  2.6741  0.3871  0.3057
   72CHL1  H19B 7776   1.141   2.992   7.443 -0.8074  0.0374 -0.1036
   72CHL1  H19C 7777   1.026   3.049   7.338  0.6454  0.1884  1.6848
   72CHL1    C1 7778   1.159   3.266   7.222 -0.5214  0.6601 -0.2315
   72CHL1   H1A 7779   1.051   3.286   7.234 -1.1613 -1.8291 -1.1465
   72CHL1   H1B 7780   1.216   3.360   7.239  0.1787  0.5143 -1.6242
   72CHL1    C2 7781   1.180   3.219   7.075 -0.1415  0.0498  0.5533
   72CHL1   H2A 7782   1.159   3.296   6.999 -4.3703 -0.2005  1.2215
   72CHL1   H2B 7783   1.112   3.135   7.048 -0.7412  1.0375 -1.1059
   72CHL1   C20 7784   1.051   3.361   7.995  0.3901 -0.3199  0.2772
   72CHL1   H20 7785   0.954   3.367   7.940  0.0366 -3.5408  0.3359
   72CHL1   C21 7786   1.060   3.489   8.073 -0.3316 -0.6271 -0.4554
   72CHL1  H21A 7787   1.163   3.491   8.116  0.2944 -0.3913 -1.9306
   72CHL1  H21B 7788   0.989   3.504   8.158  1.0349 -2.1203  1.0170
   72CHL1  H21C 7789   1.040   3.576   8.007 -0.4880  0.0196  0.4181
   72CHL1   C22 7790   1.034   3.248   8.098 -0.3479 -0.4579  0.0445
   72CHL1  H22A 7791   1.030   3.149   8.048 -0.7170  0.6490 -2.2700
   72CHL1  H22B 7792   1.122   3.239   8.164 -0.6164  0.0726  0.4904
   72CHL1   C23 7793   0.896   3.264   8.178  0.8168  0.2535 -0.0124
   72CHL1  H23A 7794   0.905   3.346   8.253  0.5811  0.2647  0.0021
   72CHL1  H23B 7795   0.821   3.288   8.100 -1.9626  1.2137  2.7556
   72CHL1   C24 7796   0.853   3.134   8.248  0.0331  0.0230 -0.5036
   72CHL1  H24A 7797   0.823   3.053   8.178  0.3846 -0.9066  0.3925
   72CHL1  H24B 7798   0.938   3.087   8.303  0.3800 -0.9859 -1.8528
   72CHL1   C25 7799   0.747   3.155   8.358  0.6326  1.1708 -0.5701
   72CHL1   H25 7800   0.789   3.226   8.432  2.1383 -1.3044  1.1364
   72CHL1   C26 7801   0.611   3.199   8.301  0.4283 -0.6601 -0.1685
   72CHL1  H26A 7802   0.546   3.231   8.385  2.1761  1.0619  0.6328
   72CHL1  H26B 7803   0.628   3.290   8.239 -2.3484 -0.6634 -1.0385
   72CHL1  H26C 7804   0.558   3.127   8.236 -0.5068  1.0852 -1.4128
   72CHL1   C27 7805   0.730   3.031   8.448 -0.1527 -0.6696 -0.5408
   72CHL1  H27A 7806   0.635   3.033   8.506  1.3867 -1.2140  2.1823
   72CHL1  H27B 7807   0.720   2.942   8.381  1.5350 -0.0115 -1.7238
   72CHL1  H27C 7808   0.823   3.013   8.507  0.6231  0.6065 -1.3344
   73CHL1    C3 7809   1.441   6.285   7.028  0.0561  0.3359  0.1744
   73CHL1    H3 7810   1.371   6.260   7.111  0.0754  1.1314  0.4372
   73CHL1    O3 7811   1.383   6.313   6.904 -0.1648  0.2701 -0.0935
   73CHL1   H3' 7812   1.451   6.284   6.842  1.0061 -0.0102  1.2491
   73CHL1    C4 7813   1.514   6.412   7.076 -0.0353 -0.2631  0.2660
   73CHL1   H4A 7814   1.591   6.441   7.002 -1.0036  0.7287 -0.3796
   73CHL1   H4B 7815   1.448   6.501   7.074  0.2143 -0.0003  1.9621
   73CHL1    C5 7816   1.575   6.391   7.218 -0.0460  0.3506 -0.8034
   73CHL1    C6 7817   1.536   6.459   7.328 -0.5447 -0.2249 -0.0294
   73CHL1    H6 7818   1.467   6.543   7.312 -0.6749 -0.0106  1.5181
   73CHL1    C7 7819   1.580   6.428   7.466 -0.5357 -0.2223 -0.0795
   73CHL1   H7A 7820   1.592   6.523   7.522 -3.0098  0.9094 -1.2941
   73CHL1   H7B 7821   1.495   6.378   7.517  1.7542 -2.5988  1.6728
   73CHL1    C8 7822   1.704   6.335   7.467  0.2806 -0.9733  0.9879
   73CHL1    H8 7823   1.791   6.400   7.442 -2.7859  2.4715 -1.9274
   73CHL1   C14 7824   1.717   6.278   7.610 -0.2208  0.5985  0.3358
   73CHL1   H14 7825   1.625   6.217   7.622  0.6482 -1.0965 -1.2675
   73CHL1   C15 7826   1.703   6.376   7.723  0.8564 -0.2593 -0.8193
   73CHL1  H15A 7827   1.761   6.470   7.710 -0.1212  0.8506  2.0708
   73CHL1  H15B 7828   1.599   6.404   7.747  1.5719  1.2403  0.7814
   73CHL1   C16 7829   1.752   6.305   7.846 -0.5670  0.0484 -0.4094
   73CHL1  H16A 7830   1.852   6.342   7.877 -0.3431 -0.6827 -0.2252
   73CHL1  H16B 7831   1.677   6.297   7.929 -0.5338  0.7046 -0.3179
   73CHL1   C17 7832   1.795   6.162   7.793  0.1224 -0.3575  0.2337
   73CHL1   H17 7833   1.708   6.093   7.793  0.1043 -0.3693 -1.3279
   73CHL1   C13 7834   1.832   6.183   7.641 -0.2450 -0.0441  0.3174
   73CHL1   C18 7835   1.969   6.240   7.617 -0.4128 -0.1538  0.4685
   73CHL1  H18A 7836   1.969   6.348   7.645 -1.7289  0.3944 -1.4508
   73CHL1  H18B 7837   2.053   6.178   7.654  1.0392  0.9230 -0.8954
   73CHL1  H18C 7838   1.980   6.236   7.507  0.0620  0.6729  0.4715
   73CHL1   C12 7839   1.799   6.063   7.540 -0.2242  0.6298  0.0110
   73CHL1  H12A 7840   1.859   5.971   7.555  0.9072  1.3402 -0.0257
   73CHL1  H12B 7841   1.696   6.033   7.568  0.5011 -1.0595  0.9727
   73CHL1   C11 7842   1.791   6.106   7.393 -0.2458  0.6563  0.2207
   73CHL1  H11A 7843   1.888   6.140   7.351 -0.2773  0.1118 -0.3021
   73CHL1  H11B 7844   1.754   6.012   7.348  0.1761  0.5121  0.1667
   73CHL1    C9 7845   1.690   6.219   7.369 -0.5741 -0.1599 -0.3400
   73CHL1    H9 7846   1.594   6.172   7.400 -0.8059  1.0418  0.9019
   73CHL1   C10 7847   1.662   6.266   7.226  0.3527  0.1687  0.5410
   73CHL1   C19 7848   1.791   6.307   7.155  0.8159 -0.1479 -0.3419
   73CHL1  H19A 7849   1.857   6.376   7.213 -1.2276  1.7327 -0.0872
   73CHL1  H19B 7850   1.847   6.215   7.130  2.4183 -0.1551  2.7505
   73CHL1  H19C 7851   1.762   6.354   7.058 -4.6322  0.0946  1.0331
   73CHL1    C1 7852   1.611   6.143   7.145  0.4652 -0.3029  0.4347
   73CHL1   H1A 7853   1.690   6.067   7.134 -2.1749 -3.4089  1.2333
   73CHL1   H1B 7854   1.531   6.095   7.207  0.1534 -0.9278 -0.4364
   73CHL1    C2 7855   1.542   6.177   7.010  0.2541  0.1148  0.1284
   73CHL1   H2A 7856   1.490   6.094   6.959  0.8807 -0.9925  1.2291
   73CHL1   H2B 7857   1.628   6.209   6.947 -2.1067  1.9363 -2.4200
   73CHL1   C20 7858   1.898   6.086   7.883  0.5103 -0.8893 -0.5212
   73CHL1   H20 7859   1.988   6.150   7.892  0.0530  0.0833 -2.2364
   73CHL1   C21 7860   1.943   5.960   7.822 -0.4316  0.2330  0.5718
   73CHL1  H21A 7861   2.012   5.976   7.736  0.5838  2.0928  1.6788
   73CHL1  H21B 7862   1.856   5.905   7.780 -0.4453 -0.0567  0.9745
   73CHL1  H21C 7863   1.992   5.883   7.885 -1.9732 -1.5384 -0.2995
   73CHL1   C22 7864   1.834   6.055   8.018  0.2083 -0.5647 -0.4966
   73CHL1  H22A 7865   1.784   6.149   8.048  2.6585  0.4647  0.6277
   73CHL1  H22B 7866   1.767   5.967   8.007 -0.5783 -0.2019  1.0574
   73CHL1   C23 7867   1.923   6.021   8.139 -0.4362 -0.0546  0.3491
   73CHL1  H23A 7868   1.871   6.003   8.235 -0.2720  0.6059  0.5677
   73CHL1  H23B 7869   1.977   5.927   8.114 -0.8631 -0.3052  0.3717
   73CHL1   C24 7870   2.036   6.125   8.163 -0.8226 -0.6257 -0.2286
   73CHL1  H24A 7871   2.098   6.127   8.072  1.0000  1.3686  0.9506
   73CHL1  H24B 7872   1.987   6.224   8.176  1.1234  0.3073  0.4074
   73CHL1   C25 7873   2.136   6.096   8.281  0.3327  0.2322  0.0004
   73CHL1   H25 7874   2.196   6.189   8.288 -0.1923  0.5094  0.9921
   73CHL1   C26 7875   2.058   6.078   8.415  0.1139 -0.1574 -0.4010
   73CHL1  H26A 7876   2.126   6.087   8.503 -0.4472 -0.5901  0.0896
   73CHL1  H26B 7877   1.975   6.152   8.414 -2.3875 -2.8007 -2.4670
   73CHL1  H26C 7878   2.013   5.977   8.420  0.8789 -0.4418  2.0358
   73CHL1   C27 7879   2.217   5.969   8.256  1.5152  0.4826  0.1630
   73CHL1  H27A 7880   2.148   5.882   8.262  2.5434 -0.4146 -0.5783
   73CHL1  H27B 7881   2.265   5.968   8.156  0.4869  0.5157 -0.3469
   73CHL1  H27C 7882   2.290   5.958   8.339  0.2582  0.4091  1.2938
   74CHL1    C3 7883   6.006   4.428   7.068 -0.2016  0.3859  0.0863
   74CHL1    H3 7884   5.971   4.533   7.064  0.3762  0.6477  1.4601
   74CHL1    O3 7885   6.037   4.397   6.932  0.1002 -0.1090  0.3867
   74CHL1   H3' 7886   6.128   4.410   6.904 -1.2994  1.2701 -4.5326
   74CHL1    C4 7887   6.130   4.411   7.155 -0.2369 -0.1499 -0.1817
   74CHL1   H4A 7888   6.149   4.301   7.150  2.6742  0.3256 -3.3606
   74CHL1   H4B 7889   6.211   4.456   7.093 -0.0146 -1.6290 -1.0215
   74CHL1    C5 7890   6.092   4.465   7.289  0.0977 -0.2413  0.6676
   74CHL1    C6 7891   6.152   4.574   7.345  0.0795 -0.1021  0.1191
   74CHL1    H6 7892   6.237   4.627   7.299  0.4564  0.4803  1.4226
   74CHL1    C7 7893   6.136   4.628   7.485 -0.5312 -0.6827  0.1180
   74CHL1   H7A 7894   6.237   4.624   7.531 -0.1829  1.7136 -0.2897
   74CHL1   H7B 7895   6.122   4.738   7.495  2.9430 -0.1278 -0.0719
   74CHL1    C8 7896   6.041   4.540   7.565  0.1392  0.0157  0.8920
   74CHL1    H8 7897   6.098   4.449   7.591  1.5806  0.1985 -1.3165
   74CHL1   C14 7898   5.998   4.611   7.691  0.3529 -0.3520  0.2158
   74CHL1   H14 7899   5.940   4.697   7.652  0.0809  0.0126  1.4016
   74CHL1   C15 7900   6.102   4.673   7.778 -0.2150  0.3748 -0.7031
   74CHL1  H15A 7901   6.175   4.597   7.815  0.2664  1.7269  1.2995
   74CHL1  H15B 7902   6.156   4.762   7.738  0.7106 -0.4707 -1.3714
   74CHL1   C16 7903   6.020   4.720   7.896  0.2889 -0.8248 -0.3120
   74CHL1  H16A 7904   6.074   4.702   7.991 -2.3407 -1.0917  1.2432
   74CHL1  H16B 7905   6.007   4.829   7.880  2.2840 -0.6532 -1.0327
   74CHL1   C17 7906   5.881   4.651   7.900  0.1507  0.6469  1.2690
   74CHL1   H17 7907   5.793   4.709   7.864  0.2888 -0.2048 -0.5656
   74CHL1   C13 7908   5.903   4.543   7.786  0.3425 -0.4419  0.2119
   74CHL1   C18 7909   5.963   4.403   7.836  0.3206  0.9778  0.1718
   74CHL1  H18A 7910   6.064   4.417   7.879  0.3156  2.1721 -0.1464
   74CHL1  H18B 7911   5.911   4.350   7.918  0.5366 -2.3876 -1.6980
   74CHL1  H18C 7912   5.978   4.329   7.755  0.3587 -0.3168  1.3285
   74CHL1   C12 7913   5.779   4.505   7.696 -0.3653  0.8066 -0.9547
   74CHL1  H12A 7914   5.699   4.446   7.746  1.1582 -0.8690 -0.3743
   74CHL1  H12B 7915   5.733   4.603   7.673 -0.9881  1.0028  0.9647
   74CHL1   C11 7916   5.807   4.426   7.565 -0.0183 -0.5929 -0.2688
   74CHL1  H11A 7917   5.845   4.326   7.594  1.9076  0.4779  1.0743
   74CHL1  H11B 7918   5.715   4.419   7.503 -0.5491 -2.5011  0.6778
   74CHL1    C9 7919   5.921   4.488   7.478 -0.5909  0.2054  0.0062
   74CHL1    H9 7920   5.868   4.567   7.421  0.6177 -0.5767 -2.3605
   74CHL1   C10 7921   5.966   4.398   7.358  0.3699 -0.5601  0.3407
   74CHL1   C19 7922   6.021   4.267   7.410  0.0914 -0.0879  0.0980
   74CHL1  H19A 7923   5.940   4.215   7.465  0.4571  0.5929  1.3293
   74CHL1  H19B 7924   6.057   4.209   7.323  0.0918  1.0764 -0.7106
   74CHL1  H19C 7925   6.109   4.270   7.478  0.6368 -1.0663 -0.5523
   74CHL1    C1 7926   5.844   4.377   7.258 -0.1641  0.0829 -0.0792
   74CHL1   H1A 7927   5.772   4.304   7.300  0.2167 -1.4240 -1.9105
   74CHL1   H1B 7928   5.794   4.476   7.256 -0.0418  0.1814 -2.9102
   74CHL1    C2 7929   5.890   4.331   7.113  0.2031  0.0189 -0.1945
   74CHL1   H2A 7930   5.807   4.321   7.039  0.1684 -0.8800 -0.0437
   74CHL1   H2B 7931   5.933   4.229   7.121  0.5471  0.1646 -0.2035
   74CHL1   C20 7932   5.841   4.608   8.039 -0.0452  0.3869 -0.4377
   74CHL1   H20 7933   5.933   4.571   8.088 -0.4215 -2.3380 -1.6171
   74CHL1   C21 7934   5.717   4.513   8.041 -0.0272  0.1844  0.3773
   74CHL1  H21A 7935   5.624   4.569   8.018 -1.9416 -1.4398  3.4289
   74CHL1  H21B 7936   5.693   4.467   8.140  1.4607  3.5332  2.4619
   74CHL1  H21C 7937   5.733   4.431   7.968 -0.0063 -0.3838  1.0035
   74CHL1   C22 7938   5.784   4.734   8.120 -0.1492 -0.0450 -0.2786
   74CHL1  H22A 7939   5.856   4.818   8.124 -0.4295  0.2179 -0.6600
   74CHL1  H22B 7940   5.688   4.765   8.073 -0.8867 -0.9969  0.5629
   74CHL1   C23 7941   5.752   4.693   8.266 -0.3415  0.0037  0.1110
   74CHL1  H23A 7942   5.657   4.635   8.262  1.2531 -2.7525 -1.5810
   74CHL1  H23B 7943   5.828   4.632   8.319 -0.1219 -0.6186 -0.8778
   74CHL1   C24 7944   5.734   4.815   8.352  0.5227  0.2015  0.5238
   74CHL1  H24A 7945   5.833   4.864   8.354  0.3683  0.4903  1.4367
   74CHL1  H24B 7946   5.673   4.901   8.315  2.3226  1.0699 -0.5635
   74CHL1   C25 7947   5.703   4.783   8.498  0.3889 -0.5396 -0.1184
   74CHL1   H25 7948   5.787   4.721   8.535  1.4881 -0.4488 -2.2622
   74CHL1   C26 7949   5.689   4.918   8.584 -0.2338 -0.0413  0.5431
   74CHL1  H26A 7950   5.794   4.954   8.591 -0.4076  0.1811  2.5450
   74CHL1  H26B 7951   5.615   4.991   8.546  0.1193 -0.7370 -1.6702
   74CHL1  H26C 7952   5.662   4.896   8.689  1.1195  3.1339  1.6627
   74CHL1   C27 7953   5.588   4.692   8.523 -1.1497  0.5190  0.8565
   74CHL1  H27A 7954   5.596   4.644   8.623 -2.4472 -1.6393 -0.0038
   74CHL1  H27B 7955   5.495   4.752   8.516 -0.8358  1.0169  0.9412
   74CHL1  H27C 7956   5.592   4.608   8.449  1.3697  1.0372  0.3259
   75CHL1    C3 7957   2.799   5.365   6.827 -0.8940  0.2982 -0.7483
   75CHL1    H3 7958   2.783   5.473   6.850  0.2411  0.3706 -0.2016
   75CHL1    O3 7959   2.789   5.339   6.692 -0.0799 -0.5562 -0.1236
   75CHL1   H3' 7960   2.784   5.243   6.690  1.2931 -0.6422 -1.5397
   75CHL1    C4 7961   2.944   5.326   6.872  0.4034 -0.7719 -0.0628
   75CHL1   H4A 7962   2.956   5.223   6.831 -0.7020 -1.2382  0.7251
   75CHL1   H4B 7963   3.013   5.383   6.807 -0.6441 -1.7018 -2.1011
   75CHL1    C5 7964   2.967   5.319   7.022 -0.2880 -0.0255 -0.1589
   75CHL1    C6 7965   3.069   5.388   7.070  0.1098 -0.2935 -0.4242
   75CHL1    H6 7966   3.136   5.442   7.002  0.0231 -0.6477 -0.7949
   75CHL1    C7 7967   3.108   5.391   7.218 -0.4834  0.8638 -0.1734
   75CHL1   H7A 7968   3.207   5.342   7.229 -0.9926 -0.0802  0.3395
   75CHL1   H7B 7969   3.108   5.493   7.262  0.1990  1.1595 -0.8474
   75CHL1    C8 7970   3.009   5.309   7.306 -0.0743  0.2089  0.4994
   75CHL1    H8 7971   3.040   5.202   7.307  1.6708  0.6741  1.5210
   75CHL1   C14 7972   3.011   5.349   7.447 -0.5211 -0.3350 -0.3604
   75CHL1   H14 7973   2.973   5.453   7.448 -0.8264 -0.4231  1.5965
   75CHL1   C15 7974   3.144   5.367   7.528 -0.0546 -0.0005 -0.0362
   75CHL1  H15A 7975   3.218   5.288   7.506  0.6731  0.4733  0.6260
   75CHL1  H15B 7976   3.188   5.463   7.493 -1.2200  1.0000  1.1261
   75CHL1   C16 7977   3.114   5.368   7.675 -0.1737  0.1350 -0.4201
   75CHL1  H16A 7978   3.166   5.286   7.729 -0.5380 -0.3053 -0.7298
   75CHL1  H16B 7979   3.126   5.466   7.725 -2.1741  0.7238 -1.0186
   75CHL1   C17 7980   2.962   5.334   7.689  0.4009 -0.0132  0.7515
   75CHL1   H17 7981   2.904   5.428   7.699  3.5226  2.0852  0.5674
   75CHL1   C13 7982   2.925   5.272   7.550 -0.6221  0.0521 -0.0575
   75CHL1   C18 7983   2.953   5.122   7.544 -0.8103 -0.0859 -0.2845
   75CHL1  H18A 7984   2.970   5.081   7.442  0.2686 -2.2271  0.6965
   75CHL1  H18B 7985   3.035   5.092   7.612 -2.2506 -1.2228  1.0209
   75CHL1  H18C 7986   2.865   5.073   7.590 -0.8860 -0.8951 -1.2620
   75CHL1   C12 7987   2.788   5.301   7.511  0.6322 -0.1321  0.3550
   75CHL1  H12A 7988   2.707   5.268   7.580  0.3834  0.2027  0.2264
   75CHL1  H12B 7989   2.757   5.408   7.504 -1.3581 -0.7841 -2.4121
   75CHL1   C11 7990   2.765   5.256   7.361 -0.1053  0.3161  0.3078
   75CHL1  H11A 7991   2.778   5.145   7.361 -1.6071  0.0911  1.9978
   75CHL1  H11B 7992   2.658   5.273   7.338  0.0536  0.2022 -0.5282
   75CHL1    C9 7993   2.862   5.311   7.253  1.0839  0.4021  0.0001
   75CHL1    H9 7994   2.835   5.418   7.241 -1.0788 -0.3801 -3.8124
   75CHL1   C10 7995   2.858   5.252   7.115  0.3532 -0.2012  0.6561
   75CHL1   C19 7996   2.874   5.097   7.116 -0.9472  0.6760 -0.1006
   75CHL1  H19A 7997   2.971   5.071   7.164  0.0712 -1.0648 -2.8558
   75CHL1  H19B 7998   2.788   5.057   7.173 -0.4160  1.6168  1.4334
   75CHL1  H19C 7999   2.877   5.057   7.013  3.6402 -0.0187  0.0829
   75CHL1    C1 8000   2.715   5.275   7.055  0.4546 -0.8425  0.5430
   75CHL1   H1A 8001   2.641   5.202   7.095 -1.6009  0.8656  0.0388
   75CHL1   H1B 8002   2.694   5.380   7.085  1.9398 -0.0927 -0.8513
   75CHL1    C2 8003   2.699   5.269   6.901 -0.2839 -0.0913  0.6820
   75CHL1   H2A 8004   2.600   5.301   6.863  1.6610  1.8039 -3.4662
   75CHL1   H2B 8005   2.714   5.162   6.874  0.4257  0.1031  0.2870
   75CHL1   C20 8006   2.914   5.264   7.821  0.1751 -0.1107  0.2611
   75CHL1   H20 8007   2.961   5.164   7.812 -0.8801 -0.7181  1.2383
   75CHL1   C21 8008   2.762   5.224   7.822  0.2774  0.4587  0.6286
   75CHL1  H21A 8009   2.698   5.312   7.798  1.6555  0.8885 -1.7707
   75CHL1  H21B 8010   2.731   5.185   7.921 -0.9055  2.3812  1.0533
   75CHL1  H21C 8011   2.738   5.145   7.747  0.9519  2.3312 -1.6969
   75CHL1   C22 8012   2.969   5.312   7.954 -0.1835 -0.7064  0.4217
   75CHL1  H22A 8013   2.971   5.235   8.033  0.4159  0.3813  1.5037
   75CHL1  H22B 8014   3.071   5.352   7.940 -0.6899  0.5185  0.0655
   75CHL1   C23 8015   2.885   5.430   8.019 -0.1135 -0.0284  0.3653
   75CHL1  H23A 8016   2.886   5.506   7.938  1.3396 -1.6402 -1.2257
   75CHL1  H23B 8017   2.781   5.394   8.034 -0.7018  1.6713  0.5760
   75CHL1   C24 8018   2.941   5.481   8.151  0.1954 -0.1654 -0.4130
   75CHL1  H24A 8019   2.968   5.406   8.228 -0.9022 -0.6810 -0.5126
   75CHL1  H24B 8020   3.032   5.530   8.109  0.4845 -0.8514 -0.6127
   75CHL1   C25 8021   2.850   5.569   8.235  0.3457  0.1444  0.1249
   75CHL1   H25 8022   2.815   5.658   8.180  0.1046 -1.3099 -2.2183
   75CHL1   C26 8023   2.730   5.496   8.294 -0.1457  0.3779 -0.5448
   75CHL1  H26A 8024   2.758   5.418   8.367 -0.3469 -0.8009 -1.6757
   75CHL1  H26B 8025   2.672   5.564   8.359  0.7332 -0.9602  1.7369
   75CHL1  H26C 8026   2.669   5.460   8.208 -0.4120  1.0757 -0.6572
   75CHL1   C27 8027   2.920   5.639   8.351 -0.4368 -0.6748 -0.3167
   75CHL1  H27A 8028   3.014   5.691   8.324  0.8076 -0.0314  4.3056
   75CHL1  H27B 8029   2.851   5.715   8.394  1.4901  0.4117  1.0503
   75CHL1  H27C 8030   2.937   5.575   8.441  0.1843 -0.5239 -0.3233
   76CHL1    C3 8031   5.819   6.509   7.280  0.2097  0.1068 -0.8267
   76CHL1    H3 8032   5.915   6.473   7.325  0.8265 -0.0418 -2.2182
   76CHL1    O3 8033   5.806   6.481   7.140  0.2193 -0.2028 -0.2394
   76CHL1   H3' 8034   5.730   6.531   7.108  0.8524  0.1891 -1.1836
   76CHL1    C4 8035   5.707   6.457   7.358  0.4561  0.7409  0.1351
   76CHL1   H4A 8036   5.611   6.494   7.316 -0.6259  1.3790  2.9513
   76CHL1   H4B 8037   5.698   6.347   7.343 -1.0247  0.7920  0.5098
   76CHL1    C5 8038   5.711   6.501   7.504 -0.7582  0.1048 -0.4023
   76CHL1    C6 8039   5.710   6.411   7.604  0.4996 -0.1599  0.2346
   76CHL1    H6 8040   5.690   6.306   7.579 -0.1421  0.0419 -0.1404
   76CHL1    C7 8041   5.699   6.451   7.745 -0.3587  0.3092 -1.0064
   76CHL1   H7A 8042   5.620   6.390   7.793 -0.9352  0.8616 -1.2341
   76CHL1   H7B 8043   5.796   6.422   7.791 -1.4772 -2.6842 -0.2986
   76CHL1    C8 8044   5.660   6.601   7.770 -0.0541 -0.0251 -0.2543
   76CHL1    H8 8045   5.551   6.610   7.748  0.0017  1.8379  0.0639
   76CHL1   C14 8046   5.693   6.645   7.913  0.2728 -0.2380  0.1881
   76CHL1   H14 8047   5.803   6.641   7.927  0.2627  0.1818  0.3893
   76CHL1   C15 8048   5.643   6.558   8.026 -0.3432  0.1723 -0.5326
   76CHL1  H15A 8049   5.536   6.544   7.997 -0.5348  1.9623 -0.7646
   76CHL1  H15B 8050   5.705   6.466   8.027 -1.1457 -0.3999 -1.3098
   76CHL1   C16 8051   5.658   6.645   8.152  0.3960 -0.1076  0.0511
   76CHL1  H16A 8052   5.561   6.640   8.206  0.3053 -1.7019 -0.1909
   76CHL1  H16B 8053   5.739   6.614   8.221 -1.2336  0.5080  2.3646
   76CHL1   C17 8054   5.687   6.789   8.097  0.1757 -0.2826 -0.4536
   76CHL1   H17 8055   5.796   6.812   8.100 -0.2682  2.0999  2.0529
   76CHL1   C13 8056   5.649   6.788   7.945 -0.1976 -0.4224  0.6726
   76CHL1   C18 8057   5.496   6.802   7.928 -0.1352 -0.0566 -0.3572
   76CHL1  H18A 8058   5.444   6.733   7.998 -0.9474 -0.2813 -1.1744
   76CHL1  H18B 8059   5.459   6.904   7.953 -1.3280 -0.1741 -1.5530
   76CHL1  H18C 8060   5.472   6.791   7.821  2.5710  2.0279 -1.3077
   76CHL1   C12 8061   5.726   6.888   7.854  0.4477 -0.1106  0.0826
   76CHL1  H12A 8062   5.700   6.995   7.869 -1.1872 -0.0522 -2.5432
   76CHL1  H12B 8063   5.831   6.874   7.889 -0.2152 -3.3206  1.1182
   76CHL1   C11 8064   5.716   6.852   7.707  0.0799  0.0286 -0.3670
   76CHL1  H11A 8065   5.623   6.897   7.668  0.5331 -0.4939 -2.1107
   76CHL1  H11B 8066   5.803   6.896   7.655  0.4654 -0.5025 -0.1834
   76CHL1    C9 8067   5.733   6.695   7.674  0.2850 -0.1573  0.0300
   76CHL1    H9 8068   5.838   6.666   7.694  0.4121 -0.0217 -0.4394
   76CHL1   C10 8069   5.715   6.660   7.521  0.2018  0.8338  0.3600
   76CHL1   C19 8070   5.587   6.734   7.470 -0.2196 -0.5335 -0.8903
   76CHL1  H19A 8071   5.492   6.735   7.529  0.0943 -2.4112 -0.2911
   76CHL1  H19B 8072   5.618   6.840   7.453 -0.1781 -0.6872 -1.7967
   76CHL1  H19C 8073   5.561   6.704   7.366 -0.8085 -0.8165 -0.6648
   76CHL1    C1 8074   5.840   6.697   7.439 -0.0889 -0.1225  0.1021
   76CHL1   H1A 8075   5.851   6.807   7.442 -1.6888  0.0571  2.0952
   76CHL1   H1B 8076   5.927   6.648   7.488 -0.1180  1.5025  1.8925
   76CHL1    C2 8077   5.832   6.657   7.294 -0.1918  0.8471  0.1914
   76CHL1   H2A 8078   5.926   6.691   7.246 -0.4903  0.4891 -0.6685
   76CHL1   H2B 8079   5.761   6.719   7.235 -0.5002  0.6057  0.3013
   76CHL1   C20 8080   5.621   6.901   8.188 -0.2717  0.2915 -0.2801
   76CHL1   H20 8081   5.512   6.901   8.170 -0.3053  1.0491 -0.1069
   76CHL1   C21 8082   5.671   7.043   8.159  0.2608 -0.7890  0.5334
   76CHL1  H21A 8083   5.614   7.113   8.224 -1.4906 -0.2859 -1.4583
   76CHL1  H21B 8084   5.632   7.081   8.063 -0.4052 -0.2484  1.0154
   76CHL1  H21C 8085   5.782   7.053   8.158  0.3769 -1.9131  0.7121
   76CHL1   C22 8086   5.620   6.875   8.343  0.1379  0.3737  0.1046
   76CHL1  H22A 8087   5.573   6.775   8.360 -3.5012  1.9910  0.4835
   76CHL1  H22B 8088   5.722   6.871   8.388  0.3557  1.9561 -0.2176
   76CHL1   C23 8089   5.546   6.980   8.433 -0.2715 -0.2500 -0.1589
   76CHL1  H23A 8090   5.594   7.080   8.431  0.2918 -0.5190 -0.9919
   76CHL1  H23B 8091   5.441   6.985   8.399  0.1129 -1.2237 -1.6037
   76CHL1   C24 8092   5.530   6.918   8.577 -0.1319 -0.0026  0.3838
   76CHL1  H24A 8093   5.482   6.819   8.560  0.0425 -0.4570  2.2705
   76CHL1  H24B 8094   5.625   6.893   8.628 -1.3276 -0.2403  2.6386
   76CHL1   C25 8095   5.463   7.005   8.687  0.3462  0.3553  0.0590
   76CHL1   H25 8096   5.527   7.094   8.700  0.7406  0.0529  0.2365
   76CHL1   C26 8097   5.311   7.031   8.659  0.2723 -0.0357  0.5756
   76CHL1  H26A 8098   5.270   6.937   8.615  0.2098  0.0501  0.4503
   76CHL1  H26B 8099   5.250   7.053   8.749  0.4965 -1.3476  1.0753
   76CHL1  H26C 8100   5.292   7.106   8.580 -0.8249 -0.7950  0.0901
   76CHL1   C27 8101   5.467   6.921   8.815  0.0519 -0.4400 -0.3436
   76CHL1  H27A 8102   5.362   6.896   8.842 -0.3759  0.8411 -0.7618
   76CHL1  H27B 8103   5.532   6.831   8.804  1.1684  0.6665 -3.8370
   76CHL1  H27C 8104   5.509   6.983   8.898  0.1608 -1.5590  0.4641
   77CHL1    C3 8105   0.503   6.689   6.801 -0.0122 -0.5411 -0.4729
   77CHL1    H3 8106   0.604   6.736   6.809 -1.0194  1.4436  1.9777
   77CHL1    O3 8107   0.472   6.670   6.667 -0.5170 -0.2786  0.0485
   77CHL1   H3' 8108   0.379   6.647   6.660  0.0799 -2.5344 -1.5829
   77CHL1    C4 8109   0.486   6.566   6.891  0.5989 -0.8445 -0.2771
   77CHL1   H4A 8110   0.383   6.528   6.874 -0.4310  2.2194 -1.6719
   77CHL1   H4B 8111   0.556   6.484   6.865  2.4720  0.9766 -1.2868
   77CHL1    C5 8112   0.506   6.607   7.038 -0.7872  0.5481 -0.3481
   77CHL1    C6 8113   0.604   6.535   7.102  0.3896 -0.7631 -0.4957
   77CHL1    H6 8114   0.661   6.450   7.062  1.3713  0.6611 -2.2435
   77CHL1    C7 8115   0.624   6.555   7.248 -0.9990 -0.2248  1.2015
   77CHL1   H7A 8116   0.617   6.453   7.291 -2.6287 -1.9417 -2.5956
   77CHL1   H7B 8117   0.734   6.569   7.261 -0.4909 -1.3627 -1.2721
   77CHL1    C8 8118   0.532   6.654   7.314 -0.3461 -0.6312  0.0473
   77CHL1    H8 8119   0.439   6.604   7.350 -0.0146 -1.4295 -0.1963
   77CHL1   C14 8120   0.599   6.710   7.433  0.4258 -1.0807 -1.0230
   77CHL1   H14 8121   0.690   6.758   7.389  0.2332 -1.3830 -1.7589
   77CHL1   C15 8122   0.648   6.618   7.550 -0.7217  0.4787 -0.0081
   77CHL1  H15A 8123   0.559   6.556   7.577  0.0331 -0.2122  0.9502
   77CHL1  H15B 8124   0.732   6.554   7.517 -1.3798 -0.1163 -0.5828
   77CHL1   C16 8125   0.685   6.701   7.672 -0.2337  0.0398 -0.4833
   77CHL1  H16A 8126   0.645   6.657   7.766  2.1786 -0.6110  0.2982
   77CHL1  H16B 8127   0.795   6.712   7.682 -0.1807  0.0585 -1.0468
   77CHL1   C17 8128   0.628   6.839   7.634 -0.2584 -0.0503  0.2279
   77CHL1   H17 8129   0.705   6.889   7.572  0.2105  1.0236  1.6387
   77CHL1   C13 8130   0.522   6.825   7.521  0.2041 -0.3517 -0.2591
   77CHL1   C18 8131   0.396   6.766   7.586 -0.6203  0.1733  0.0939
   77CHL1  H18A 8132   0.337   6.840   7.643 -1.4105 -0.6108  0.3238
   77CHL1  H18B 8133   0.337   6.707   7.512  0.4458 -0.4822 -0.2617
   77CHL1  H18C 8134   0.407   6.678   7.653  0.1602 -0.3167 -0.6463
   77CHL1   C12 8135   0.493   6.943   7.423 -0.0449  0.1025 -0.0377
   77CHL1  H12A 8136   0.418   7.007   7.474  1.4054  0.6817  1.4695
   77CHL1  H12B 8137   0.586   6.998   7.396  1.7818 -2.6603  0.1825
   77CHL1   C11 8138   0.415   6.885   7.296 -0.5522  0.2548  0.6487
   77CHL1  H11A 8139   0.317   6.849   7.333  0.5467 -1.7640  1.7433
   77CHL1  H11B 8140   0.399   6.971   7.227  1.0203 -0.9290 -1.3094
   77CHL1    C9 8141   0.498   6.778   7.227  0.2330  0.3799  0.0843
   77CHL1    H9 8142   0.592   6.830   7.198 -0.1087  1.6778  1.1931
   77CHL1   C10 8143   0.436   6.733   7.089  0.6429  0.3436  0.0472
   77CHL1   C19 8144   0.292   6.686   7.105  0.0115 -0.2401  0.0156
   77CHL1  H19A 8145   0.260   6.644   7.007  2.3508 -0.7738 -0.5883
   77CHL1  H19B 8146   0.275   6.602   7.176 -0.3221  1.5638  2.1889
   77CHL1  H19C 8147   0.216   6.762   7.134 -1.6967 -1.7440 -0.3028
   77CHL1    C1 8148   0.445   6.849   6.993 -0.2883  0.7984 -0.4318
   77CHL1   H1A 8149   0.380   6.937   7.016 -0.7535  0.8673 -1.9092
   77CHL1   H1B 8150   0.549   6.887   6.996  0.5935 -1.5054  0.4727
   77CHL1    C2 8151   0.414   6.811   6.848  0.2513  0.4885  0.0051
   77CHL1   H2A 8152   0.407   6.896   6.777 -0.9217  0.5912  0.2296
   77CHL1   H2B 8153   0.312   6.767   6.843  1.0717 -1.5673  0.2336
   77CHL1   C20 8154   0.597   6.944   7.740 -0.7257  0.4864 -0.5869
   77CHL1   H20 8155   0.503   7.000   7.717 -0.2425  0.9682 -1.4616
   77CHL1   C21 8156   0.711   7.053   7.732 -0.2103  0.0657 -0.2497
   77CHL1  H21A 8157   0.703   7.141   7.798  0.1059  0.6150 -0.9335
   77CHL1  H21B 8158   0.709   7.094   7.629 -0.3771  1.3288  0.2360
   77CHL1  H21C 8159   0.808   7.007   7.760 -0.3281  0.8585  1.5945
   77CHL1   C22 8160   0.594   6.880   7.878 -0.1494 -0.3542 -0.6072
   77CHL1  H22A 8161   0.524   6.795   7.867 -1.4900  0.7565 -1.0570
   77CHL1  H22B 8162   0.695   6.849   7.912 -0.8439 -0.5856  1.3680
   77CHL1   C23 8163   0.539   6.975   7.994  0.1100  0.0996  0.5477
   77CHL1  H23A 8164   0.607   7.062   7.978  0.3872 -0.4520 -1.5945
   77CHL1  H23B 8165   0.434   6.996   7.963  0.7647 -1.3854 -3.2095
   77CHL1   C24 8166   0.548   6.917   8.134 -0.8985 -0.6447 -0.8676
   77CHL1  H24A 8167   0.653   6.883   8.145 -0.2732  1.2784 -0.5952
   77CHL1  H24B 8168   0.528   6.990   8.215  0.4022 -1.0249 -0.1781
   77CHL1   C25 8169   0.453   6.800   8.163  0.0491  0.9798 -0.1013
   77CHL1   H25 8170   0.472   6.728   8.079 -0.6640 -1.2501  1.5438
   77CHL1   C26 8171   0.507   6.742   8.299 -0.4710 -0.0181 -0.4498
   77CHL1  H26A 8172   0.616   6.720   8.302 -0.6745 -1.1193 -0.6631
   77CHL1  H26B 8173   0.499   6.828   8.369  5.1622  3.4169 -3.2502
   77CHL1  H26C 8174   0.460   6.651   8.343  0.4310  0.0081  0.6053
   77CHL1   C27 8175   0.305   6.835   8.167  0.0635 -0.1197 -0.5075
   77CHL1  H27A 8176   0.270   6.879   8.072 -1.0166 -0.7246 -0.3999
   77CHL1  H27B 8177   0.250   6.745   8.201  0.1176 -0.1073 -0.3855
   77CHL1  H27C 8178   0.285   6.908   8.249  2.5497  0.7758 -0.6013
   78CHL1    C3 8179   1.691   1.618   6.737  0.6097  0.4684 -0.0827
   78CHL1    H3 8180   1.768   1.697   6.726 -0.2622  1.3559  0.0366
   78CHL1    O3 8181   1.654   1.554   6.608 -0.1885 -0.4099  0.0604
   78CHL1   H3' 8182   1.581   1.495   6.630  0.2682 -1.7707 -1.8111
   78CHL1    C4 8183   1.739   1.511   6.838 -0.5931  0.1673 -0.4671
   78CHL1   H4A 8184   1.664   1.430   6.842 -0.3809 -0.0643 -1.0979
   78CHL1   H4B 8185   1.831   1.460   6.803 -0.7716  0.3258 -1.1769
   78CHL1    C5 8186   1.762   1.560   6.978  0.0289  0.6492 -0.2640
   78CHL1    C6 8187   1.882   1.547   7.036 -0.5723 -0.2282 -0.3082
   78CHL1    H6 8188   1.961   1.494   6.981  0.0956 -0.6251  0.9813
   78CHL1    C7 8189   1.912   1.590   7.179 -0.0364  0.7278 -0.3228
   78CHL1   H7A 8190   1.966   1.511   7.235 -1.3214  0.8330  1.1526
   78CHL1   H7B 8191   1.983   1.675   7.187  0.2439  0.4206  0.5217
   78CHL1    C8 8192   1.785   1.623   7.263 -0.2162 -0.4300 -0.2027
   78CHL1    H8 8193   1.737   1.529   7.297  0.8913 -0.5966  0.9565
   78CHL1   C14 8194   1.825   1.701   7.382  0.7806 -0.4277 -0.4978
   78CHL1   H14 8195   1.877   1.794   7.349 -1.2526  0.6194 -0.9414
   78CHL1   C15 8196   1.928   1.647   7.485  0.3979  0.0196  0.9296
   78CHL1  H15A 8197   1.897   1.542   7.505 -2.9617  0.8687  0.8645
   78CHL1  H15B 8198   2.030   1.657   7.443 -0.6034  1.2660 -1.3420
   78CHL1   C16 8199   1.895   1.726   7.615  0.7878 -0.4452  0.4779
   78CHL1  H16A 8200   1.884   1.660   7.703 -1.6871 -0.3098  0.3368
   78CHL1  H16B 8201   1.980   1.787   7.653 -0.5796  1.1048  1.1605
   78CHL1   C17 8202   1.778   1.817   7.581 -0.2093 -0.5328 -1.0237
   78CHL1   H17 8203   1.825   1.906   7.534  0.1127 -0.8388 -1.2885
   78CHL1   C13 8204   1.704   1.745   7.468 -0.2425 -0.7094  0.4167
   78CHL1   C18 8205   1.622   1.625   7.524 -0.4765 -0.0317 -0.2623
   78CHL1  H18A 8206   1.580   1.560   7.444  1.1671  0.1445 -1.3288
   78CHL1  H18B 8207   1.685   1.565   7.593 -1.2258  0.1370  0.5871
   78CHL1  H18C 8208   1.536   1.658   7.587 -0.1158 -1.4068  1.0031
   78CHL1   C12 8209   1.616   1.841   7.390  0.9568 -0.5390  0.2782
   78CHL1  H12A 8210   1.530   1.875   7.451  0.8249 -0.8140  0.2471
   78CHL1  H12B 8211   1.670   1.934   7.361 -0.0213 -0.3358 -0.9715
   78CHL1   C11 8212   1.570   1.783   7.259  0.3388  0.2041  0.4928
   78CHL1  H11A 8213   1.492   1.709   7.287  1.3072 -0.6200  1.0783
   78CHL1  H11B 8214   1.530   1.864   7.194  1.3699 -1.2275 -2.1190
   78CHL1    C9 8215   1.692   1.712   7.178  0.4725 -0.4153  0.4434
   78CHL1    H9 8216   1.754   1.801   7.155  2.7617 -1.5774  1.8003
   78CHL1   C10 8217   1.653   1.634   7.045 -0.0983 -1.1616  0.8454
   78CHL1   C19 8218   1.545   1.529   7.080 -0.2097 -0.4317  0.3926
   78CHL1  H19A 8219   1.576   1.451   7.152  1.3625 -1.7999 -1.6613
   78CHL1  H19B 8220   1.456   1.578   7.125  0.2459  1.4449 -0.6210
   78CHL1  H19C 8221   1.512   1.485   6.984 -1.8921 -0.5200  0.9759
   78CHL1    C1 8222   1.594   1.734   6.945  0.3502  0.5999  0.6162
   78CHL1   H1A 8223   1.503   1.781   6.986 -0.2329  0.6664 -0.7172
   78CHL1   H1B 8224   1.663   1.820   6.932  3.0750 -1.3982  0.7185
   78CHL1    C2 8225   1.564   1.687   6.796 -0.1960  0.1828  0.6309
   78CHL1   H2A 8226   1.536   1.781   6.745 -1.0000  0.0824  0.8618
   78CHL1   H2B 8227   1.481   1.613   6.792 -0.3739  0.4045  0.1950
   78CHL1   C20 8228   1.702   1.873   7.705  0.4499  0.7464  0.2459
   78CHL1   H20 8229   1.594   1.873   7.679  0.7064 -0.9469 -0.9981
   78CHL1   C21 8230   1.718   2.024   7.703  0.0983  0.2924  0.0268
   78CHL1  H21A 8231   1.822   2.056   7.724 -0.5110  2.1931  0.4160
   78CHL1  H21B 8232   1.653   2.087   7.768 -2.6569 -1.7587 -0.5799
   78CHL1  H21C 8233   1.689   2.055   7.601 -0.4840 -1.6066 -0.4296
   78CHL1   C22 8234   1.723   1.805   7.847 -0.1902 -0.1064  0.0979
   78CHL1  H22A 8235   1.634   1.836   7.905 -1.3901 -1.4510 -0.9413
   78CHL1  H22B 8236   1.733   1.695   7.837 -2.3992 -0.3194 -0.3836
   78CHL1   C23 8237   1.847   1.859   7.923 -0.3666 -0.8331 -0.4310
   78CHL1  H23A 8238   1.939   1.863   7.861 -0.0321  0.2923  0.1169
   78CHL1  H23B 8239   1.822   1.964   7.949  1.8886 -0.2945 -0.2831
   78CHL1   C24 8240   1.874   1.775   8.052  0.2192 -0.4245  0.0213
   78CHL1  H24A 8241   1.798   1.789   8.132 -0.6511  1.0825 -0.9932
   78CHL1  H24B 8242   1.872   1.671   8.015  1.2062  0.0791 -1.5478
   78CHL1   C25 8243   2.016   1.795   8.108  0.8191 -0.1520 -0.3720
   78CHL1   H25 8244   2.088   1.781   8.025 -0.8492 -0.6723 -1.7769
   78CHL1   C26 8245   2.045   1.939   8.151 -0.6140  0.4446  0.1802
   78CHL1  H26A 8246   2.154   1.942   8.167 -0.4605  1.1828 -0.9195
   78CHL1  H26B 8247   2.021   2.001   8.062 -1.7354 -0.8974 -0.4997
   78CHL1  H26C 8248   1.987   1.976   8.239 -0.8558  0.4137  0.0366
   78CHL1   C27 8249   2.047   1.688   8.221 -0.1063  0.2046  0.0982
   78CHL1  H27A 8250   1.996   1.717   8.315 -1.4092 -1.0769 -0.1768
   78CHL1  H27B 8251   2.025   1.586   8.182  2.3623  0.1838 -1.4067
   78CHL1  H27C 8252   2.155   1.683   8.244 -0.1409 -2.4129  0.0396
   79CHL1    C3 8253   6.430   1.582   7.287 -0.1756  0.0511 -0.6600
   79CHL1    H3 8254   6.465   1.687   7.285  0.4480 -0.1490 -0.3139
   79CHL1    O3 8255   6.438   1.522   7.157 -0.5526  0.3261 -0.1184
   79CHL1   H3' 8256   6.372   1.453   7.165 -0.7719  0.7016  1.6546
   79CHL1    C4 8257   6.525   1.507   7.381 -0.4952  1.1183 -0.0844
   79CHL1   H4A 8258   6.505   1.398   7.384  1.4996  0.7236  0.2873
   79CHL1   H4B 8259   6.628   1.516   7.342 -0.3400 -2.5623 -0.8994
   79CHL1    C5 8260   6.506   1.567   7.518  0.2691  0.3234 -0.1809
   79CHL1    C6 8261   6.613   1.607   7.587  0.7975 -0.7963  0.3609
   79CHL1    H6 8262   6.706   1.599   7.530  1.2701  0.2328  0.9699
   79CHL1    C7 8263   6.613   1.659   7.726 -0.9335 -0.6863 -0.0252
   79CHL1   H7A 8264   6.703   1.616   7.774 -0.2276 -0.3575 -1.0270
   79CHL1   H7B 8265   6.629   1.769   7.724 -1.7800 -0.5581 -1.3720
   79CHL1    C8 8266   6.479   1.623   7.800 -0.5827 -0.0567  0.0683
   79CHL1    H8 8267   6.486   1.515   7.829  2.4695 -0.1605 -0.7337
   79CHL1   C14 8268   6.470   1.710   7.930  0.0314  0.2581  0.5777
   79CHL1   H14 8269   6.471   1.812   7.885 -2.3996 -0.3066 -0.9592
   79CHL1   C15 8270   6.584   1.722   8.031 -0.3439 -0.3138 -0.0078
   79CHL1  H15A 8271   6.635   1.624   8.045  0.3532 -0.2343 -1.6512
   79CHL1  H15B 8272   6.658   1.795   7.992 -1.5616  0.1729 -1.5152
   79CHL1   C16 8273   6.515   1.781   8.153 -0.8533  0.5011  0.2605
   79CHL1  H16A 8274   6.519   1.712   8.240 -0.6670  0.7443  0.4482
   79CHL1  H16B 8275   6.549   1.881   8.190 -1.1840  0.6015  0.3050
   79CHL1   C17 8276   6.359   1.794   8.118  0.4208 -0.7117 -0.2184
   79CHL1   H17 8277   6.344   1.895   8.074  1.3043 -0.8954 -0.9913
   79CHL1   C13 8278   6.340   1.696   8.007 -0.5057  0.7099 -0.0124
   79CHL1   C18 8279   6.335   1.553   8.069  0.8563  0.1064 -0.3470
   79CHL1  H18A 8280   6.245   1.546   8.133 -0.9044  0.6232 -2.6370
   79CHL1  H18B 8281   6.325   1.482   7.984  2.0331 -2.0556  1.2332
   79CHL1  H18C 8282   6.423   1.527   8.131  1.1737  0.7616 -0.5017
   79CHL1   C12 8283   6.227   1.723   7.913  0.0654  0.4115 -0.3860
   79CHL1  H12A 8284   6.124   1.705   7.951 -0.3746 -2.4232 -2.6037
   79CHL1  H12B 8285   6.235   1.831   7.885 -0.1880 -0.1647 -2.9170
   79CHL1   C11 8286   6.226   1.637   7.790 -0.4582  0.4429 -0.6712
   79CHL1  H11A 8287   6.221   1.529   7.816  0.8577  0.0246 -2.0233
   79CHL1  H11B 8288   6.141   1.675   7.731  0.8773  1.3436 -2.0916
   79CHL1    C9 8289   6.357   1.654   7.706  0.5851  0.3891 -0.1162
   79CHL1    H9 8290   6.359   1.763   7.685  0.1242  0.6399  1.0219
   79CHL1   C10 8291   6.364   1.574   7.576  0.3063  0.5750  0.2487
   79CHL1   C19 8292   6.313   1.427   7.604  0.3660  0.0993 -0.1267
   79CHL1  H19A 8293   6.323   1.364   7.513  0.2603 -0.2263  0.0848
   79CHL1  H19B 8294   6.368   1.372   7.682 -1.1978 -1.7750 -0.2792
   79CHL1  H19C 8295   6.208   1.430   7.640 -0.2282  1.0172 -1.8063
   79CHL1    C1 8296   6.256   1.626   7.470  0.0818 -0.3916 -0.3005
   79CHL1   H1A 8297   6.151   1.603   7.498  0.5621  0.4438  2.4744
   79CHL1   H1B 8298   6.269   1.736   7.461  0.0105 -0.3485  0.1233
   79CHL1    C2 8299   6.288   1.575   7.330 -0.0571 -0.6187  0.0480
   79CHL1   H2A 8300   6.227   1.638   7.263  1.2472  1.1642  0.4646
   79CHL1   H2B 8301   6.272   1.466   7.319  1.3401 -1.0492  1.6419
   79CHL1   C20 8302   6.269   1.788   8.242 -0.2604  0.0062 -0.0319
   79CHL1   H20 8303   6.266   1.683   8.279 -1.1117 -1.2679 -3.3693
   79CHL1   C21 8304   6.124   1.828   8.200 -0.5556  0.4373  0.0324
   79CHL1  H21A 8305   6.140   1.922   8.143 -0.8040  0.6621  0.3311
   79CHL1  H21B 8306   6.053   1.847   8.283 -0.5551 -1.3981  0.4963
   79CHL1  H21C 8307   6.078   1.753   8.132  1.1389 -0.0397 -0.6476
   79CHL1   C22 8308   6.327   1.881   8.358  0.0360  0.0487 -0.5064
   79CHL1  H22A 8309   6.437   1.871   8.373 -0.1297  2.5400  3.8589
   79CHL1  H22B 8310   6.299   1.985   8.333 -2.3177 -0.4511 -0.1640
   79CHL1   C23 8311   6.266   1.839   8.496  0.0937  0.4332 -0.4643
   79CHL1  H23A 8312   6.158   1.867   8.498 -0.2252 -0.7976  0.5507
   79CHL1  H23B 8313   6.283   1.734   8.526  3.0941  1.2056  0.9525
   79CHL1   C24 8314   6.324   1.916   8.624  0.4698 -0.7010 -0.2917
   79CHL1  H24A 8315   6.435   1.922   8.620  0.5929 -0.2877  2.2443
   79CHL1  H24B 8316   6.286   2.019   8.605  0.5225 -0.2042  2.0881
   79CHL1   C25 8317   6.288   1.866   8.763 -0.1385 -0.0097  0.1856
   79CHL1   H25 8318   6.322   1.940   8.839 -1.0652 -2.0421  2.7180
   79CHL1   C26 8319   6.134   1.844   8.781  0.1569 -0.6546 -0.0197
   79CHL1  H26A 8320   6.081   1.936   8.747 -1.2071 -1.0342  1.0112
   79CHL1  H26B 8321   6.096   1.757   8.723  1.2478 -0.3076 -1.3131
   79CHL1  H26C 8322   6.097   1.832   8.885 -1.8779 -0.6475 -0.7025
   79CHL1   C27 8323   6.369   1.742   8.798  0.1638  0.3886 -0.2643
   79CHL1  H27A 8324   6.326   1.659   8.737 -0.0495  0.7136 -0.5618
   79CHL1  H27B 8325   6.477   1.749   8.773  0.0684 -2.2011 -1.8075
   79CHL1  H27C 8326   6.366   1.701   8.901  2.1484 -0.7454 -0.5990
   80CHL1    C3 8327   4.520   5.286   7.053 -0.1693  0.5089  0.4475
   80CHL1    H3 8328   4.619   5.336   7.065  0.4858 -0.7610  0.5166
   80CHL1    O3 8329   4.477   5.275   6.919  0.2309 -0.0215 -0.7028
   80CHL1   H3' 8330   4.390   5.235   6.916 -0.3262  1.1664 -1.3026
   80CHL1    C4 8331   4.505   5.148   7.130 -0.4523 -0.3062 -1.0977
   80CHL1   H4A 8332   4.402   5.116   7.105 -0.8678 -0.1905  0.3746
   80CHL1   H4B 8333   4.566   5.071   7.079  0.8158 -0.7948  1.0403
   80CHL1    C5 8334   4.527   5.169   7.278  0.2016 -0.2311 -0.4349
   80CHL1    C6 8335   4.611   5.093   7.339 -0.5257  0.3055 -0.7326
   80CHL1    H6 8336   4.672   5.018   7.287  0.5675  0.5060  0.2044
   80CHL1    C7 8337   4.612   5.086   7.491 -0.1211  0.6865 -0.0711
   80CHL1   H7A 8338   4.602   4.981   7.524 -1.4924  0.6924 -0.4032
   80CHL1   H7B 8339   4.704   5.118   7.544  0.3862 -1.6116  0.5397
   80CHL1    C8 8340   4.498   5.162   7.566 -0.9184 -0.0448 -0.4631
   80CHL1    H8 8341   4.401   5.110   7.553 -2.1517  1.7427  1.1021
   80CHL1   C14 8342   4.533   5.182   7.708  0.9895  0.4928  0.8769
   80CHL1   H14 8343   4.635   5.225   7.706  1.7585 -1.2714 -0.2297
   80CHL1   C15 8344   4.547   5.049   7.793 -0.2828  0.4828  0.7630
   80CHL1  H15A 8345   4.461   4.981   7.772  0.8633 -0.7146 -0.1613
   80CHL1  H15B 8346   4.640   4.991   7.776  0.5948  1.0955  3.0581
   80CHL1   C16 8347   4.538   5.093   7.938  0.0609 -0.0677 -0.7322
   80CHL1  H16A 8348   4.453   5.050   7.994  0.3174  0.1294 -0.1842
   80CHL1  H16B 8349   4.633   5.097   7.996  0.8251 -2.0852 -1.7580
   80CHL1   C17 8350   4.504   5.248   7.927 -0.5206  0.4019  0.0430
   80CHL1   H17 8351   4.603   5.297   7.915  0.0324 -0.5645  0.6208
   80CHL1   C13 8352   4.435   5.267   7.790  0.2650 -0.0734 -0.2761
   80CHL1   C18 8353   4.293   5.197   7.808 -0.3197 -0.6096 -0.2119
   80CHL1  H18A 8354   4.224   5.262   7.865  0.9416  0.9632 -0.4252
   80CHL1  H18B 8355   4.243   5.174   7.711 -1.4969 -2.2628  0.7298
   80CHL1  H18C 8356   4.294   5.094   7.852  0.0993 -1.6435 -2.4927
   80CHL1   C12 8357   4.432   5.400   7.719 -0.5233  0.7335 -0.1936
   80CHL1  H12A 8358   4.359   5.471   7.763 -0.0114  0.4862  1.0981
   80CHL1  H12B 8359   4.537   5.436   7.724  0.3460 -1.3076 -1.9522
   80CHL1   C11 8360   4.384   5.394   7.567 -0.5549  0.0407 -0.4547
   80CHL1  H11A 8361   4.279   5.359   7.558  0.6493 -4.2024 -0.0547
   80CHL1  H11B 8362   4.388   5.495   7.520  1.1990 -0.3276 -1.1948
   80CHL1    C9 8363   4.480   5.298   7.491  0.2595 -0.1332 -0.1431
   80CHL1    H9 8364   4.577   5.351   7.485  0.5546 -0.6815 -0.2775
   80CHL1   C10 8365   4.439   5.274   7.339 -0.2936 -0.3772 -0.4438
   80CHL1   C19 8366   4.292   5.224   7.328 -0.2896  0.6572  0.0241
   80CHL1  H19A 8367   4.274   5.149   7.408  1.7384 -0.0617 -0.1330
   80CHL1  H19B 8368   4.217   5.305   7.338 -0.7162  0.0422  2.4941
   80CHL1  H19C 8369   4.266   5.184   7.228  0.1885 -1.1784  0.5877
   80CHL1    C1 8370   4.461   5.405   7.258 -0.2427 -0.2483 -0.1890
   80CHL1   H1A 8371   4.399   5.490   7.294 -1.4048 -0.8371 -0.7141
   80CHL1   H1B 8372   4.562   5.447   7.272 -0.2927 -0.5258  1.1673
   80CHL1    C2 8373   4.429   5.391   7.112 -0.4425 -0.4901 -0.4220
   80CHL1   H2A 8374   4.457   5.484   7.059 -2.1823  1.5915  2.0144
   80CHL1   H2B 8375   4.323   5.365   7.094 -0.8262  1.7707 -1.8055
   80CHL1   C20 8376   4.436   5.305   8.056  0.2373  0.4957 -0.1269
   80CHL1   H20 8377   4.331   5.269   8.057 -0.5815  2.5523 -2.1785
   80CHL1   C21 8378   4.443   5.459   8.052 -0.0742  0.1011  0.4463
   80CHL1  H21A 8379   4.543   5.485   8.012 -0.8269  1.4729 -0.6589
   80CHL1  H21B 8380   4.416   5.508   8.147  0.0620 -0.5216  0.8119
   80CHL1  H21C 8381   4.363   5.501   7.987 -1.0017 -0.8640  0.9223
   80CHL1   C22 8382   4.493   5.257   8.186  0.0129 -0.3438 -0.4932
   80CHL1  H22A 8383   4.449   5.315   8.270  0.7894 -0.6595  0.1420
   80CHL1  H22B 8384   4.475   5.150   8.209  0.5576  0.1761  3.0305
   80CHL1   C23 8385   4.647   5.282   8.204 -0.1138  0.1208 -0.7995
   80CHL1  H23A 8386   4.715   5.233   8.131  1.7935  2.2942 -0.5823
   80CHL1  H23B 8387   4.673   5.389   8.196  0.1946  0.1892  0.8618
   80CHL1   C24 8388   4.687   5.255   8.349 -0.4657 -0.6412 -1.1521
   80CHL1  H24A 8389   4.674   5.347   8.409  1.1037 -2.5419  2.3716
   80CHL1  H24B 8390   4.619   5.174   8.384 -1.8568  0.8704 -0.2436
   80CHL1   C25 8391   4.831   5.221   8.392 -0.0436 -0.7222  1.5048
   80CHL1   H25 8392   4.858   5.129   8.336  0.6423  0.1668  0.3084
   80CHL1   C26 8393   4.922   5.338   8.344  0.0242 -0.7954  0.5366
   80CHL1  H26A 8394   4.901   5.441   8.381  1.1373 -0.2755 -0.2457
   80CHL1  H26B 8395   5.029   5.314   8.360  0.5532  2.2783  2.4164
   80CHL1  H26C 8396   4.906   5.348   8.234 -1.9118  1.5885  0.9490
   80CHL1   C27 8397   4.849   5.181   8.542 -0.0186  0.6218 -0.0662
   80CHL1  H27A 8398   4.946   5.133   8.565 -0.2526 -0.0302 -0.4120
   80CHL1  H27B 8399   4.845   5.272   8.606 -1.2930  0.1380  0.5784
   80CHL1  H27C 8400   4.768   5.106   8.558 -0.6830  1.3804  0.2100
   81CHL1    C3 8401   4.279   5.812   6.826 -0.1728  0.3662 -0.0324
   81CHL1    H3 8402   4.216   5.729   6.867 -0.7924  0.5100 -0.6804
   81CHL1    O3 8403   4.314   5.782   6.689  0.4292  0.4635 -0.7205
   81CHL1   H3' 8404   4.316   5.686   6.688  1.9094  0.4604 -2.3295
   81CHL1    C4 8405   4.222   5.948   6.836  0.0310  0.1481 -1.0780
   81CHL1   H4A 8406   4.288   6.025   6.792  0.9566  1.1551  1.8372
   81CHL1   H4B 8407   4.133   5.960   6.771 -0.0845  1.6960 -0.6564
   81CHL1    C5 8408   4.186   5.969   6.984  0.3399  0.2605  0.5684
   81CHL1    C6 8409   4.060   5.990   7.031 -0.3599  0.0353  0.4674
   81CHL1    H6 8410   3.974   5.996   6.963 -0.9866  0.1080  1.2557
   81CHL1    C7 8411   4.025   6.012   7.178 -0.1267 -0.0820  0.0816
   81CHL1   H7A 8412   3.955   6.096   7.197  0.5747  0.6290 -0.4517
   81CHL1   H7B 8413   3.975   5.922   7.222  0.2552 -0.4300 -0.1851
   81CHL1    C8 8414   4.148   6.037   7.275 -0.6108 -0.3890  0.3102
   81CHL1    H8 8415   4.183   6.141   7.260  1.5513 -1.3839 -2.2104
   81CHL1   C14 8416   4.120   6.012   7.425  0.0740 -0.0775 -0.3334
   81CHL1   H14 8417   4.100   5.903   7.424  1.3119 -0.3328 -1.9156
   81CHL1   C15 8418   3.988   6.066   7.493  0.4576  0.1934  0.2992
   81CHL1  H15A 8419   3.987   6.175   7.473 -1.5494  0.4849  1.6387
   81CHL1  H15B 8420   3.902   6.011   7.449  0.6158  0.2049 -0.0239
   81CHL1   C16 8421   4.012   6.029   7.642 -0.3258 -0.2543  0.3615
   81CHL1  H16A 8422   3.985   6.119   7.701  0.1136  0.9932 -1.2715
   81CHL1  H16B 8423   3.950   5.942   7.671 -0.6799 -0.3001 -0.5098
   81CHL1   C17 8424   4.164   5.992   7.661 -0.2552 -0.0112  0.1477
   81CHL1   H17 8425   4.180   5.883   7.666  1.5440  0.2805  3.7457
   81CHL1   C13 8426   4.230   6.035   7.527  0.4611  0.1994 -0.0621
   81CHL1   C18 8427   4.272   6.186   7.538  0.1157 -0.1208  0.1076
   81CHL1  H18A 8428   4.205   6.231   7.615 -0.8816 -3.6718  1.4762
   81CHL1  H18B 8429   4.373   6.207   7.579 -0.0032 -0.3137  0.5104
   81CHL1  H18C 8430   4.255   6.235   7.440  0.5045  0.7871  0.4790
   81CHL1   C12 8431   4.353   5.948   7.476  0.2017  0.5266  0.2457
   81CHL1  H12A 8432   4.443   5.968   7.538 -0.4718  0.1099  1.3952
   81CHL1  H12B 8433   4.328   5.840   7.482 -0.0951  0.6213  0.8015
   81CHL1   C11 8434   4.387   5.986   7.328  0.4650 -0.6858  0.0301
   81CHL1  H11A 8435   4.407   6.096   7.324 -1.4095 -0.3448 -1.4509
   81CHL1  H11B 8436   4.472   5.924   7.292 -0.5122 -2.3255  0.4627
   81CHL1    C9 8437   4.272   5.951   7.237 -0.3872  0.7819  1.0820
   81CHL1    H9 8438   4.239   5.848   7.262  1.8647 -0.0129  0.9675
   81CHL1   C10 8439   4.304   5.955   7.083 -0.4395  0.4407  0.1734
   81CHL1   C19 8440   4.396   6.080   7.061 -0.0810  0.7003 -0.8359
   81CHL1  H19A 8441   4.342   6.172   7.090 -0.4666 -0.5467  2.9922
   81CHL1  H19B 8442   4.492   6.075   7.118 -1.7986  2.5128  2.5048
   81CHL1  H19C 8443   4.418   6.080   6.952 -0.7705 -2.4357 -1.0755
   81CHL1    C1 8444   4.383   5.818   7.058  0.5096 -0.1595  0.3520
   81CHL1   H1A 8445   4.474   5.809   7.121 -0.1610 -0.3411  1.3233
   81CHL1   H1B 8446   4.329   5.728   7.093  0.0860  0.0387  0.2117
   81CHL1    C2 8447   4.416   5.800   6.909  0.4735 -0.6976  0.3554
   81CHL1   H2A 8448   4.463   5.702   6.886  1.3821 -0.6162  1.7749
   81CHL1   H2B 8449   4.478   5.881   6.867 -1.4438  0.6012 -0.1188
   81CHL1   C20 8450   4.218   6.041   7.796  0.3508 -0.5051  0.1229
   81CHL1   H20 8451   4.208   6.152   7.794  0.5818 -0.4359  1.6790
   81CHL1   C21 8452   4.364   6.002   7.814  0.1122 -0.1888  0.1013
   81CHL1  H21A 8453   4.385   5.895   7.837  0.2625 -0.3495 -0.7394
   81CHL1  H21B 8454   4.409   6.050   7.903  1.3075 -0.9597 -0.0569
   81CHL1  H21C 8455   4.426   6.011   7.723  0.4343 -0.1793  0.3208
   81CHL1   C22 8456   4.136   6.011   7.922 -0.2718  0.6573 -0.4212
   81CHL1  H22A 8457   4.028   6.035   7.909 -0.2796  0.9111  0.0617
   81CHL1  H22B 8458   4.135   5.903   7.948 -1.4880  0.7601  0.0349
   81CHL1   C23 8459   4.192   6.081   8.048  0.4702 -0.8872 -1.0856
   81CHL1  H23A 8460   4.285   6.032   8.084  0.1942  0.3869  1.5919
   81CHL1  H23B 8461   4.220   6.187   8.032  0.2892 -0.6757 -0.0679
   81CHL1   C24 8462   4.103   6.073   8.170 -0.3091 -0.3426 -0.1318
   81CHL1  H24A 8463   4.001   6.114   8.152 -1.6845 -2.1930  2.6506
   81CHL1  H24B 8464   4.080   5.969   8.201 -2.1308 -0.0664 -0.4205
   81CHL1   C25 8465   4.172   6.150   8.288  0.1627 -0.2213 -0.1938
   81CHL1   H25 8466   4.229   6.235   8.244 -0.7223  2.2192  2.9889
   81CHL1   C26 8467   4.069   6.220   8.382 -0.4217 -0.4846  0.0604
   81CHL1  H26A 8468   4.126   6.295   8.440  0.7157  0.8742 -2.6026
   81CHL1  H26B 8469   4.000   6.282   8.321  2.1998  1.1567 -1.4802
   81CHL1  H26C 8470   4.022   6.152   8.455 -1.0599  0.4937  0.5848
   81CHL1   C27 8471   4.265   6.058   8.367 -0.2687 -0.1915 -0.4656
   81CHL1  H27A 8472   4.341   6.007   8.305 -0.4002 -1.8797  0.6982
   81CHL1  H27B 8473   4.326   6.107   8.446  0.3372 -1.3437 -0.1982
   81CHL1  H27C 8474   4.196   5.980   8.407 -3.1858  1.5813 -1.6712
   82CHL1    C3 8475   5.502   1.364   7.140  0.4790  0.3076  0.3302
   82CHL1    H3 8476   5.461   1.467   7.132 -2.0813 -0.5791  0.8602
   82CHL1    O3 8477   5.494   1.304   7.011 -0.3394 -0.1056  0.0498
   82CHL1   H3' 8478   5.484   1.212   7.038 -0.2053  0.0634  0.6942
   82CHL1    C4 8479   5.641   1.353   7.193 -0.2308 -0.2909  0.3026
   82CHL1   H4A 8480   5.661   1.246   7.216 -1.4807 -1.2883 -2.7173
   82CHL1   H4B 8481   5.721   1.383   7.122 -2.0381 -0.4843 -1.9141
   82CHL1    C5 8482   5.643   1.430   7.326 -0.0606  0.3965  0.0295
   82CHL1    C6 8483   5.721   1.541   7.351  0.6187 -0.2044  0.0822
   82CHL1    H6 8484   5.793   1.567   7.271  0.6432 -1.1383 -0.2095
   82CHL1    C7 8485   5.736   1.607   7.482  0.3875  0.2451  0.8771
   82CHL1   H7A 8486   5.845   1.622   7.498  0.4217  0.9669  0.0301
   82CHL1   H7B 8487   5.708   1.714   7.485  2.1058  0.7429  0.3333
   82CHL1    C8 8488   5.669   1.532   7.596  0.6689  0.2064  0.5219
   82CHL1    H8 8489   5.739   1.450   7.621  2.1632  1.2648 -0.0287
   82CHL1   C14 8490   5.672   1.620   7.726  0.0402 -0.3800 -0.2034
   82CHL1   H14 8491   5.605   1.704   7.697 -0.1752 -0.1638  0.8951
   82CHL1   C15 8492   5.801   1.684   7.772 -0.2919 -0.4674  0.2137
   82CHL1  H15A 8493   5.872   1.599   7.785 -1.7071 -1.4111  2.5196
   82CHL1  H15B 8494   5.849   1.763   7.711  0.0638  0.2551  1.3956
   82CHL1   C16 8495   5.769   1.737   7.914  0.6521  0.5037 -0.3992
   82CHL1  H16A 8496   5.830   1.681   7.988 -0.1478  1.1077  0.7360
   82CHL1  H16B 8497   5.783   1.846   7.932 -0.7727  0.4346  1.3477
   82CHL1   C17 8498   5.626   1.692   7.940  0.8914  0.3834  0.0731
   82CHL1   H17 8499   5.563   1.774   7.899  1.4831  0.3773 -0.8736
   82CHL1   C13 8500   5.606   1.564   7.853 -0.1735 -0.8520  0.0300
   82CHL1   C18 8501   5.691   1.448   7.911  0.1593  0.0120  0.2365
   82CHL1  H18A 8502   5.639   1.395   7.994  0.3765 -0.8487 -0.1702
   82CHL1  H18B 8503   5.712   1.371   7.834 -0.3172 -0.9591  1.0525
   82CHL1  H18C 8504   5.789   1.481   7.952  0.7677 -1.1290 -0.2619
   82CHL1   C12 8505   5.464   1.518   7.806 -0.4416  0.0887  1.2456
   82CHL1  H12A 8506   5.403   1.470   7.886 -1.2538 -1.7232 -0.3828
   82CHL1  H12B 8507   5.411   1.612   7.780 -0.6328 -0.4391 -0.3742
   82CHL1   C11 8508   5.459   1.414   7.692 -0.2895  0.5850 -0.0866
   82CHL1  H11A 8509   5.517   1.322   7.714  0.5018  1.0718 -0.0867
   82CHL1  H11B 8510   5.356   1.380   7.669 -0.8717 -0.1717  3.0590
   82CHL1    C9 8511   5.531   1.478   7.557  0.4811  0.0424  0.1971
   82CHL1    H9 8512   5.475   1.569   7.527  0.6076  0.4906  1.2621
   82CHL1   C10 8513   5.538   1.383   7.429  0.5381  0.3564  0.4615
   82CHL1   C19 8514   5.567   1.237   7.473  0.1857 -0.1977  0.1396
   82CHL1  H19A 8515   5.480   1.193   7.527  1.1045 -1.9163  0.2859
   82CHL1  H19B 8516   5.577   1.170   7.385  2.2807  0.5553 -0.2534
   82CHL1  H19C 8517   5.665   1.230   7.524  0.7162  0.5919 -0.7480
   82CHL1    C1 8518   5.394   1.380   7.365  0.0423 -0.0884  0.8355
   82CHL1   H1A 8519   5.315   1.342   7.433 -0.8250 -0.4840 -0.3510
   82CHL1   H1B 8520   5.365   1.485   7.345 -1.8753 -0.6812  0.2646
   82CHL1    C2 8521   5.397   1.299   7.231  0.1248 -0.1607 -0.2219
   82CHL1   H2A 8522   5.295   1.300   7.186  0.7246 -0.4668 -1.6308
   82CHL1   H2B 8523   5.432   1.196   7.254  0.3685 -0.1591 -0.5733
   82CHL1   C20 8524   5.584   1.680   8.081 -0.7864  0.5087  0.4197
   82CHL1   H20 8525   5.610   1.578   8.115  0.8889  1.3938  1.9665
   82CHL1   C21 8526   5.429   1.689   8.096 -0.3185 -0.2377  0.0091
   82CHL1  H21A 8527   5.383   1.778   8.047 -2.4812 -1.5955 -0.5869
   82CHL1  H21B 8528   5.395   1.679   8.201 -0.3951 -0.2119 -0.0123
   82CHL1  H21C 8529   5.380   1.595   8.063  0.9169 -1.8760  2.5373
   82CHL1   C22 8530   5.646   1.784   8.174  0.3036 -0.6839  0.0460
   82CHL1  H22A 8531   5.754   1.759   8.183  0.2695  0.0048  4.2731
   82CHL1  H22B 8532   5.628   1.881   8.123 -2.5622 -1.1369  0.0342
   82CHL1   C23 8533   5.590   1.784   8.317 -0.5768  0.0512  0.1150
   82CHL1  H23A 8534   5.490   1.833   8.323 -1.8794 -1.6820 -4.1880
   82CHL1  H23B 8535   5.590   1.679   8.353  3.1058  0.8991  3.3315
   82CHL1   C24 8536   5.688   1.863   8.408  0.1175 -0.0778  0.0264
   82CHL1  H24A 8537   5.775   1.794   8.408 -0.0823 -0.3550  0.9997
   82CHL1  H24B 8538   5.715   1.956   8.354  0.8785  0.0903  0.6825
   82CHL1   C25 8539   5.642   1.891   8.558 -0.3657  0.0800 -0.5837
   82CHL1   H25 8540   5.588   1.800   8.593  2.4483 -1.7572 -0.6958
   82CHL1   C26 8541   5.768   1.897   8.653  0.1229 -0.7201 -1.2665
   82CHL1  H26A 8542   5.727   1.929   8.751  1.1918 -0.5437 -0.8585
   82CHL1  H26B 8543   5.824   1.800   8.658 -0.8780 -1.3355 -1.6508
   82CHL1  H26C 8544   5.831   1.980   8.616 -0.9404  0.6741 -0.0315
   82CHL1   C27 8545   5.547   2.012   8.578 -0.0945 -0.5360 -0.0282
   82CHL1  H27A 8546   5.594   2.104   8.539  0.5241 -1.2588 -1.0196
   82CHL1  H27B 8547   5.463   1.995   8.507 -0.6706  3.0568 -0.4067
   82CHL1  H27C 8548   5.500   2.036   8.676  0.2574 -0.3593  0.0983
   83CHL1    C3 8549   0.508   1.041   6.911  0.6594  0.6805  1.2537
   83CHL1    H3 8550   0.400   1.053   6.935  0.5108  1.6400  0.2252
   83CHL1    O3 8551   0.514   1.023   6.769  0.7674 -0.2217  0.1728
   83CHL1   H3' 8552   0.424   1.042   6.741  0.4894 -0.0567  1.1342
   83CHL1    C4 8553   0.576   1.176   6.949  0.2930 -1.4393 -0.2507
   83CHL1   H4A 8554   0.674   1.182   6.898 -0.0371  1.8049 -0.7033
   83CHL1   H4B 8555   0.520   1.254   6.894 -0.3416 -0.7597  1.2876
   83CHL1    C5 8556   0.577   1.206   7.100  0.4170 -0.1444 -0.0699
   83CHL1    C6 8557   0.514   1.311   7.146  0.8629 -0.4499 -0.2210
   83CHL1    H6 8558   0.467   1.385   7.079  0.3845 -0.4365  0.1252
   83CHL1    C7 8559   0.516   1.350   7.290 -0.7248 -0.2480 -0.9380
   83CHL1   H7A 8560   0.564   1.450   7.295 -2.0088  0.4438 -1.6632
   83CHL1   H7B 8561   0.415   1.357   7.336  0.4380 -0.1065  1.7846
   83CHL1    C8 8562   0.609   1.260   7.381 -0.3254  0.1823 -0.7603
   83CHL1    H8 8563   0.712   1.294   7.359 -0.5746  0.5951 -1.3412
   83CHL1   C14 8564   0.572   1.274   7.529  0.1705  0.0904  0.5430
   83CHL1   H14 8565   0.475   1.221   7.539  0.7173 -0.8261  1.2167
   83CHL1   C15 8566   0.561   1.409   7.587 -0.0658 -0.7305 -0.0585
   83CHL1  H15A 8567   0.658   1.455   7.559 -0.0747  0.2513  1.3921
   83CHL1  H15B 8568   0.480   1.479   7.556  1.2525  0.7283 -0.3288
   83CHL1   C16 8569   0.558   1.388   7.742 -0.6909  0.1929  0.2983
   83CHL1  H16A 8570   0.616   1.465   7.798 -1.5317  1.1581 -0.1173
   83CHL1  H16B 8571   0.455   1.392   7.784 -1.3309 -1.3311 -1.0222
   83CHL1   C17 8572   0.602   1.244   7.766 -0.6591  0.2935  0.7886
   83CHL1   H17 8573   0.511   1.181   7.768 -1.6408  1.6329 -0.2744
   83CHL1   C13 8574   0.654   1.198   7.632 -1.0879  0.0679  0.0247
   83CHL1   C18 8575   0.807   1.233   7.634  0.7442  0.4507 -0.0021
   83CHL1  H18A 8576   0.842   1.241   7.528 -1.7573  1.0887 -0.8641
   83CHL1  H18B 8577   0.821   1.335   7.677 -1.8391  0.6123  0.6505
   83CHL1  H18C 8578   0.876   1.165   7.688  0.9000  0.1327 -0.5944
   83CHL1   C12 8579   0.641   1.050   7.592 -0.6184  0.7411 -0.0414
   83CHL1  H12A 8580   0.710   0.986   7.650 -1.0630  0.8179  0.5883
   83CHL1  H12B 8581   0.538   1.019   7.623 -0.2738  0.9465  1.3527
   83CHL1   C11 8582   0.660   1.013   7.442 -0.1329  0.0131 -0.1573
   83CHL1  H11A 8583   0.767   1.018   7.415 -0.2563 -0.7816 -0.8013
   83CHL1  H11B 8584   0.624   0.908   7.436  0.4684 -0.2425  0.5471
   83CHL1    C9 8585   0.593   1.111   7.341 -0.1577 -0.1212 -0.0495
   83CHL1    H9 8586   0.485   1.085   7.342  0.3946 -3.1883 -2.8488
   83CHL1   C10 8587   0.633   1.093   7.189  0.2321  0.0060 -1.0460
   83CHL1   C19 8588   0.788   1.100   7.171  0.2560 -1.0411  0.6414
   83CHL1  H19A 8589   0.821   1.129   7.070  0.5928  1.3436  1.3909
   83CHL1  H19B 8590   0.832   1.179   7.236  0.4225 -1.4380  1.0182
   83CHL1  H19C 8591   0.832   1.001   7.196 -0.8198 -1.4473  0.9947
   83CHL1    C1 8592   0.574   0.950   7.141 -0.2074  0.6001  0.3553
   83CHL1   H1A 8593   0.634   0.876   7.198 -1.6555  0.3687  1.6531
   83CHL1   H1B 8594   0.470   0.944   7.180 -0.7040 -2.3193 -1.1264
   83CHL1    C2 8595   0.573   0.925   6.988  0.6079  0.5735  0.4086
   83CHL1   H2A 8596   0.512   0.835   6.965  0.9171  0.4334  0.1325
   83CHL1   H2B 8597   0.672   0.906   6.941 -1.1816 -2.7362 -2.4257
   83CHL1   C20 8598   0.666   1.211   7.900 -0.2410 -0.1816  0.2672
   83CHL1   H20 8599   0.765   1.259   7.912 -1.0822  1.5400  0.6908
   83CHL1   C21 8600   0.679   1.059   7.922 -0.2044  0.2695 -0.4244
   83CHL1  H21A 8601   0.720   1.031   8.021  0.6401 -0.1347 -0.8736
   83CHL1  H21B 8602   0.758   1.030   7.849  0.6879  0.7054  0.3436
   83CHL1  H21C 8603   0.586   1.002   7.904 -0.3735  0.1289  0.8279
   83CHL1   C22 8604   0.593   1.284   8.014  0.5490  0.6599 -0.1135
   83CHL1  H22A 8605   0.654   1.277   8.106 -0.6277 -3.4300  0.5472
   83CHL1  H22B 8606   0.561   1.389   7.995 -0.2595  0.3659 -0.4398
   83CHL1   C23 8607   0.464   1.203   8.044  0.2478  0.0982 -0.0360
   83CHL1  H23A 8608   0.421   1.171   7.947  0.8624 -1.3746  0.1403
   83CHL1  H23B 8609   0.488   1.106   8.094 -0.9563  1.2610  3.0313
   83CHL1   C24 8610   0.362   1.272   8.129  0.0892 -0.0726  0.5443
   83CHL1  H24A 8611   0.410   1.268   8.230  0.7652  1.2551  0.3026
   83CHL1  H24B 8612   0.352   1.380   8.104 -0.1045 -0.1186  0.4289
   83CHL1   C25 8613   0.231   1.188   8.137  0.0621 -0.1812 -0.1645
   83CHL1   H25 8614   0.192   1.192   8.033  1.9095  0.3124 -0.8815
   83CHL1   C26 8615   0.256   1.037   8.166 -0.2621 -0.8498 -0.0737
   83CHL1  H26A 8616   0.275   0.983   8.071  2.2587 -0.1487 -0.0456
   83CHL1  H26B 8617   0.337   1.021   8.241 -0.4440  2.5319  1.0204
   83CHL1  H26C 8618   0.157   0.998   8.200 -1.0735  1.9098  1.0513
   83CHL1   C27 8619   0.116   1.248   8.229 -0.0337  0.4829  0.6683
   83CHL1  H27A 8620   0.145   1.272   8.334  0.0427 -0.8427  0.9688
   83CHL1  H27B 8621   0.070   1.331   8.171  0.9654 -1.6104 -3.5532
   83CHL1  H27C 8622   0.036   1.174   8.244  0.0732  0.6205  2.0305
   84CHL1    C3 8623   3.439   2.634   6.777  0.6566  0.0130  0.6427
   84CHL1    H3 8624   3.491   2.536   6.776  1.3917  0.2581  3.8786
   84CHL1    O3 8625   3.413   2.666   6.638 -0.4515 -0.1005 -0.4360
   84CHL1   H3' 8626   3.488   2.626   6.593 -0.9324 -0.0454 -1.3100
   84CHL1    C4 8627   3.303   2.624   6.853  0.2834  0.4134  0.1281
   84CHL1   H4A 8628   3.246   2.717   6.829 -0.5283 -0.9411 -4.0608
   84CHL1   H4B 8629   3.245   2.541   6.807 -0.3569  1.8750 -1.8757
   84CHL1    C5 8630   3.329   2.614   6.998 -1.0145  0.8374 -0.2216
   84CHL1    C6 8631   3.285   2.509   7.064  0.0046  0.4227 -0.3678
   84CHL1    H6 8632   3.231   2.428   7.013 -1.5599  0.8739  0.5075
   84CHL1    C7 8633   3.310   2.490   7.209 -0.4597  0.4575  0.6666
   84CHL1   H7A 8634   3.232   2.437   7.267 -0.0646 -0.7207  0.1640
   84CHL1   H7B 8635   3.407   2.437   7.221 -1.4185 -2.4186 -2.6110
   84CHL1    C8 8636   3.342   2.620   7.288  0.0312 -1.0800 -0.3982
   84CHL1    H8 8637   3.251   2.685   7.291 -0.7019 -1.8890 -2.8443
   84CHL1   C14 8638   3.385   2.597   7.434 -1.1081  0.3454  0.3552
   84CHL1   H14 8639   3.466   2.521   7.427 -0.2933  1.2191  0.2047
   84CHL1   C15 8640   3.290   2.517   7.525 -0.7784 -0.0836 -0.4075
   84CHL1  H15A 8641   3.191   2.568   7.524 -0.4668  0.5493  0.2650
   84CHL1  H15B 8642   3.292   2.407   7.507  0.8946 -0.2744  0.7013
   84CHL1   C16 8643   3.351   2.549   7.659  0.5580 -0.0509 -0.1247
   84CHL1  H16A 8644   3.274   2.580   7.732 -0.8385 -1.8130 -0.7710
   84CHL1  H16B 8645   3.409   2.465   7.703  0.7843 -0.8734 -1.8832
   84CHL1   C17 8646   3.464   2.654   7.642 -0.0222 -0.0851  0.3265
   84CHL1   H17 8647   3.552   2.589   7.622 -0.3132 -0.6812  0.9752
   84CHL1   C13 8648   3.432   2.723   7.512 -0.3250 -0.4640  0.2820
   84CHL1   C18 8649   3.310   2.817   7.531  0.5709 -0.6101  0.1908
   84CHL1  H18A 8650   3.228   2.775   7.593  1.7858 -0.9925  1.5969
   84CHL1  H18B 8651   3.343   2.913   7.576  2.0918 -1.8444  1.8812
   84CHL1  H18C 8652   3.265   2.836   7.431  1.1929 -1.0834 -0.1864
   84CHL1   C12 8653   3.553   2.788   7.432 -0.1619 -0.1964 -0.6234
   84CHL1  H12A 8654   3.590   2.876   7.489  1.8883 -1.0671 -0.5431
   84CHL1  H12B 8655   3.632   2.710   7.435  0.2530  0.2378 -0.0585
   84CHL1   C11 8656   3.503   2.819   7.286  0.1328  0.0545 -0.3081
   84CHL1  H11A 8657   3.425   2.895   7.305 -0.8611 -1.1364  0.4738
   84CHL1  H11B 8658   3.582   2.871   7.227 -0.4360  2.5159  0.9525
   84CHL1    C9 8659   3.450   2.691   7.219  0.1671  0.3092  0.3407
   84CHL1    H9 8660   3.542   2.629   7.209  2.5597  3.9220 -3.2560
   84CHL1   C10 8661   3.413   2.720   7.067  0.1459 -0.0621  0.3048
   84CHL1   C19 8662   3.324   2.839   7.067 -0.0836  0.1485 -0.4842
   84CHL1  H19A 8663   3.273   2.869   6.973  0.3492 -1.0949 -1.1379
   84CHL1  H19B 8664   3.243   2.849   7.143 -1.4588  0.6864 -1.9563
   84CHL1  H19C 8665   3.388   2.927   7.090  0.1585 -0.3545  0.8946
   84CHL1    C1 8666   3.541   2.739   6.986  0.3371 -0.4683 -0.2557
   84CHL1   H1A 8667   3.596   2.831   7.016  0.0246 -0.6339  0.8773
   84CHL1   H1B 8668   3.608   2.653   7.009 -1.2689 -1.0649  2.7368
   84CHL1    C2 8669   3.518   2.749   6.833 -0.5610 -0.6438 -0.0714
   84CHL1   H2A 8670   3.614   2.764   6.780 -1.3114 -0.7254 -1.4825
   84CHL1   H2B 8671   3.450   2.836   6.819 -1.4650 -0.4813  3.9342
   84CHL1   C20 8672   3.504   2.738   7.771 -0.0910  0.1529  0.0983
   84CHL1   H20 8673   3.438   2.827   7.769  0.9617  0.9513 -0.1419
   84CHL1   C21 8674   3.656   2.783   7.754 -0.0402  0.0634 -0.2130
   84CHL1  H21A 8675   3.721   2.698   7.782 -1.0344 -0.4790  0.5051
   84CHL1  H21B 8676   3.678   2.866   7.825  0.6061 -1.0580  0.9373
   84CHL1  H21C 8677   3.684   2.818   7.653 -0.6310 -0.2964 -0.5045
   84CHL1   C22 8678   3.484   2.663   7.906 -0.2370  1.1652 -0.4529
   84CHL1  H22A 8679   3.376   2.638   7.908  0.3704 -1.8372  2.0699
   84CHL1  H22B 8680   3.544   2.570   7.901 -0.3641  1.1193 -1.1824
   84CHL1   C23 8681   3.529   2.746   8.033  0.2188 -0.0105  0.5200
   84CHL1  H23A 8682   3.638   2.761   8.023  0.2929  1.9206  3.1231
   84CHL1  H23B 8683   3.483   2.847   8.032 -0.7701 -0.4534 -0.4666
   84CHL1   C24 8684   3.493   2.680   8.169 -0.3391  0.3033 -0.4128
   84CHL1  H24A 8685   3.388   2.648   8.184  0.0275 -0.2883  1.0917
   84CHL1  H24B 8686   3.556   2.588   8.169  0.2772  0.7167  0.4347
   84CHL1   C25 8687   3.529   2.784   8.288 -0.6288 -0.0268  0.3401
   84CHL1   H25 8688   3.503   2.730   8.382 -4.7141 -0.7670 -1.0046
   84CHL1   C26 8689   3.677   2.822   8.308 -0.4733 -0.1451  0.4748
   84CHL1  H26A 8690   3.695   2.881   8.400  1.1619 -1.4631  1.0500
   84CHL1  H26B 8691   3.745   2.734   8.308  0.2154  0.3776 -0.1585
   84CHL1  H26C 8692   3.703   2.875   8.214 -0.6476  2.5223  1.8271
   84CHL1   C27 8693   3.449   2.914   8.291  0.3778  0.9881  0.0307
   84CHL1  H27A 8694   3.339   2.901   8.298  0.3217  0.6374 -1.1629
   84CHL1  H27B 8695   3.487   2.971   8.378  0.0501 -2.4997  2.6515
   84CHL1  H27C 8696   3.487   2.969   8.202  1.1929 -1.8328 -1.5051
   85CHL1    C3 8697   1.832   0.901   6.558 -0.0632 -0.4606  0.4856
   85CHL1    H3 8698   1.740   0.951   6.596 -2.0038 -2.2767 -1.5447
   85CHL1    O3 8699   1.834   0.885   6.416 -0.3641 -0.1575  0.4141
   85CHL1   H3' 8700   1.835   0.792   6.392 -2.8355 -0.1791  0.0714
   85CHL1    C4 8701   1.957   0.992   6.596 -0.0390  0.1628 -0.0222
   85CHL1   H4A 8702   2.051   0.939   6.569  0.1728  0.3071  0.4308
   85CHL1   H4B 8703   1.949   1.085   6.536  0.8114 -0.3052 -0.9102
   85CHL1    C5 8704   1.956   1.029   6.742 -0.2573  0.3073 -0.2774
   85CHL1    C6 8705   1.930   1.152   6.791 -0.5261 -0.2217  0.9023
   85CHL1    H6 8706   1.923   1.233   6.718 -0.5027 -1.5479 -0.6344
   85CHL1    C7 8707   1.934   1.188   6.938 -0.1163  0.2755  0.9686
   85CHL1   H7A 8708   1.980   1.288   6.954 -0.5822  0.5910  0.3556
   85CHL1   H7B 8709   1.831   1.201   6.976  0.3538  1.7089  1.8550
   85CHL1    C8 8710   1.996   1.080   7.024  0.1000  0.1795  0.1588
   85CHL1    H8 8711   2.106   1.095   7.022  0.1515 -0.1819  0.1094
   85CHL1   C14 8712   1.954   1.101   7.170 -0.3893  0.0807  0.5138
   85CHL1   H14 8713   1.847   1.073   7.171 -0.1778 -0.8230 -0.5578
   85CHL1   C15 8714   1.977   1.240   7.230 -0.2870 -0.7755  0.3107
   85CHL1  H15A 8715   2.053   1.305   7.182 -0.9375 -0.6013 -0.4910
   85CHL1  H15B 8716   1.880   1.294   7.227  0.9823  2.0013  3.3663
   85CHL1   C16 8717   1.996   1.219   7.378 -0.9827 -0.0298 -0.2529
   85CHL1  H16A 8718   2.099   1.249   7.407 -0.5323  0.1118 -1.8623
   85CHL1  H16B 8719   1.918   1.279   7.431 -2.6030  1.4939 -3.9778
   85CHL1   C17 8720   1.974   1.066   7.399 -0.3181  0.3002 -0.6089
   85CHL1   H17 8721   1.865   1.052   7.411 -0.3871  0.9025 -0.4809
   85CHL1   C13 8722   2.021   1.002   7.272 -0.2825  0.7189  0.4909
   85CHL1   C18 8723   2.175   1.016   7.255 -0.7529 -0.4885  0.1790
   85CHL1  H18A 8724   2.228   0.976   7.166  0.9727 -0.0853  0.9888
   85CHL1  H18B 8725   2.193   1.125   7.261  0.6429 -0.6930 -0.1445
   85CHL1  H18C 8726   2.229   0.970   7.341  0.0819 -1.6642 -0.9415
   85CHL1   C12 8727   1.960   0.871   7.231 -0.4206 -0.4170 -0.5572
   85CHL1  H12A 8728   2.012   0.788   7.283 -0.0365 -0.9049 -1.6767
   85CHL1  H12B 8729   1.853   0.874   7.261 -0.0566 -1.5538  0.9364
   85CHL1   C11 8730   1.985   0.833   7.080  1.0849 -0.5355 -0.4300
   85CHL1  H11A 8731   2.093   0.809   7.070  1.4631  1.4288 -1.7188
   85CHL1  H11B 8732   1.924   0.743   7.057  1.3560 -0.8164 -0.0615
   85CHL1    C9 8733   1.950   0.942   6.977  0.2038 -0.3465  0.8254
   85CHL1    H9 8734   1.840   0.953   6.982  0.2086 -0.3671  0.9941
   85CHL1   C10 8735   1.986   0.902   6.830 -0.3987  0.2662  0.3240
   85CHL1   C19 8736   2.138   0.859   6.821 -0.7956  1.2380  0.1458
   85CHL1  H19A 8737   2.176   0.846   6.718  0.4543 -0.0634  0.7480
   85CHL1  H19B 8738   2.207   0.921   6.883  2.8240 -1.7535 -0.5525
   85CHL1  H19C 8739   2.152   0.765   6.878  2.3711  2.2801  1.3163
   85CHL1    C1 8740   1.889   0.789   6.783 -0.6646  0.3334  0.3093
   85CHL1   H1A 8741   1.918   0.692   6.829 -3.2608 -1.7494 -2.0702
   85CHL1   H1B 8742   1.792   0.813   6.831  0.0469  0.8937  1.5189
   85CHL1    C2 8743   1.854   0.768   6.629 -0.3245 -0.0076 -0.6721
   85CHL1   H2A 8744   1.777   0.692   6.605  1.4545 -1.2011 -3.0412
   85CHL1   H2B 8745   1.945   0.717   6.591 -0.7738 -1.1194 -0.2937
   85CHL1   C20 8746   2.039   1.015   7.527 -0.7520 -0.2596  0.0079
   85CHL1   H20 8747   2.148   1.012   7.506 -1.0699 -0.9962 -1.7236
   85CHL1   C21 8748   1.996   0.871   7.570  0.1631  0.1538  0.0777
   85CHL1  H21A 8749   1.891   0.859   7.603  0.4307 -0.7297  0.6292
   85CHL1  H21B 8750   2.053   0.844   7.661  2.1541  3.5251 -0.0197
   85CHL1  H21C 8751   2.001   0.796   7.487  0.2504  0.7819 -0.4975
   85CHL1   C22 8752   2.021   1.109   7.650 -0.1113 -0.6300 -0.0554
   85CHL1  H22A 8753   2.068   1.208   7.636  1.7157 -1.2994  0.9042
   85CHL1  H22B 8754   1.911   1.112   7.666 -0.1402 -1.6405  0.0017
   85CHL1   C23 8755   2.103   1.077   7.778 -0.3111 -0.4091 -0.2828
   85CHL1  H23A 8756   2.071   0.977   7.815  0.2466 -0.4941 -0.0296
   85CHL1  H23B 8757   2.213   1.081   7.761 -0.3195 -0.3925 -0.3343
   85CHL1   C24 8758   2.059   1.174   7.892 -1.1334 -0.2331  1.3719
   85CHL1  H24A 8759   2.094   1.279   7.883 -2.9736  0.3109 -0.0371
   85CHL1  H24B 8760   1.949   1.170   7.906 -1.1432 -2.2385  1.0176
   85CHL1   C25 8761   2.123   1.135   8.022  0.4671 -0.4621 -0.3616
   85CHL1   H25 8762   2.122   1.024   8.036 -3.9773 -0.5773 -0.0837
   85CHL1   C26 8763   2.265   1.181   8.031  0.0474 -0.1886  0.1052
   85CHL1  H26A 8764   2.313   1.149   8.126 -1.2814  0.7162  1.1202
   85CHL1  H26B 8765   2.311   1.149   7.935 -1.5521 -0.3301 -0.6506
   85CHL1  H26C 8766   2.249   1.291   8.032  3.6235  0.5271 -2.4876
   85CHL1   C27 8767   2.055   1.192   8.145 -0.2706  0.4983 -0.4044
   85CHL1  H27A 8768   1.948   1.165   8.155 -0.3277  0.6351 -0.6417
   85CHL1  H27B 8769   2.112   1.153   8.232 -1.9098  1.2593  1.0687
   85CHL1  H27C 8770   2.064   1.303   8.147 -2.6977  0.8222 -2.3317
   86CHL1    C3 8771   5.042   5.683   6.807 -1.1032 -0.2790  0.1972
   86CHL1    H3 8772   5.035   5.573   6.824  0.1834 -0.3634  0.2679
   86CHL1    O3 8773   5.067   5.702   6.673  0.3375 -0.1886  0.2307
   86CHL1   H3' 8774   5.054   5.795   6.655 -1.0605 -0.6179 -1.2214
   86CHL1    C4 8775   4.907   5.743   6.845 -0.8691 -0.0203  0.2698
   86CHL1   H4A 8776   4.904   5.847   6.807  1.7671  0.5070  1.3360
   86CHL1   H4B 8777   4.837   5.682   6.783  2.5891 -2.4850 -1.5333
   86CHL1    C5 8778   4.887   5.744   6.994  0.6614 -0.7585 -0.5433
   86CHL1    C6 8779   4.779   5.685   7.038  0.1805  0.5232 -0.2789
   86CHL1    H6 8780   4.697   5.652   6.972 -1.7363  1.1998  1.6299
   86CHL1    C7 8781   4.743   5.670   7.184  0.3226  0.2765  0.3725
   86CHL1   H7A 8782   4.636   5.696   7.203  0.7605  0.8032  2.4155
   86CHL1   H7B 8783   4.765   5.569   7.224  2.1732 -1.1894 -3.8055
   86CHL1    C8 8784   4.823   5.780   7.265 -0.3238 -0.4824  0.1276
   86CHL1    H8 8785   4.777   5.881   7.261  0.1334 -0.2233  1.0225
   86CHL1   C14 8786   4.809   5.747   7.416  0.2840  0.0479 -0.3142
   86CHL1   H14 8787   4.866   5.652   7.424 -3.1183 -2.1452 -0.1238
   86CHL1   C15 8788   4.667   5.715   7.466  0.7690  0.5796  0.1130
   86CHL1  H15A 8789   4.595   5.781   7.415 -0.6085 -1.2677 -0.4511
   86CHL1  H15B 8790   4.642   5.607   7.452  1.4532  0.0507  2.4610
   86CHL1   C16 8791   4.666   5.730   7.620  0.1534 -0.3794  0.1526
   86CHL1  H16A 8792   4.594   5.811   7.642 -0.1223  0.3316 -2.9691
   86CHL1  H16B 8793   4.660   5.637   7.681  2.9920 -0.6570  0.1686
   86CHL1   C17 8794   4.816   5.775   7.651  0.5659 -0.3483 -0.3984
   86CHL1   H17 8795   4.883   5.688   7.666  1.9847  0.8323  0.4440
   86CHL1   C13 8796   4.867   5.838   7.522  0.1019 -0.1350  0.6432
   86CHL1   C18 8797   4.806   5.980   7.523  0.2761  0.0025  0.1961
   86CHL1  H18A 8798   4.822   6.020   7.421  0.2888  1.2517  0.6696
   86CHL1  H18B 8799   4.697   5.994   7.537  0.0648  1.8818 -2.6305
   86CHL1  H18C 8800   4.866   6.042   7.594 -0.1216  0.0590  0.4811
   86CHL1   C12 8801   5.014   5.831   7.495  0.1654 -0.3093  0.5188
   86CHL1  H12A 8802   5.072   5.903   7.558 -0.6519  0.3514  0.5325
   86CHL1  H12B 8803   5.072   5.737   7.505 -1.0212 -1.0335  0.7471
   86CHL1   C11 8804   5.045   5.872   7.345  0.1224 -0.6483  0.3973
   86CHL1  H11A 8805   5.008   5.974   7.322 -0.4685 -0.4516  2.1025
   86CHL1  H11B 8806   5.156   5.879   7.341  0.1072  0.2157  1.2246
   86CHL1    C9 8807   4.972   5.778   7.237  0.2775  0.0693 -0.3583
   86CHL1    H9 8808   5.005   5.674   7.257 -2.2614 -0.9837 -1.2214
   86CHL1   C10 8809   4.993   5.807   7.086  0.1383  0.1757  0.2688
   86CHL1   C19 8810   4.991   5.958   7.064 -0.5835 -0.3601 -0.3395
   86CHL1  H19A 8811   4.902   6.006   7.108  0.1980  1.3639 -0.5753
   86CHL1  H19B 8812   5.083   5.995   7.113 -1.9672  0.9441  1.3608
   86CHL1  H19C 8813   5.004   5.987   6.957  2.8991  0.7356  0.2522
   86CHL1    C1 8814   5.121   5.742   7.037 -0.0403 -0.5947  0.7779
   86CHL1   H1A 8815   5.215   5.778   7.084  1.3406 -1.9108 -0.8237
   86CHL1   H1B 8816   5.115   5.636   7.069 -1.8940 -1.0995 -0.9868
   86CHL1    C2 8817   5.155   5.739   6.882 -0.5429  0.2400 -0.5262
   86CHL1   H2A 8818   5.252   5.687   6.869  0.1705  1.1210  0.9686
   86CHL1   H2B 8819   5.180   5.843   6.852 -0.7094  0.6063  0.5642
   86CHL1   C20 8820   4.815   5.862   7.781 -0.6900 -0.2594 -0.1433
   86CHL1   H20 8821   4.774   5.965   7.769 -1.4270 -0.0966  2.9445
   86CHL1   C21 8822   4.965   5.890   7.818  0.9805 -0.5083 -0.6033
   86CHL1  H21A 8823   4.965   5.933   7.920  1.8590 -2.7398  0.4094
   86CHL1  H21B 8824   5.011   5.956   7.741 -0.0901  0.1676 -0.6937
   86CHL1  H21C 8825   5.031   5.802   7.802  0.0356 -1.1213 -1.3222
   86CHL1   C22 8826   4.744   5.799   7.898  0.1518  0.1927 -0.4854
   86CHL1  H22A 8827   4.641   5.769   7.869 -0.4360  0.9688  0.7315
   86CHL1  H22B 8828   4.800   5.713   7.941  0.3619 -0.2306 -1.5694
   86CHL1   C23 8829   4.705   5.901   8.014 -0.0254  1.0358 -0.4377
   86CHL1  H23A 8830   4.800   5.942   8.053  0.8640 -0.9895 -0.3463
   86CHL1  H23B 8831   4.635   5.976   7.973  0.2421  0.8302 -1.2913
   86CHL1   C24 8832   4.639   5.820   8.132  0.0739 -0.5887  0.7264
   86CHL1  H24A 8833   4.581   5.891   8.194  1.5109 -0.8574  2.4559
   86CHL1  H24B 8834   4.566   5.748   8.090 -0.6986  0.6292 -0.1040
   86CHL1   C25 8835   4.742   5.737   8.210  0.4328  0.0824  0.1366
   86CHL1   H25 8836   4.800   5.674   8.138  2.3426  0.5996  1.1541
   86CHL1   C26 8837   4.837   5.821   8.286 -0.0386 -0.4207 -0.1767
   86CHL1  H26A 8838   4.912   5.750   8.326 -0.3630 -1.3383 -1.1698
   86CHL1  H26B 8839   4.891   5.892   8.221 -1.4424 -0.9330 -2.0010
   86CHL1  H26C 8840   4.786   5.873   8.370 -0.6417 -0.1043 -0.7268
   86CHL1   C27 8841   4.659   5.642   8.300 -0.2083 -0.0554 -0.7351
   86CHL1  H27A 8842   4.625   5.691   8.394  0.1659 -0.2994 -0.4691
   86CHL1  H27B 8843   4.573   5.589   8.253  0.0173  0.4918 -1.7983
   86CHL1  H27C 8844   4.728   5.564   8.337  0.7693  0.5101 -1.3357
   87CHL1    C3 8845   5.776   3.738   7.009  0.2751  0.1649  0.1767
   87CHL1    H3 8846   5.727   3.643   7.041  2.0860 -1.2334 -0.9749
   87CHL1    O3 8847   5.814   3.729   6.868  0.1432 -0.0715 -0.5606
   87CHL1   H3' 8848   5.892   3.673   6.878 -0.6074 -1.5983 -2.6960
   87CHL1    C4 8849   5.682   3.856   7.031 -0.2364  0.1150  0.0291
   87CHL1   H4A 8850   5.742   3.944   6.996  1.1822 -0.0040  2.0075
   87CHL1   H4B 8851   5.597   3.849   6.959  0.5317  0.5463 -0.9566
   87CHL1    C5 8852   5.632   3.873   7.175 -0.4740  0.4184  0.2642
   87CHL1    C6 8853   5.503   3.864   7.205 -0.3698  0.9336 -0.0516
   87CHL1    H6 8854   5.425   3.853   7.128 -2.1109  2.0878  1.4653
   87CHL1    C7 8855   5.455   3.871   7.347  0.7608  0.1858  0.6936
   87CHL1   H7A 8856   5.368   3.938   7.361  1.0992  0.3514  2.1706
   87CHL1   H7B 8857   5.415   3.773   7.381 -0.2776  0.4686  0.3275
   87CHL1    C8 8858   5.555   3.931   7.448 -0.4025 -0.8204 -0.3363
   87CHL1    H8 8859   5.569   4.037   7.420 -0.7963 -1.2447 -2.3082
   87CHL1   C14 8860   5.502   3.933   7.594  0.1920  0.5542 -0.2496
   87CHL1   H14 8861   5.488   3.824   7.609  0.0541  0.7442  1.1314
   87CHL1   C15 8862   5.365   4.000   7.626 -0.8131 -0.5144 -0.2981
   87CHL1  H15A 8863   5.361   4.106   7.595 -0.7035 -0.2036  0.7387
   87CHL1  H15B 8864   5.280   3.952   7.573 -2.3620  0.9194  0.7916
   87CHL1   C16 8865   5.366   3.997   7.775 -0.5018  0.7347 -0.0234
   87CHL1  H16A 8866   5.342   4.095   7.820 -2.1350  0.2959  0.1124
   87CHL1  H16B 8867   5.296   3.924   7.821 -1.4045  0.6450 -1.4681
   87CHL1   C17 8868   5.511   3.959   7.821 -0.5732  0.5634  0.1290
   87CHL1   H17 8869   5.507   3.849   7.838 -1.4334  0.4495 -0.6930
   87CHL1   C13 8870   5.605   3.978   7.695  0.6774  0.6303  0.4237
   87CHL1   C18 8871   5.625   4.126   7.674  0.1740 -0.0283 -0.5449
   87CHL1  H18A 8872   5.534   4.190   7.686  1.8299  2.2768  0.4885
   87CHL1  H18B 8873   5.695   4.175   7.745 -1.8706 -0.7660  2.1438
   87CHL1  H18C 8874   5.664   4.146   7.572  2.1587  1.0759  0.3862
   87CHL1   C12 8875   5.726   3.883   7.682  0.3860  0.7861  0.9785
   87CHL1  H12A 8876   5.811   3.906   7.750 -1.2081 -1.1335  3.8181
   87CHL1  H12B 8877   5.700   3.778   7.705  0.8394  0.5056  0.2379
   87CHL1   C11 8878   5.788   3.898   7.541  0.0221  0.6114  0.5478
   87CHL1  H11A 8879   5.831   4.000   7.532 -1.1264  1.1123  0.5563
   87CHL1  H11B 8880   5.867   3.822   7.522 -0.4940  0.2604 -0.2179
   87CHL1    C9 8881   5.693   3.857   7.430 -0.7962  0.1049 -0.6950
   87CHL1    H9 8882   5.686   3.747   7.447  1.7571 -0.1403 -0.9044
   87CHL1   C10 8883   5.749   3.881   7.279  0.7785 -0.2899  0.2915
   87CHL1   C19 8884   5.813   4.020   7.274 -0.1033 -0.2885 -0.1618
   87CHL1  H19A 8885   5.742   4.101   7.302  0.7206 -0.1480  1.7045
   87CHL1  H19B 8886   5.911   4.027   7.325 -0.3012 -2.6066  0.6394
   87CHL1  H19C 8887   5.842   4.036   7.168  1.5275  0.4178  0.3594
   87CHL1    C1 8888   5.852   3.775   7.253 -0.7862 -0.2602  0.2844
   87CHL1   H1A 8889   5.940   3.810   7.311 -0.1929  1.7252 -1.7148
   87CHL1   H1B 8890   5.814   3.676   7.288 -1.0116 -0.9867 -1.8672
   87CHL1    C2 8891   5.893   3.746   7.105 -0.6329  0.3079 -0.2828
   87CHL1   H2A 8892   5.955   3.656   7.085  0.2541  0.8174  0.1245
   87CHL1   H2B 8893   5.944   3.842   7.087 -1.6602  0.8893 -0.2004
   87CHL1   C20 8894   5.552   4.029   7.954  0.2537 -0.2100  0.0197
   87CHL1   H20 8895   5.553   4.140   7.948 -2.7111 -0.1846 -2.0956
   87CHL1   C21 8896   5.694   3.978   7.998  0.2672 -0.2554  0.5764
   87CHL1  H21A 8897   5.696   3.867   7.994 -1.8301 -0.3004 -0.2201
   87CHL1  H21B 8898   5.707   4.027   8.097  0.6666  2.2991 -0.6567
   87CHL1  H21C 8899   5.773   4.015   7.929 -0.5826 -0.4130 -0.4966
   87CHL1   C22 8900   5.454   3.988   8.072 -0.3012  0.0583 -0.3660
   87CHL1  H22A 8901   5.353   4.019   8.039 -0.2324 -0.7707 -1.4095
   87CHL1  H22B 8902   5.455   3.877   8.082 -1.1665 -0.0158 -1.0366
   87CHL1   C23 8903   5.479   4.072   8.198 -0.5739 -0.7057 -0.8188
   87CHL1  H23A 8904   5.554   4.021   8.262 -2.2313  0.6575  2.4539
   87CHL1  H23B 8905   5.524   4.167   8.161  1.8578 -0.8632  1.4315
   87CHL1   C24 8906   5.359   4.092   8.295 -0.0960 -0.5357 -0.0965
   87CHL1  H24A 8907   5.277   4.152   8.249 -2.8722 -2.9781  1.3016
   87CHL1  H24B 8908   5.315   3.995   8.324 -1.5692  0.0780 -0.1956
   87CHL1   C25 8909   5.397   4.163   8.425  0.1115 -0.4120 -0.4532
   87CHL1   H25 8910   5.303   4.191   8.477  0.6237  0.6665 -0.0659
   87CHL1   C26 8911   5.480   4.069   8.515 -0.2311  0.2525 -0.1036
   87CHL1  H26A 8912   5.587   4.084   8.490 -0.3838  1.3347 -0.1401
   87CHL1  H26B 8913   5.461   4.098   8.621  0.4947  1.1765 -0.2216
   87CHL1  H26C 8914   5.446   3.964   8.500 -1.1364  0.1457  2.1604
   87CHL1   C27 8915   5.474   4.294   8.399  0.3891  0.0277  0.0888
   87CHL1  H27A 8916   5.489   4.350   8.494  1.3266 -1.7153  1.0299
   87CHL1  H27B 8917   5.578   4.267   8.368  0.1791 -1.2196  0.4088
   87CHL1  H27C 8918   5.425   4.355   8.321 -3.1177 -2.1573  0.3742
   88CHL1    C3 8919   2.649   3.081   6.955 -0.4178  0.1032 -0.0514
   88CHL1    H3 8920   2.733   3.008   6.965  0.7841  1.3226 -0.9342
   88CHL1    O3 8921   2.624   3.108   6.820  0.4082  0.0357  0.7113
   88CHL1   H3' 8922   2.553   3.172   6.821  2.0738  2.0127 -0.6079
   88CHL1    C4 8923   2.520   3.024   7.019 -0.1634  0.0092 -0.1854
   88CHL1   H4A 8924   2.431   3.090   7.009 -0.7956 -0.8696 -0.5042
   88CHL1   H4B 8925   2.501   2.932   6.959  0.9853  0.1066 -0.7233
   88CHL1    C5 8926   2.544   3.006   7.169  0.4805  0.2608  0.2446
   88CHL1    C6 8927   2.540   2.888   7.226 -0.2885  0.0715  0.0025
   88CHL1    H6 8928   2.526   2.797   7.166  2.1683 -0.1788 -0.2931
   88CHL1    C7 8929   2.549   2.874   7.370 -0.0234 -0.2923 -0.1821
   88CHL1   H7A 8930   2.480   2.800   7.417 -1.6748  2.7429  2.5681
   88CHL1   H7B 8931   2.650   2.835   7.397 -0.0955  2.0524  4.4040
   88CHL1    C8 8932   2.536   3.004   7.457  0.3601 -0.5699 -0.2002
   88CHL1    H8 8933   2.429   3.029   7.447  0.6583  0.7754 -0.2185
   88CHL1   C14 8934   2.589   2.985   7.602 -0.4272  0.1813  0.3226
   88CHL1   H14 8935   2.697   2.967   7.588 -0.7886 -0.8018 -1.5506
   88CHL1   C15 8936   2.539   2.869   7.682  0.0978 -0.1896  0.8665
   88CHL1  H15A 8937   2.428   2.876   7.682  0.2061  3.2837  1.2488
   88CHL1  H15B 8938   2.577   2.771   7.647  4.1560  0.9758  1.5163
   88CHL1   C16 8939   2.598   2.899   7.818  0.0437 -0.2930  0.2785
   88CHL1  H16A 8940   2.518   2.863   7.887 -0.5215 -0.2920 -0.3567
   88CHL1  H16B 8941   2.693   2.842   7.822 -1.9260 -4.1112 -1.5937
   88CHL1   C17 8942   2.626   3.048   7.826  0.1831  0.8415 -0.3693
   88CHL1   H17 8943   2.736   3.056   7.825  0.3592 -1.0965 -0.2126
   88CHL1   C13 8944   2.573   3.108   7.684  0.2978 -0.1669 -0.5656
   88CHL1   C18 8945   2.422   3.147   7.704 -0.1485  0.1055  0.7289
   88CHL1  H18A 8946   2.377   3.180   7.608  1.5003  0.3593 -0.0037
   88CHL1  H18B 8947   2.358   3.067   7.747 -1.0270 -0.7697 -2.0141
   88CHL1  H18C 8948   2.421   3.239   7.767 -1.0704  1.2902 -0.9513
   88CHL1   C12 8949   2.655   3.223   7.621 -0.5288  0.7854 -0.1271
   88CHL1  H12A 8950   2.654   3.320   7.675 -1.2488  0.6888  0.0357
   88CHL1  H12B 8951   2.763   3.196   7.616 -0.3626  1.0888  1.4705
   88CHL1   C11 8952   2.613   3.254   7.478  0.3404  0.2268 -0.2749
   88CHL1  H11A 8953   2.510   3.297   7.482 -0.2675 -1.1009 -0.9803
   88CHL1  H11B 8954   2.682   3.337   7.450  1.4757 -0.8614 -0.7858
   88CHL1    C9 8955   2.606   3.123   7.392  0.6333  0.0156  0.1699
   88CHL1    H9 8956   2.711   3.088   7.392  0.5588 -0.3016  1.5121
   88CHL1   C10 8957   2.569   3.144   7.240 -0.5735  0.5794  0.9311
   88CHL1   C19 8958   2.459   3.251   7.240  0.2710 -0.0766 -0.7232
   88CHL1  H19A 8959   2.370   3.214   7.296  0.9879 -1.6771 -0.5930
   88CHL1  H19B 8960   2.494   3.352   7.270 -0.3013  0.2417 -1.1185
   88CHL1  H19C 8961   2.426   3.270   7.136 -2.5629  2.3435  0.4822
   88CHL1    C1 8962   2.693   3.211   7.170  0.2910  0.4168  0.0834
   88CHL1   H1A 8963   2.702   3.312   7.217  0.3635  1.4873 -2.0815
   88CHL1   H1B 8964   2.787   3.156   7.189 -1.2608 -1.9919  1.2444
   88CHL1    C2 8965   2.682   3.221   7.016  0.5282  0.3531  0.0427
   88CHL1   H2A 8966   2.779   3.263   6.981  0.8542  0.3205  0.8856
   88CHL1   H2B 8967   2.598   3.291   6.996 -1.1649 -1.7439 -0.5172
   88CHL1   C20 8968   2.596   3.112   7.960 -0.6960 -0.6066 -0.0795
   88CHL1   H20 8969   2.489   3.105   7.988 -0.1755 -0.2096  2.2500
   88CHL1   C21 8970   2.649   3.259   7.954  0.5253  0.7888 -0.2482
   88CHL1  H21A 8971   2.756   3.252   7.923  0.2337 -1.2848 -0.9797
   88CHL1  H21B 8972   2.646   3.308   8.053  3.0652 -0.2090  0.4064
   88CHL1  H21C 8973   2.587   3.319   7.884 -0.5585 -0.0209 -0.0147
   88CHL1   C22 8974   2.669   3.031   8.075 -0.0984 -0.9241  0.1269
   88CHL1  H22A 8975   2.639   2.924   8.069 -1.2648 -0.5830 -0.4013
   88CHL1  H22B 8976   2.778   3.024   8.057 -0.1054  0.7502 -0.7333
   88CHL1   C23 8977   2.650   3.101   8.215 -0.2783  0.8946  0.7290
   88CHL1  H23A 8978   2.712   3.193   8.211  0.8753  0.1674  1.5021
   88CHL1  H23B 8979   2.541   3.121   8.232 -0.1636  0.2841  2.3440
   88CHL1   C24 8980   2.699   3.019   8.335  0.8558 -0.0128  0.0149
   88CHL1  H24A 8981   2.643   2.926   8.358  0.4186 -0.3735 -2.2956
   88CHL1  H24B 8982   2.799   2.977   8.313  1.8497  1.7729  0.8877
   88CHL1   C25 8983   2.699   3.102   8.469 -0.4713  0.4572  0.0352
   88CHL1   H25 8984   2.618   3.178   8.466 -0.6793  0.2215 -0.7977
   88CHL1   C26 8985   2.674   3.016   8.601 -0.6661 -0.0644  1.2383
   88CHL1  H26A 8986   2.769   2.964   8.625 -0.9859 -0.5585  1.4322
   88CHL1  H26B 8987   2.650   3.091   8.680 -0.7555  1.3193 -0.0484
   88CHL1  H26C 8988   2.594   2.942   8.578  0.9543 -1.5451  0.1231
   88CHL1   C27 8989   2.837   3.174   8.478  0.1828  0.1848 -0.7208
   88CHL1  H27A 8990   2.843   3.258   8.406 -1.7987  0.4514 -0.6376
   88CHL1  H27B 8991   2.833   3.218   8.580  1.7590  1.3092 -1.1210
   88CHL1  H27C 8992   2.917   3.098   8.464 -0.2246 -0.2412 -0.7826
   89CHL1    C3 8993   5.768   4.930   7.067 -0.6022 -0.0237  0.2430
   89CHL1    H3 8994   5.819   5.028   7.052 -0.5735  0.1483  1.3355
   89CHL1    O3 8995   5.786   4.845   6.949 -0.4164  0.9612 -0.5908
   89CHL1   H3' 8996   5.749   4.762   6.979  1.9473  0.5894  1.5958
   89CHL1    C4 8997   5.837   4.852   7.184  0.8509 -0.3759  0.2295
   89CHL1   H4A 8998   5.827   4.742   7.191  1.7966 -0.3753  1.9355
   89CHL1   H4B 8999   5.946   4.857   7.167  0.4872 -0.5829 -2.7374
   89CHL1    C5 9000   5.801   4.917   7.314  0.2807  0.1021 -0.4761
   89CHL1    C6 9001   5.893   4.946   7.402 -0.6492 -0.1472 -0.4307
   89CHL1    H6 9002   6.002   4.934   7.386 -0.4389  0.2009  0.6866
   89CHL1    C7 9003   5.872   5.011   7.538 -0.1944  0.2780  0.1243
   89CHL1   H7A 9004   5.940   4.969   7.615  0.4637 -0.2010 -0.6930
   89CHL1   H7B 9005   5.886   5.121   7.535  0.8858  0.1299 -1.8847
   89CHL1    C8 9006   5.728   4.978   7.588 -0.4795 -0.4993  0.1459
   89CHL1    H8 9007   5.720   4.873   7.625  0.1212  0.4136  3.1049
   89CHL1   C14 9008   5.696   5.066   7.707  0.2104  0.0788  0.2024
   89CHL1   H14 9009   5.698   5.171   7.671 -3.7398  1.3718  3.0803
   89CHL1   C15 9010   5.793   5.051   7.823 -0.8092 -0.1870  0.4862
   89CHL1  H15A 9011   5.815   4.945   7.844  0.4116  0.1669  1.1013
   89CHL1  H15B 9012   5.881   5.119   7.812 -1.2609  0.6613  1.8594
   89CHL1   C16 9013   5.712   5.096   7.943  0.1098  0.4616 -0.7451
   89CHL1  H16A 9014   5.714   5.013   8.018  1.4178  1.2214  0.0980
   89CHL1  H16B 9015   5.753   5.181   8.001  0.5220 -1.3237  1.7695
   89CHL1   C17 9016   5.570   5.130   7.891  1.2266  0.0489  0.1898
   89CHL1   H17 9017   5.582   5.234   7.855 -0.7601 -0.5143 -2.2995
   89CHL1   C13 9018   5.559   5.048   7.762  0.3828  0.6309  0.3957
   89CHL1   C18 9019   5.536   4.899   7.810 -0.1669 -0.2848  0.1559
   89CHL1  H18A 9020   5.439   4.900   7.865 -1.4756  0.4515 -2.0639
   89CHL1  H18B 9021   5.513   4.828   7.729 -0.7145  0.6760 -0.5472
   89CHL1  H18C 9022   5.623   4.857   7.865 -0.4859  0.0979  0.9797
   89CHL1   C12 9023   5.446   5.069   7.650  0.0675 -0.6161  0.1919
   89CHL1  H12A 9024   5.350   5.043   7.700  0.3423  0.6851  1.4783
   89CHL1  H12B 9025   5.436   5.176   7.625 -0.4385 -0.2228  1.9025
   89CHL1   C11 9026   5.474   4.992   7.524 -0.1444  0.1638 -0.4881
   89CHL1  H11A 9027   5.433   4.891   7.545  0.4923  0.0847  0.4536
   89CHL1  H11B 9028   5.408   5.029   7.443  1.3076 -0.4724 -1.9913
   89CHL1    C9 9029   5.627   5.012   7.478 -0.9024 -0.1042  0.1193
   89CHL1    H9 9030   5.639   5.119   7.451  1.5495 -0.3468  0.0615
   89CHL1   C10 9031   5.655   4.937   7.343  0.3339 -0.3159 -0.0071
   89CHL1   C19 9032   5.596   4.793   7.359  0.1607  0.1326  0.1927
   89CHL1  H19A 9033   5.619   4.721   7.278  2.8809  0.9701  0.1249
   89CHL1  H19B 9034   5.629   4.764   7.461  0.4766 -1.6856 -0.3848
   89CHL1  H19C 9035   5.486   4.804   7.375 -0.0944  1.0047 -1.8703
   89CHL1    C1 9036   5.597   5.018   7.231 -0.3654  1.0454 -0.2326
   89CHL1   H1A 9037   5.490   5.032   7.259  0.2437  2.7239  1.5443
   89CHL1   H1B 9038   5.647   5.117   7.239 -1.0060  1.2660  1.6118
   89CHL1    C2 9039   5.623   4.953   7.095  0.0929 -0.0705  1.0183
   89CHL1   H2A 9040   5.582   5.007   7.006 -0.4120 -0.2377  1.1435
   89CHL1   H2B 9041   5.573   4.854   7.099  0.0450 -0.3852 -3.1362
   89CHL1   C20 9042   5.455   5.136   8.001 -0.4393 -0.1456  0.1608
   89CHL1   H20 9043   5.438   5.033   8.041 -0.7096 -0.0069  0.4054
   89CHL1   C21 9044   5.316   5.185   7.936 -0.4833  0.1601 -0.5160
   89CHL1  H21A 9045   5.333   5.277   7.876  0.3027 -0.9316 -2.0425
   89CHL1  H21B 9046   5.244   5.217   8.014 -0.8864 -0.7415 -0.5082
   89CHL1  H21C 9047   5.284   5.099   7.874  2.1122 -0.5296 -1.0171
   89CHL1   C22 9048   5.506   5.225   8.125 -0.4288  0.0166 -0.1099
   89CHL1  H22A 9049   5.597   5.175   8.164 -1.2323 -0.5680  1.0861
   89CHL1  H22B 9050   5.540   5.327   8.099  0.0599  0.0009  0.4465
   89CHL1   C23 9051   5.407   5.225   8.246 -1.1988 -0.2856 -0.0867
   89CHL1  H23A 9052   5.307   5.271   8.227 -0.9761 -0.7583 -2.7873
   89CHL1  H23B 9053   5.391   5.118   8.268  1.7432 -0.3295  2.5201
   89CHL1   C24 9054   5.462   5.285   8.378  0.6325 -0.1161 -0.2700
   89CHL1  H24A 9055   5.544   5.216   8.409 -2.1837 -2.7155  1.9881
   89CHL1  H24B 9056   5.503   5.387   8.359  2.7912 -0.7015  0.8607
   89CHL1   C25 9057   5.361   5.295   8.504  0.5991  0.5568  0.3368
   89CHL1   H25 9058   5.264   5.327   8.461  2.0159  0.2665 -3.4521
   89CHL1   C26 9059   5.346   5.154   8.559  0.4085  0.4388  0.1138
   89CHL1  H26A 9060   5.442   5.118   8.602 -0.3453 -2.7323 -0.6589
   89CHL1  H26B 9061   5.265   5.148   8.635  0.6817 -0.4653  0.3401
   89CHL1  H26C 9062   5.322   5.082   8.478  1.7519 -1.0947  1.0069
   89CHL1   C27 9063   5.409   5.408   8.600 -0.1851 -0.3274  0.0954
   89CHL1  H27A 9064   5.325   5.417   8.672 -1.4580  0.2912 -1.3913
   89CHL1  H27B 9065   5.505   5.377   8.647 -0.5052 -1.9007 -0.2223
   89CHL1  H27C 9066   5.415   5.508   8.553 -0.9835 -1.2472 -2.1516
   90CHL1    C3 9067   5.369   0.441   7.028 -0.1660 -0.2591  0.8710
   90CHL1    H3 9068   5.460   0.500   7.052 -0.3539  0.2698  0.3054
   90CHL1    O3 9069   5.367   0.396   6.894 -0.0112  0.5322  0.0236
   90CHL1   H3' 9070   5.375   0.482   6.850  2.4181  0.3795  0.0469
   90CHL1    C4 9071   5.362   0.316   7.116 -0.4963 -0.1508  0.2233
   90CHL1   H4A 9072   5.291   0.245   7.069 -1.1269  1.2570 -1.0387
   90CHL1   H4B 9073   5.465   0.276   7.113  0.8630  2.8075  1.9913
   90CHL1    C5 9074   5.334   0.331   7.262  0.2333  0.1153 -0.6296
   90CHL1    C6 9075   5.416   0.285   7.360  0.5937  0.5518  0.1853
   90CHL1    H6 9076   5.501   0.221   7.332  0.9915  0.8208  0.7788
   90CHL1    C7 9077   5.397   0.304   7.513 -1.0628  0.1634 -0.4014
   90CHL1   H7A 9078   5.402   0.212   7.575 -0.4356  1.1146  1.0116
   90CHL1   H7B 9079   5.477   0.371   7.553 -0.9679 -0.7293  0.9581
   90CHL1    C8 9080   5.253   0.349   7.540  0.3944 -0.7921  0.9373
   90CHL1    H8 9081   5.184   0.265   7.516  0.1053  0.3028 -2.6047
   90CHL1   C14 9082   5.249   0.402   7.686  0.6130 -0.5721  0.2445
   90CHL1   H14 9083   5.331   0.476   7.696  0.1445 -0.0733  0.4478
   90CHL1   C15 9084   5.270   0.299   7.796 -0.4163  0.3981  0.0110
   90CHL1  H15A 9085   5.202   0.215   7.772  1.4798 -0.7799 -1.5186
   90CHL1  H15B 9086   5.373   0.257   7.798 -0.7686 -0.4780  0.0773
   90CHL1   C16 9087   5.220   0.368   7.923  0.3860 -0.4472  0.1202
   90CHL1  H16A 9088   5.153   0.295   7.975  0.3352 -0.0876  0.5693
   90CHL1  H16B 9089   5.307   0.410   7.978 -0.3758  1.8616 -0.3228
   90CHL1   C17 9090   5.147   0.492   7.870  0.1372 -0.6052 -0.0758
   90CHL1   H17 9091   5.221   0.575   7.871 -0.7791  0.2468 -0.6334
   90CHL1   C13 9092   5.113   0.471   7.723 -1.2786  0.3077 -0.0789
   90CHL1   C18 9093   4.988   0.377   7.718 -0.0097  0.4506 -0.2476
   90CHL1  H18A 9094   4.973   0.317   7.810 -0.9316 -0.3186 -0.8840
   90CHL1  H18B 9095   4.900   0.444   7.703  0.7781  1.5488 -0.1099
   90CHL1  H18C 9096   4.996   0.300   7.638 -1.1075 -2.1720  2.0227
   90CHL1   C12 9097   5.094   0.589   7.637  0.2405  0.4180 -0.2018
   90CHL1  H12A 9098   4.996   0.641   7.642 -1.1216 -1.8346 -1.5547
   90CHL1  H12B 9099   5.168   0.669   7.659  1.5263 -1.1123  1.4154
   90CHL1   C11 9100   5.098   0.548   7.488  0.0855  0.3542 -0.0260
   90CHL1  H11A 9101   5.005   0.489   7.472  1.3674 -1.2248 -2.1438
   90CHL1  H11B 9102   5.076   0.644   7.436 -2.8660  0.7502  1.7483
   90CHL1    C9 9103   5.214   0.461   7.445 -0.1814 -0.3512  0.0607
   90CHL1    H9 9104   5.301   0.530   7.444  1.1910 -1.9729 -2.7799
   90CHL1   C10 9105   5.209   0.421   7.295  0.3085 -0.6264 -0.1844
   90CHL1   C19 9106   5.076   0.348   7.262  0.3419  0.8228  0.0471
   90CHL1  H19A 9107   5.080   0.303   7.161 -1.4543  1.9885 -0.5828
   90CHL1  H19B 9108   5.069   0.273   7.343 -0.6461  2.4325  1.5356
   90CHL1  H19C 9109   4.988   0.416   7.264 -1.3129 -1.2422  0.1643
   90CHL1    C1 9110   5.221   0.548   7.204  0.4774  0.0671  0.5704
   90CHL1   H1A 9111   5.123   0.599   7.215  0.1335 -0.5621  0.4295
   90CHL1   H1B 9112   5.293   0.625   7.240 -1.4235  1.8254  0.7679
   90CHL1    C2 9113   5.243   0.526   7.059  0.3539  0.0142  0.4481
   90CHL1   H2A 9114   5.245   0.623   7.005 -0.7424 -1.4046 -2.3794
   90CHL1   H2B 9115   5.160   0.482   7.000  0.6731 -0.7678  0.5705
   90CHL1   C20 9116   5.041   0.542   7.973  0.0001  0.3750  0.3698
   90CHL1   H20 9117   4.971   0.458   7.987  0.9905 -0.2810  1.6845
   90CHL1   C21 9118   4.972   0.670   7.927  0.1560  0.1981  0.1489
   90CHL1  H21A 9119   4.895   0.695   8.003 -1.4917  0.6501 -1.5736
   90CHL1  H21B 9120   4.908   0.664   7.836  1.2104  1.4516 -0.7228
   90CHL1  H21C 9121   5.044   0.751   7.901 -1.6776  1.9749  0.3832
   90CHL1   C22 9122   5.091   0.570   8.117  0.1529 -0.4794 -1.0146
   90CHL1  H22A 9123   5.171   0.494   8.130  2.3417  1.7578 -0.5787
   90CHL1  H22B 9124   5.143   0.668   8.112 -1.6023  0.4765 -1.4438
   90CHL1   C23 9125   4.987   0.563   8.234  0.0053  0.7402  0.7078
   90CHL1  H23A 9126   4.895   0.619   8.210 -1.1819 -0.8646  1.3114
   90CHL1  H23B 9127   4.957   0.456   8.236 -1.4406  1.0992 -0.8117
   90CHL1   C24 9128   5.034   0.596   8.380  0.1016  0.2531  0.6677
   90CHL1  H24A 9129   5.120   0.532   8.408 -0.9907 -1.7929 -0.3903
   90CHL1  H24B 9130   5.064   0.702   8.371  2.2024 -0.2783  1.0635
   90CHL1   C25 9131   4.919   0.571   8.481 -0.4740 -0.0404 -0.1996
   90CHL1   H25 9132   4.875   0.475   8.445  1.4918  0.1364 -3.5023
   90CHL1   C26 9133   4.970   0.579   8.623 -0.6268  0.4336 -0.2463
   90CHL1  H26A 9134   5.051   0.508   8.648 -0.0607  1.0752 -0.2318
   90CHL1  H26B 9135   5.003   0.683   8.643  1.9628 -0.4995  0.8067
   90CHL1  H26C 9136   4.893   0.559   8.701 -0.6180  0.6533 -0.1807
   90CHL1   C27 9137   4.813   0.679   8.473 -0.1302  0.3709  0.3070
   90CHL1  H27A 9138   4.849   0.777   8.508  0.5710 -0.1407  1.0332
   90CHL1  H27B 9139   4.770   0.700   8.372 -0.7762  2.2093  0.9374
   90CHL1  H27C 9140   4.727   0.646   8.536  1.4650 -0.5845  2.0783
   91CHL1    C3 9141   6.468   0.551   7.168 -0.5411 -0.5476  0.3576
   91CHL1    H3 9142   6.412   0.646   7.158 -1.4861 -1.3345 -3.1108
   91CHL1    O3 9143   6.548   0.534   7.045 -0.1671  0.0749 -0.5348
   91CHL1   H3' 9144   6.487   0.491   6.985 -0.0903  0.0227 -0.5762
   91CHL1    C4 9145   6.572   0.560   7.282  0.2848  0.1580  0.8560
   91CHL1   H4A 9146   6.655   0.490   7.261  1.9137  2.8649 -2.8076
   91CHL1   H4B 9147   6.637   0.650   7.276 -0.5915  0.6998 -1.4599
   91CHL1    C5 9148   6.516   0.536   7.420 -0.0608  0.3899  0.4906
   91CHL1    C6 9149   6.556   0.609   7.524 -0.2998  0.0984  0.4721
   91CHL1    H6 9150   6.634   0.686   7.514 -0.4266 -0.0096 -1.9803
   91CHL1    C7 9151   6.519   0.573   7.664  0.2215  0.5070  0.4618
   91CHL1   H7A 9152   6.616   0.562   7.716  0.9593  0.8746 -0.7858
   91CHL1   H7B 9153   6.461   0.652   7.717  0.4409 -0.3441  1.9962
   91CHL1    C8 9154   6.439   0.442   7.678 -0.7439  0.2324  0.7396
   91CHL1    H8 9155   6.509   0.356   7.668 -1.0318  0.2138 -1.9756
   91CHL1   C14 9156   6.380   0.433   7.818  0.2103  0.7407 -0.2976
   91CHL1   H14 9157   6.305   0.516   7.819  2.0231  2.4530  0.2587
   91CHL1   C15 9158   6.468   0.466   7.938  0.1088  0.2092 -0.1571
   91CHL1  H15A 9159   6.562   0.407   7.948  1.3413  2.3553  2.0525
   91CHL1  H15B 9160   6.483   0.575   7.949  0.8419  0.3036 -1.7848
   91CHL1   C16 9161   6.389   0.408   8.052  0.0399 -0.2486 -0.9485
   91CHL1  H16A 9162   6.455   0.354   8.124 -0.2969  0.6511  0.0598
   91CHL1  H16B 9163   6.349   0.495   8.108  1.4053  0.3254 -0.8195
   91CHL1   C17 9164   6.260   0.332   7.997 -0.1342 -0.8002  0.4145
   91CHL1   H17 9165   6.185   0.412   7.984  1.9392  1.1523 -0.1784
   91CHL1   C13 9166   6.304   0.303   7.852 -0.5371 -0.2219  0.6451
   91CHL1   C18 9167   6.405   0.183   7.850 -0.1048 -0.1875 -0.2838
   91CHL1  H18A 9168   6.477   0.203   7.768 -1.1465 -0.0378 -1.1685
   91CHL1  H18B 9169   6.466   0.188   7.943  0.6203  0.0763 -0.7605
   91CHL1  H18C 9170   6.357   0.083   7.846  0.8600 -0.7206  0.6441
   91CHL1   C12 9171   6.192   0.287   7.743 -0.4320 -0.0537  0.2002
   91CHL1  H12A 9172   6.134   0.194   7.758 -1.8805  1.0405  1.9146
   91CHL1  H12B 9173   6.129   0.377   7.759  1.5933  1.8709 -1.9306
   91CHL1   C11 9174   6.250   0.283   7.598  0.3153 -0.3981  0.4755
   91CHL1  H11A 9175   6.304   0.188   7.577 -0.2529 -0.3508 -1.3819
   91CHL1  H11B 9176   6.165   0.287   7.527 -0.7963 -2.0548  1.6393
   91CHL1    C9 9177   6.337   0.415   7.568  0.0426 -0.0837 -0.4179
   91CHL1    H9 9178   6.268   0.502   7.568  0.5852  0.3690  0.5141
   91CHL1   C10 9179   6.409   0.415   7.427  0.4563  0.0541  0.5094
   91CHL1   C19 9180   6.485   0.280   7.413 -0.2464  0.3439 -0.2751
   91CHL1  H19A 9181   6.539   0.283   7.316  2.5164 -2.7834  0.9482
   91CHL1  H19B 9182   6.558   0.262   7.495 -0.3210  0.1672 -0.2476
   91CHL1  H19C 9183   6.409   0.199   7.410 -0.6591  0.6490  1.1281
   91CHL1    C1 9184   6.305   0.438   7.318  0.8275 -0.5717  0.6837
   91CHL1   H1A 9185   6.226   0.361   7.318  1.0234 -0.7752  0.9267
   91CHL1   H1B 9186   6.255   0.536   7.334 -0.9288 -1.3674  0.2129
   91CHL1    C2 9187   6.370   0.434   7.173 -0.1041  0.1466  0.3693
   91CHL1   H2A 9188   6.287   0.434   7.099  0.4073  1.0701 -0.2232
   91CHL1   H2B 9189   6.417   0.335   7.156 -0.8391 -0.0728 -0.4526
   91CHL1   C20 9190   6.214   0.223   8.092 -0.6272  0.0562 -0.1300
   91CHL1   H20 9191   6.290   0.142   8.094 -0.3750  0.2921  0.1121
   91CHL1   C21 9192   6.081   0.167   8.042  0.1983  1.0472  0.1992
   91CHL1  H21A 9193   6.005   0.248   8.035 -1.0763 -0.0499  0.8778
   91CHL1  H21B 9194   6.047   0.091   8.115 -1.0708  0.9941 -0.4113
   91CHL1  H21C 9195   6.088   0.111   7.946 -2.7887 -0.3636  0.6829
   91CHL1   C22 9196   6.192   0.278   8.241 -0.8212 -0.1105  0.5889
   91CHL1  H22A 9197   6.171   0.183   8.295 -2.6453 -1.0565 -1.5997
   91CHL1  H22B 9198   6.292   0.315   8.273  0.1144 -1.7836 -0.2353
   91CHL1   C23 9199   6.082   0.383   8.258  0.3547 -0.5335 -0.6119
   91CHL1  H23A 9200   6.112   0.483   8.218 -0.0383 -0.6223 -1.1420
   91CHL1  H23B 9201   5.984   0.342   8.227 -0.3549  0.8152 -0.2763
   91CHL1   C24 9202   6.059   0.410   8.409  0.2158 -0.2643  0.3101
   91CHL1  H24A 9203   6.049   0.309   8.453  3.1503 -0.8230 -0.1133
   91CHL1  H24B 9204   6.152   0.443   8.459  1.6097 -0.0275 -2.2798
   91CHL1   C25 9205   5.932   0.494   8.458 -0.2952 -0.1925 -0.0454
   91CHL1   H25 9206   5.938   0.584   8.393 -3.6252 -0.2729 -0.6412
   91CHL1   C26 9207   5.805   0.417   8.438 -0.5669  0.3550  0.2621
   91CHL1  H26A 9208   5.771   0.421   8.333 -0.8818  0.4396  0.3678
   91CHL1  H26B 9209   5.818   0.309   8.463 -3.1556 -0.4428 -1.4962
   91CHL1  H26C 9210   5.720   0.454   8.499 -3.5605 -0.4432 -3.1403
   91CHL1   C27 9211   5.957   0.536   8.604  0.1668 -0.7687  0.3899
   91CHL1  H27A 9212   6.063   0.568   8.618  0.0299  1.1423 -2.1428
   91CHL1  H27B 9213   5.887   0.616   8.638 -0.6339 -0.9039 -0.8669
   91CHL1  H27C 9214   5.934   0.450   8.669  0.8411 -1.0091  0.3161
   92CHL1    C3 9215   1.976   1.905   6.777  0.6071 -0.2994  0.0301
   92CHL1    H3 9216   1.899   1.846   6.832 -1.6674  0.4958 -2.0757
   92CHL1    O3 9217   1.965   1.875   6.643 -1.0917  0.0711 -0.3869
   92CHL1   H3' 9218   2.017   1.947   6.605 -2.8010  1.9726  0.6512
   92CHL1    C4 9219   1.960   2.055   6.805 -0.8138  0.6981 -0.6959
   92CHL1   H4A 9220   2.045   2.105   6.753 -1.9844  2.5762 -0.8891
   92CHL1   H4B 9221   1.869   2.092   6.753  0.2805  1.7655 -1.9557
   92CHL1    C5 9222   1.962   2.075   6.957  0.1567 -0.2605  1.2288
   92CHL1    C6 9223   1.863   2.133   7.018  0.6689  0.6259  0.7459
   92CHL1    H6 9224   1.777   2.170   6.961 -0.9140 -2.0180  1.3031
   92CHL1    C7 9225   1.864   2.176   7.163 -0.7528  0.2360  0.2310
   92CHL1   H7A 9226   1.840   2.282   7.186 -2.2071  0.2271 -1.0608
   92CHL1   H7B 9227   1.786   2.113   7.212 -1.7081  1.2618  0.0894
   92CHL1    C8 9228   2.009   2.154   7.225  0.1199  0.0021 -0.0170
   92CHL1    H8 9229   2.054   2.250   7.191 -2.2831  1.1156 -0.2499
   92CHL1   C14 9230   1.997   2.141   7.374 -0.8748  0.3102  0.5750
   92CHL1   H14 9231   1.938   2.049   7.395 -0.4313 -1.1245 -3.5023
   92CHL1   C15 9232   1.921   2.254   7.433 -0.0939 -0.0072 -0.1162
   92CHL1  H15A 9233   1.960   2.346   7.384  1.6228  0.6306  2.2453
   92CHL1  H15B 9234   1.810   2.251   7.424 -0.0947  0.2834 -0.2313
   92CHL1   C16 9235   1.967   2.260   7.584 -0.0427 -0.4026  0.4519
   92CHL1  H16A 9236   1.993   2.366   7.606 -1.2069  0.2973 -1.3075
   92CHL1  H16B 9237   1.890   2.229   7.658  1.8099 -0.6954  2.3399
   92CHL1   C17 9238   2.087   2.152   7.587 -0.9437 -0.2109 -0.0800
   92CHL1   H17 9239   2.037   2.060   7.625  0.6261 -0.0296  2.6713
   92CHL1   C13 9240   2.133   2.131   7.445 -0.5572 -0.4695 -0.0030
   92CHL1   C18 9241   2.227   2.241   7.406 -0.0700  0.1316  0.1320
   92CHL1  H18A 9242   2.183   2.335   7.445  0.2356  0.0814  0.6026
   92CHL1  H18B 9243   2.325   2.224   7.456  0.7880  0.1279 -1.5087
   92CHL1  H18C 9244   2.248   2.250   7.298 -0.3829 -2.0715 -0.1484
   92CHL1   C12 9245   2.198   1.999   7.406  0.4426  0.8207 -0.1802
   92CHL1  H12A 9246   2.299   1.985   7.451  0.7592  3.0781 -0.0697
   92CHL1  H12B 9247   2.135   1.919   7.449  0.2756  0.1315 -1.6443
   92CHL1   C11 9248   2.211   1.995   7.249  0.4658  0.1177 -0.6709
   92CHL1  H11A 9249   2.289   2.070   7.225  2.3119 -1.4499  0.1712
   92CHL1  H11B 9250   2.257   1.900   7.214  0.0101 -0.0020 -0.9523
   92CHL1    C9 9251   2.078   2.033   7.173  0.4553  0.3579  0.7791
   92CHL1    H9 9252   2.013   1.946   7.196 -1.5429  0.6993 -2.8774
   92CHL1   C10 9253   2.090   2.025   7.021 -0.6274  0.4141 -0.0311
   92CHL1   C19 9254   2.208   2.116   6.975 -0.5871 -0.6520 -0.0877
   92CHL1  H19A 9255   2.185   2.224   6.989 -1.9780 -1.1918  2.4717
   92CHL1  H19B 9256   2.303   2.083   7.021  1.0432 -0.2821 -2.9849
   92CHL1  H19C 9257   2.231   2.116   6.867  1.3701  0.8220  0.2767
   92CHL1    C1 9258   2.125   1.880   6.977  0.3338 -0.3295  0.4870
   92CHL1   H1A 9259   2.226   1.852   7.013  1.1612 -0.2423 -1.6272
   92CHL1   H1B 9260   2.056   1.813   7.031  0.5947 -0.8567  0.1763
   92CHL1    C2 9261   2.114   1.857   6.823  0.7966  0.0644 -0.8175
   92CHL1   H2A 9262   2.133   1.748   6.813  1.4956  0.3363 -3.0081
   92CHL1   H2B 9263   2.196   1.920   6.783  0.7015  2.5019  2.3686
   92CHL1   C20 9264   2.192   2.176   7.693 -0.6091 -0.4313 -0.5215
   92CHL1   H20 9265   2.266   2.250   7.655 -1.7180 -0.0291 -1.9963
   92CHL1   C21 9266   2.264   2.050   7.734 -0.3955 -0.1769 -0.4947
   92CHL1  H21A 9267   2.335   2.069   7.818 -2.7569 -1.9756  2.1276
   92CHL1  H21B 9268   2.323   2.010   7.649  0.9685  2.4769 -0.8779
   92CHL1  H21C 9269   2.187   1.980   7.774  0.6759 -0.3650  1.3526
   92CHL1   C22 9270   2.132   2.245   7.819 -0.3491 -0.3516  0.2288
   92CHL1  H22A 9271   2.089   2.343   7.789  0.7414  0.1853  0.3659
   92CHL1  H22B 9272   2.048   2.179   7.848 -0.8564  0.1749 -0.0288
   92CHL1   C23 9273   2.217   2.282   7.941 -0.2121  0.0885  0.1202
   92CHL1  H23A 9274   2.245   2.184   7.985 -1.0184 -0.3976 -0.4233
   92CHL1  H23B 9275   2.300   2.347   7.906 -0.1209  0.0831  0.3257
   92CHL1   C24 9276   2.134   2.363   8.049 -0.3183 -0.3587 -0.0063
   92CHL1  H24A 9277   2.089   2.446   7.990 -0.4531 -0.4483 -0.0279
   92CHL1  H24B 9278   2.040   2.312   8.078 -0.9622  1.2457  0.8727
   92CHL1   C25 9279   2.205   2.408   8.178  1.0251 -0.0436 -0.2265
   92CHL1   H25 9280   2.312   2.434   8.161  1.6508 -0.7356  2.2355
   92CHL1   C26 9281   2.137   2.544   8.230 -1.3614  0.1510 -0.0053
   92CHL1  H26A 9282   2.158   2.625   8.158 -3.8105 -0.2131 -1.2062
   92CHL1  H26B 9283   2.027   2.532   8.241 -1.0018 -1.6626  2.5925
   92CHL1  H26C 9284   2.180   2.580   8.326  1.8743 -0.9018 -0.9177
   92CHL1   C27 9285   2.204   2.303   8.289 -0.2987  0.0002 -0.1938
   92CHL1  H27A 9286   2.285   2.309   8.364 -0.8134 -0.6482  0.4272
   92CHL1  H27B 9287   2.110   2.291   8.348  1.1044  1.5529  2.5475
   92CHL1  H27C 9288   2.222   2.209   8.232 -1.3696  0.3888 -1.2154
   93CHL1    C3 9289   0.965   0.754   6.929 -0.3872 -0.7090  0.3729
   93CHL1    H3 9290   0.883   0.829   6.933 -0.5032 -0.8499  3.8330
   93CHL1    O3 9291   1.001   0.730   6.790  0.0256 -0.3454  0.3825
   93CHL1   H3' 9292   0.917   0.704   6.750 -0.2868  0.6502  0.3549
   93CHL1    C4 9293   1.089   0.807   6.998  0.4303 -0.1898  0.0811
   93CHL1   H4A 9294   1.178   0.744   6.974  0.4370 -1.5670  3.2700
   93CHL1   H4B 9295   1.122   0.903   6.953  2.0588 -0.7824 -0.0770
   93CHL1    C5 9296   1.076   0.815   7.149 -0.4628  0.4644 -0.8250
   93CHL1    C6 9297   1.092   0.929   7.215 -0.3005 -0.5225 -0.2606
   93CHL1    H6 9298   1.122   1.016   7.156  0.1677  0.8685  1.9121
   93CHL1    C7 9299   1.084   0.954   7.364  0.2549 -0.1141 -0.2811
   93CHL1   H7A 9300   1.172   1.011   7.400 -2.0904  3.5161  0.2620
   93CHL1   H7B 9301   0.999   1.025   7.373  0.8134  0.5885 -0.4960
   93CHL1    C8 9302   1.071   0.814   7.435 -0.3344 -0.4760 -0.1183
   93CHL1    H8 9303   1.174   0.773   7.443 -0.2904 -0.2016  0.8544
   93CHL1   C14 9304   1.011   0.832   7.573 -0.9083 -0.6392 -0.3499
   93CHL1   H14 9305   0.905   0.858   7.552 -0.9987 -0.0953  0.7090
   93CHL1   C15 9306   1.079   0.937   7.660  0.4593 -0.2453  0.3514
   93CHL1  H15A 9307   1.186   0.920   7.637  0.5048  0.9617 -0.4227
   93CHL1  H15B 9308   1.054   1.042   7.634 -1.3550 -0.4109  1.2987
   93CHL1   C16 9309   1.042   0.898   7.805 -0.3427 -0.5165  0.2093
   93CHL1  H16A 9310   1.132   0.893   7.869 -0.8064 -1.5945  0.7792
   93CHL1  H16B 9311   0.978   0.982   7.840  2.0426  2.6775 -2.3726
   93CHL1   C17 9312   0.962   0.766   7.797  0.1047  0.0223  0.7675
   93CHL1   H17 9313   0.855   0.795   7.789  0.4478  1.5824  1.5366
   93CHL1   C13 9314   1.006   0.703   7.662 -0.4887 -0.6092 -0.3004
   93CHL1   C18 9315   1.149   0.640   7.676 -0.6047 -0.1573  1.3083
   93CHL1  H18A 9316   1.179   0.613   7.572  1.9141  1.2807  1.5868
   93CHL1  H18B 9317   1.229   0.703   7.721  1.3571 -1.4478 -0.1628
   93CHL1  H18C 9318   1.143   0.551   7.742  0.5090  1.1975  3.3347
   93CHL1   C12 9319   0.907   0.608   7.587  0.4263 -0.0959 -0.4779
   93CHL1  H12A 9320   0.886   0.514   7.643 -0.2580 -0.4261 -1.2644
   93CHL1  H12B 9321   0.806   0.653   7.582  0.0663 -0.7967  0.2366
   93CHL1   C11 9322   0.954   0.577   7.443 -0.4596 -0.2215 -0.4593
   93CHL1  H11A 9323   1.045   0.514   7.447  0.8173  1.6237  2.0109
   93CHL1  H11B 9324   0.876   0.524   7.385 -4.0190  2.9480  0.9672
   93CHL1    C9 9325   0.989   0.707   7.367 -0.7759 -0.0362  0.1329
   93CHL1    H9 9326   0.894   0.764   7.352  0.5953  2.2507 -0.4218
   93CHL1   C10 9327   1.036   0.685   7.214  1.2108 -0.3681  0.3906
   93CHL1   C19 9328   1.162   0.594   7.211 -0.2091  0.1554  0.0736
   93CHL1  H19A 9329   1.247   0.638   7.267 -0.1663  2.0362 -1.3763
   93CHL1  H19B 9330   1.126   0.502   7.262  0.2012 -0.2497 -0.3607
   93CHL1  H19C 9331   1.213   0.571   7.115  4.4801 -0.6736  2.4633
   93CHL1    C1 9332   0.921   0.621   7.131 -0.6154 -0.4699 -0.1855
   93CHL1   H1A 9333   0.899   0.516   7.159 -2.5639  0.2700  1.3318
   93CHL1   H1B 9334   0.822   0.669   7.145 -1.2919 -1.4302 -1.4649
   93CHL1    C2 9335   0.943   0.615   6.978 -0.0627 -0.3390 -0.1511
   93CHL1   H2A 9336   0.856   0.562   6.933 -0.6118 -0.7371  1.3324
   93CHL1   H2B 9337   1.033   0.553   6.960 -0.6625 -1.3730  0.3184
   93CHL1   C20 9338   0.979   0.681   7.919 -0.5655 -0.1068 -0.2835
   93CHL1   H20 9339   1.088   0.672   7.935 -0.9414 -1.2412  2.0183
   93CHL1   C21 9340   0.932   0.541   7.912  0.4080  0.0282  0.5410
   93CHL1  H21A 9341   0.823   0.530   7.893  0.3617 -1.3100  1.3995
   93CHL1  H21B 9342   0.956   0.502   8.014  1.2285  3.3582  1.7484
   93CHL1  H21C 9343   0.988   0.487   7.832 -0.6139  2.4070 -1.9321
   93CHL1   C22 9344   0.900   0.756   8.038 -0.0783 -0.2950 -0.0458
   93CHL1  H22A 9345   0.933   0.862   8.040  1.3945 -0.7373  2.2682
   93CHL1  H22B 9346   0.789   0.756   8.029 -0.3919  0.4215  2.7452
   93CHL1   C23 9347   0.927   0.703   8.185  0.0853 -0.2971  0.2602
   93CHL1  H23A 9348   0.870   0.608   8.192 -1.0973  0.2851 -1.0522
   93CHL1  H23B 9349   1.037   0.700   8.198  0.0904 -0.6986  0.1486
   93CHL1   C24 9350   0.870   0.787   8.300 -0.0206 -0.0433  0.2708
   93CHL1  H24A 9351   0.905   0.892   8.293 -1.8580  0.5591 -0.5374
   93CHL1  H24B 9352   0.759   0.791   8.292  0.0856  0.2332 -1.7779
   93CHL1   C25 9353   0.915   0.743   8.440  0.7329 -0.0096 -0.3788
   93CHL1   H25 9354   1.024   0.725   8.431  0.9320  0.8024  0.2956
   93CHL1   C26 9355   0.886   0.851   8.541  0.6133  0.0712  0.3055
   93CHL1  H26A 9356   0.775   0.858   8.550  0.3088 -1.3468 -1.6964
   93CHL1  H26B 9357   0.916   0.826   8.645 -1.3603 -1.9235  0.4907
   93CHL1  H26C 9358   0.924   0.950   8.510 -1.9631  0.8454 -0.6409
   93CHL1   C27 9359   0.845   0.613   8.489  0.4206 -0.4230 -0.4202
   93CHL1  H27A 9360   0.839   0.517   8.433 -1.4003  0.4551 -1.8272
   93CHL1  H27B 9361   0.886   0.597   8.591  2.3285  1.0696 -0.9025
   93CHL1  H27C 9362   0.739   0.647   8.495  0.1809 -1.0972 -0.6826
   94CHL1    C3 9363   3.651   3.524   6.919 -0.0169 -0.4187  0.9528
   94CHL1    H3 9364   3.740   3.458   6.911 -0.2323 -0.8304  1.8960
   94CHL1    O3 9365   3.620   3.563   6.780  0.4136 -0.6249 -0.0366
   94CHL1   H3' 9366   3.541   3.617   6.789  0.3607 -0.9697  2.2942
   94CHL1    C4 9367   3.537   3.442   6.995  0.5740 -0.3127  0.3250
   94CHL1   H4A 9368   3.446   3.505   6.982  0.5309 -0.4787 -0.1925
   94CHL1   H4B 9369   3.513   3.362   6.922  0.1760  0.3817 -0.3230
   94CHL1    C5 9370   3.576   3.413   7.138  0.1650  0.6392 -0.0803
   94CHL1    C6 9371   3.573   3.284   7.181 -0.2062 -0.6361  0.4960
   94CHL1    H6 9372   3.541   3.209   7.107 -0.8730  0.4309 -0.3061
   94CHL1    C7 9373   3.588   3.257   7.328  0.7678  1.0739  0.4516
   94CHL1   H7A 9374   3.513   3.182   7.362 -0.9694  2.9050  0.8695
   94CHL1   H7B 9375   3.691   3.221   7.344  1.5829  2.0424 -2.0607
   94CHL1    C8 9376   3.592   3.383   7.418 -0.1008 -0.2083 -0.0734
   94CHL1    H8 9377   3.490   3.421   7.438  0.3203  0.6009  0.6016
   94CHL1   C14 9378   3.656   3.354   7.548  0.1095  0.4111 -0.5512
   94CHL1   H14 9379   3.764   3.331   7.535  0.2235  0.7503 -0.2245
   94CHL1   C15 9380   3.609   3.216   7.618 -0.0196  1.2315  0.2097
   94CHL1  H15A 9381   3.499   3.199   7.617  0.1749 -0.3782  1.7307
   94CHL1  H15B 9382   3.667   3.133   7.572 -0.0349  1.6834 -0.6625
   94CHL1   C16 9383   3.634   3.246   7.767  0.0359 -0.2033  0.4408
   94CHL1  H16A 9384   3.534   3.238   7.813  0.9360 -1.2617  2.3338
   94CHL1  H16B 9385   3.695   3.170   7.821 -0.6599 -1.1538 -0.0833
   94CHL1   C17 9386   3.699   3.384   7.769  0.0692 -0.0756 -0.6883
   94CHL1   H17 9387   3.808   3.375   7.749  0.6112  1.6246  1.1515
   94CHL1   C13 9388   3.654   3.465   7.651 -0.4052 -0.4165  0.0199
   94CHL1   C18 9389   3.514   3.511   7.681  0.0383  0.2642  0.7441
   94CHL1  H18A 9390   3.441   3.428   7.672 -2.8029  2.6108  0.5797
   94CHL1  H18B 9391   3.499   3.564   7.777  2.2471  1.3634  0.5590
   94CHL1  H18C 9392   3.478   3.570   7.594  1.8292  0.9090  0.3982
   94CHL1   C12 9393   3.748   3.573   7.597  1.1203  0.5514  0.0571
   94CHL1  H12A 9394   3.737   3.664   7.659  2.3116  0.3555  0.5822
   94CHL1  H12B 9395   3.854   3.540   7.601  2.6091  4.8602  2.9709
   94CHL1   C11 9396   3.703   3.614   7.456 -0.5408  0.1970 -0.2549
   94CHL1  H11A 9397   3.606   3.668   7.458  0.7310  2.7807 -2.2601
   94CHL1  H11B 9398   3.777   3.684   7.411  1.1232 -1.6500 -0.5578
   94CHL1    C9 9399   3.679   3.488   7.357  0.0867 -0.0124  0.1920
   94CHL1    H9 9400   3.778   3.442   7.339  0.3330 -0.3611  2.1998
   94CHL1   C10 9401   3.617   3.533   7.222  0.2257  0.4645  0.1519
   94CHL1   C19 9402   3.484   3.623   7.245 -0.0790 -0.4236 -0.4607
   94CHL1  H19A 9403   3.513   3.724   7.281 -0.5858 -1.4381  3.1477
   94CHL1  H19B 9404   3.431   3.639   7.149  1.5573 -2.3727 -1.7709
   94CHL1  H19C 9405   3.417   3.574   7.319 -0.9476 -0.2886 -1.1347
   94CHL1    C1 9406   3.718   3.624   7.150 -0.3639 -0.2362  0.1257
   94CHL1   H1A 9407   3.745   3.718   7.202  0.8980 -0.3010 -0.3867
   94CHL1   H1B 9408   3.818   3.576   7.152  0.6674  1.4637  5.6837
   94CHL1    C2 9409   3.683   3.653   6.997 -0.0281  0.1557  0.0229
   94CHL1   H2A 9410   3.765   3.708   6.946 -1.3954  0.4654 -1.9535
   94CHL1   H2B 9411   3.595   3.721   6.992  0.7415  1.1207 -1.4258
   94CHL1   C20 9412   3.693   3.437   7.913  0.0577  0.4969  0.6233
   94CHL1   H20 9413   3.588   3.455   7.942 -0.2389  1.8735 -1.1368
   94CHL1   C21 9414   3.752   3.582   7.928  0.2563  0.6197 -0.1432
   94CHL1  H21A 9415   3.741   3.622   8.031 -0.2236 -1.1706  0.5251
   94CHL1  H21B 9416   3.700   3.657   7.865 -0.4814 -0.9265 -1.4447
   94CHL1  H21C 9417   3.858   3.578   7.893 -0.7023  0.7199 -3.3639
   94CHL1   C22 9418   3.754   3.343   8.017 -0.3524 -0.8511 -0.6004
   94CHL1  H22A 9419   3.695   3.249   8.028 -3.8672  1.0492 -1.7119
   94CHL1  H22B 9420   3.853   3.309   7.979  0.0525  0.0086 -0.3525
   94CHL1   C23 9421   3.754   3.399   8.167  0.0631  0.2502 -0.6242
   94CHL1  H23A 9422   3.820   3.488   8.173 -1.3862  1.3340 -0.3809
   94CHL1  H23B 9423   3.651   3.431   8.191  0.0652 -0.2527  0.1078
   94CHL1   C24 9424   3.783   3.292   8.277 -0.5623  0.0992  0.0651
   94CHL1  H24A 9425   3.696   3.223   8.269  0.5335 -2.0969  4.4862
   94CHL1  H24B 9426   3.878   3.240   8.255 -0.4256  0.4368 -0.1466
   94CHL1   C25 9427   3.792   3.352   8.420 -0.4131  0.4931  0.2553
   94CHL1   H25 9428   3.838   3.278   8.490 -0.1912 -0.3924 -0.8012
   94CHL1   C26 9429   3.899   3.467   8.426  0.9990 -0.5612 -0.5697
   94CHL1  H26A 9430   3.877   3.560   8.368 -0.2926 -0.7134 -0.3450
   94CHL1  H26B 9431   3.907   3.509   8.529  0.8403  0.3012 -0.8946
   94CHL1  H26C 9432   3.996   3.437   8.382 -0.3122 -1.8010 -2.8463
   94CHL1   C27 9433   3.658   3.399   8.470  0.0964  0.4995  0.1424
   94CHL1  H27A 9434   3.683   3.451   8.565  3.6906 -0.5280 -0.0982
   94CHL1  H27B 9435   3.607   3.470   8.402 -0.1110 -0.0251 -0.2621
   94CHL1  H27C 9436   3.594   3.311   8.495  0.5029  0.5235  1.3219
   95CHL1    C3 9437   4.170   2.545   6.671 -0.4695  0.8322  0.8747
   95CHL1    H3 9438   4.135   2.448   6.629 -0.4392  1.3201 -0.2892
   95CHL1    O3 9439   4.220   2.601   6.554  0.2219 -0.2608 -0.2009
   95CHL1   H3' 9440   4.277   2.531   6.521  0.0505  0.2108 -1.5475
   95CHL1    C4 9441   4.046   2.622   6.737 -0.2966  0.8035  0.3101
   95CHL1   H4A 9442   4.070   2.729   6.757 -0.0259  0.7193  0.4431
   95CHL1   H4B 9443   3.972   2.632   6.655 -0.8699 -2.6555  0.2561
   95CHL1    C5 9444   4.001   2.561   6.872  0.3798 -0.1261 -1.1893
   95CHL1    C6 9445   3.877   2.504   6.874  0.2726  0.5297 -0.6145
   95CHL1    H6 9446   3.812   2.512   6.786 -1.1687 -1.1440  0.2344
   95CHL1    C7 9447   3.839   2.432   6.998  0.4774 -0.2433  0.4729
   95CHL1   H7A 9448   3.732   2.447   7.021  0.2265  0.3709 -0.9592
   95CHL1   H7B 9449   3.860   2.323   6.984 -3.5867 -1.1101 -0.2391
   95CHL1    C8 9450   3.913   2.482   7.130  0.0749  0.1406  0.2758
   95CHL1    H8 9451   3.895   2.588   7.154  0.5505  0.4717 -0.7485
   95CHL1   C14 9452   3.872   2.376   7.241 -0.1945 -0.0273  0.4728
   95CHL1   H14 9453   3.911   2.277   7.209 -1.7630 -0.0959 -1.4431
   95CHL1   C15 9454   3.723   2.356   7.281  0.2771 -0.1941  0.7076
   95CHL1  H15A 9455   3.666   2.451   7.278  1.9326  0.9487  2.6906
   95CHL1  H15B 9456   3.679   2.285   7.208  0.1881 -0.6436  1.1970
   95CHL1   C16 9457   3.728   2.309   7.429 -0.3948  0.3150 -0.3768
   95CHL1  H16A 9458   3.666   2.384   7.482  1.5438  1.6914  0.0586
   95CHL1  H16B 9459   3.685   2.207   7.417 -0.9178  0.6772 -1.7657
   95CHL1   C17 9460   3.881   2.314   7.471  0.0123  0.1250  0.1382
   95CHL1   H17 9461   3.922   2.212   7.455 -1.6159 -0.8207  1.6589
   95CHL1   C13 9462   3.943   2.411   7.368 -0.3876  0.9682 -0.1023
   95CHL1   C18 9463   3.916   2.551   7.418  0.3730  0.1620  0.2870
   95CHL1  H18A 9464   3.811   2.568   7.448 -0.4536 -3.8718  0.2591
   95CHL1  H18B 9465   3.979   2.580   7.504  1.6251  0.7059 -0.7696
   95CHL1  H18C 9466   3.934   2.630   7.341 -0.1513  0.2222  0.2223
   95CHL1   C12 9467   4.102   2.390   7.351 -0.7258  1.1479  0.0473
   95CHL1  H12A 9468   4.150   2.425   7.444 -0.7963  1.9497 -0.2091
   95CHL1  H12B 9469   4.117   2.281   7.336  2.3452  1.2925  1.5046
   95CHL1   C11 9470   4.156   2.470   7.231  0.2208 -0.0459  0.2872
   95CHL1  H11A 9471   4.149   2.574   7.270  0.2543 -0.1238  0.5022
   95CHL1  H11B 9472   4.259   2.433   7.213  1.3596  1.4336  3.0540
   95CHL1    C9 9473   4.067   2.462   7.097  0.2879  0.1575 -0.2062
   95CHL1    H9 9474   4.067   2.354   7.072 -0.5336 -0.0688  0.7023
   95CHL1   C10 9475   4.112   2.542   6.978  0.2119  0.0134 -0.1466
   95CHL1   C19 9476   4.146   2.686   7.028 -0.5817 -0.0084  0.6159
   95CHL1  H19A 9477   4.170   2.748   6.939 -0.8032 -0.5643  0.1628
   95CHL1  H19B 9478   4.060   2.716   7.092 -2.0780 -2.9127  0.1357
   95CHL1  H19C 9479   4.235   2.679   7.094 -0.2262 -0.7593  0.0741
   95CHL1    C1 9480   4.228   2.471   6.905  0.0850 -0.2123  0.1340
   95CHL1   H1A 9481   4.314   2.451   6.973  0.4019  0.0529 -0.1850
   95CHL1   H1B 9482   4.199   2.369   6.871  2.0501 -0.7116 -0.2250
   95CHL1    C2 9483   4.279   2.535   6.774  0.3739 -0.7311  0.1256
   95CHL1   H2A 9484   4.367   2.475   6.743 -0.3316 -1.5512 -0.3223
   95CHL1   H2B 9485   4.318   2.635   6.802  1.4568 -1.4843  1.4135
   95CHL1   C20 9486   3.920   2.340   7.621  0.2122 -0.4599 -0.1980
   95CHL1   H20 9487   3.940   2.449   7.634 -2.4220 -0.0308  0.8501
   95CHL1   C21 9488   4.050   2.257   7.653  0.4888 -0.4983 -0.2833
   95CHL1  H21A 9489   4.035   2.150   7.628 -1.1109 -0.0860 -1.2720
   95CHL1  H21B 9490   4.068   2.246   7.762 -2.8585 -1.9575  0.2462
   95CHL1  H21C 9491   4.144   2.295   7.610  0.5620 -0.5412 -0.1615
   95CHL1   C22 9492   3.804   2.301   7.716  0.3075 -0.2575  0.6375
   95CHL1  H22A 9493   3.718   2.369   7.696 -0.2223 -1.2112 -0.4789
   95CHL1  H22B 9494   3.773   2.200   7.683  0.6350 -0.0136 -0.4605
   95CHL1   C23 9495   3.831   2.304   7.869  0.1673 -0.2452 -0.2461
   95CHL1  H23A 9496   3.731   2.277   7.909 -1.0474 -0.3284 -3.0737
   95CHL1  H23B 9497   3.907   2.228   7.896 -1.6482 -2.6859 -1.5546
   95CHL1   C24 9498   3.859   2.440   7.930  0.5593  0.2951 -0.4863
   95CHL1  H24A 9499   3.935   2.485   7.864 -1.4193  0.5960 -2.6981
   95CHL1  H24B 9500   3.768   2.504   7.929 -0.7454 -1.4850 -0.5246
   95CHL1   C25 9501   3.919   2.442   8.067  0.0463  0.4906 -0.3641
   95CHL1   H25 9502   4.009   2.377   8.067 -0.0544  0.3376  0.3723
   95CHL1   C26 9503   3.978   2.579   8.107 -0.2299  0.2242  0.2507
   95CHL1  H26A 9504   4.038   2.558   8.198 -2.8123 -0.9496  1.7996
   95CHL1  H26B 9505   4.049   2.621   8.032  1.0592 -0.9908  0.7501
   95CHL1  H26C 9506   3.893   2.648   8.121 -1.1740 -0.0732 -3.0472
   95CHL1   C27 9507   3.829   2.388   8.183 -0.1281  0.0258  0.1660
   95CHL1  H27A 9508   3.885   2.385   8.279  0.4920  1.9560 -0.0912
   95CHL1  H27B 9509   3.734   2.443   8.199  0.0793  0.0248  1.5050
   95CHL1  H27C 9510   3.799   2.287   8.146  0.6400  0.2880 -1.2813
   96CHL1    C3 9511   4.895   3.210   6.621 -0.0693 -0.0862  0.5798
   96CHL1    H3 9512   4.987   3.151   6.605 -0.3613 -0.6832  1.0885
   96CHL1    O3 9513   4.846   3.256   6.493  0.2109  0.1156 -0.7626
   96CHL1   H3' 9514   4.754   3.278   6.511  0.4517  1.5067 -1.0524
   96CHL1    C4 9515   4.790   3.121   6.684 -0.0162 -0.3374  0.4884
   96CHL1   H4A 9516   4.702   3.188   6.684  0.5322  0.4161 -0.3473
   96CHL1   H4B 9517   4.774   3.040   6.609  1.3997  0.9564 -1.3312
   96CHL1    C5 9518   4.831   3.072   6.826  0.5710 -0.0728  0.3158
   96CHL1    C6 9519   4.840   2.940   6.854 -0.0025  0.0295  0.1454
   96CHL1    H6 9520   4.803   2.868   6.780  2.3993 -1.0661 -0.0697
   96CHL1    C7 9521   4.895   2.884   6.983  0.7413 -0.4858  0.0141
   96CHL1   H7A 9522   4.836   2.793   7.007  1.0079 -1.3061 -2.2635
   96CHL1   H7B 9523   4.996   2.851   6.953  0.1973 -1.0722 -1.2084
   96CHL1    C8 9524   4.891   2.986   7.098 -0.0551  0.8176  0.2998
   96CHL1    H8 9525   4.784   2.996   7.126 -0.1680 -0.4324  0.3774
   96CHL1   C14 9526   4.967   2.937   7.216 -0.4762 -0.9393 -0.4295
   96CHL1   H14 9527   5.075   2.934   7.187  0.5730  1.3725  2.7272
   96CHL1   C15 9528   4.938   2.796   7.269 -0.8855  0.8458 -0.1770
   96CHL1  H15A 9529   4.829   2.780   7.283 -0.9762  0.1379 -1.5216
   96CHL1  H15B 9530   4.975   2.711   7.207 -1.5271 -1.6880  2.6748
   96CHL1   C16 9531   5.018   2.795   7.408 -0.4921 -0.0744 -0.9602
   96CHL1  H16A 9532   4.954   2.764   7.493  0.1162  1.9323  0.2877
   96CHL1  H16B 9533   5.101   2.729   7.375  1.2601  1.8601 -0.6312
   96CHL1   C17 9534   5.065   2.944   7.436 -0.1401  0.2250 -0.3654
   96CHL1   H17 9535   5.169   2.937   7.399 -0.8262 -1.6993 -2.1534
   96CHL1   C13 9536   4.978   3.034   7.338 -0.1015  0.9796 -0.1654
   96CHL1   C18 9537   4.840   3.048   7.406 -0.9276 -0.0566 -0.9831
   96CHL1  H18A 9538   4.833   3.125   7.486 -0.0395 -1.1004  0.1534
   96CHL1  H18B 9539   4.762   3.066   7.330 -1.9601 -1.0265 -0.1896
   96CHL1  H18C 9540   4.821   2.952   7.459  2.5371  0.1454  0.9338
   96CHL1   C12 9541   5.043   3.163   7.280  0.1975 -0.1290 -0.2452
   96CHL1  H12A 9542   5.062   3.242   7.356 -1.3957  0.6104 -0.5802
   96CHL1  H12B 9543   5.139   3.129   7.236  0.5748  0.4376  0.1302
   96CHL1   C11 9544   4.958   3.216   7.167  0.2080 -0.4710 -0.0104
   96CHL1  H11A 9545   4.862   3.254   7.210  1.1026  0.9531  0.8134
   96CHL1  H11B 9546   5.015   3.294   7.112 -0.8063  0.9776  0.9095
   96CHL1    C9 9547   4.950   3.115   7.047 -0.0259 -0.0689 -0.2836
   96CHL1    H9 9548   5.057   3.093   7.029  1.1002  2.7843  2.1380
   96CHL1   C10 9549   4.873   3.181   6.927 -0.4632  0.1424 -0.6207
   96CHL1   C19 9550   4.751   3.264   6.974  0.3307 -0.2130  0.1047
   96CHL1  H19A 9551   4.698   3.308   6.887  0.2602  1.2003  0.8518
   96CHL1  H19B 9552   4.688   3.189   7.027  2.6269 -1.7851  0.7859
   96CHL1  H19C 9553   4.791   3.340   7.044  2.3039  0.8048 -1.9955
   96CHL1    C1 9554   4.975   3.269   6.852  0.6487 -0.8006 -0.0541
   96CHL1   H1A 9555   4.981   3.357   6.919 -1.0206  0.2320 -1.1742
   96CHL1   H1B 9556   5.074   3.220   6.838  1.6045  0.5309  1.7565
   96CHL1    C2 9557   4.936   3.325   6.718  0.2796  0.2567  0.4790
   96CHL1   H2A 9558   5.011   3.398   6.680 -0.9060  1.3899  0.2642
   96CHL1   H2B 9559   4.843   3.383   6.736 -0.2382 -0.5920  0.6029
   96CHL1   C20 9560   5.071   2.976   7.584 -0.3363 -0.7713 -0.4019
   96CHL1   H20 9561   4.973   2.967   7.635 -0.1921 -0.2034 -0.0101
   96CHL1   C21 9562   5.090   3.137   7.598 -0.2258  0.3973 -0.4545
   96CHL1  H21A 9563   5.075   3.167   7.704  0.6179 -0.1990 -0.1594
   96CHL1  H21B 9564   5.019   3.202   7.542 -0.7703  1.0478  0.9356
   96CHL1  H21C 9565   5.192   3.171   7.569 -0.1334 -0.1632 -0.7893
   96CHL1   C22 9566   5.166   2.883   7.673 -0.7871 -0.4010 -0.1796
   96CHL1  H22A 9567   5.147   2.776   7.650 -2.3847  0.0808 -1.2769
   96CHL1  H22B 9568   5.270   2.904   7.638 -0.1210 -2.7298  0.2059
   96CHL1   C23 9569   5.155   2.897   7.821 -0.5234  0.0176  0.6842
   96CHL1  H23A 9570   5.186   2.998   7.855  3.3240  0.0126 -2.0587
   96CHL1  H23B 9571   5.051   2.874   7.853 -1.5335  0.7040 -1.8875
   96CHL1   C24 9572   5.260   2.808   7.886 -0.0841  0.1170  0.1764
   96CHL1  H24A 9573   5.213   2.708   7.877  0.2306 -0.2457  2.1062
   96CHL1  H24B 9574   5.364   2.802   7.847 -0.1132 -0.2095  0.1467
   96CHL1   C25 9575   5.267   2.821   8.046 -0.2075  0.3306  0.0090
   96CHL1   H25 9576   5.160   2.827   8.077 -0.3391 -0.5562 -0.2450
   96CHL1   C26 9577   5.336   2.698   8.102 -0.7988  0.2327  0.4186
   96CHL1  H26A 9578   5.442   2.692   8.068 -1.4326 -0.6313 -1.5313
   96CHL1  H26B 9579   5.337   2.714   8.212 -0.7801 -1.8466  0.7709
   96CHL1  H26C 9580   5.276   2.606   8.087 -0.5560  0.0281  0.6781
   96CHL1   C27 9581   5.343   2.952   8.075  0.0078  0.6185  0.0774
   96CHL1  H27A 9582   5.276   3.037   8.050  1.6927  1.5125 -1.6750
   96CHL1  H27B 9583   5.384   2.942   8.178  0.6198 -0.3909 -0.2557
   96CHL1  H27C 9584   5.432   2.965   8.010  1.5873 -1.1654  1.7617
   97OSM      N 9585   0.469   1.922  11.423  0.1379  0.2532  0.3374
   97OSM    C15 9586   0.449   1.985  11.555 -0.2954 -0.5468  0.4250
   97OSM   H15A 9587   0.343   1.993  11.576 -0.1917 -1.2139  1.2710
   97OSM   H15B 9588   0.483   2.087  11.557  1.7619 -1.1516 -1.1785
   97OSM   H15C 9589   0.494   1.937  11.640 -2.3464  0.5325  2.2403
   97OSM    C14 9590   0.614   1.915  11.393  0.3979  0.6196 -0.3475
   97OSM   H14A 9591   0.630   1.888  11.290  1.3750 -0.0345 -0.0344
   97OSM   H14B 9592   0.665   1.842  11.455 -2.2129  1.0900  2.6882
   97OSM   H14C 9593   0.661   2.011  11.406  0.1566  1.3062 -3.7987
   97OSM    C13 9594   0.419   1.785  11.447 -0.2804 -0.5738  0.2266
   97OSM   H13A 9595   0.479   1.743  11.526 -0.4425 -2.6817 -0.6882
   97OSM   H13B 9596   0.425   1.732  11.352 -0.0147  1.0877 -0.7214
   97OSM   H13C 9597   0.315   1.786  11.475 -0.0161 -0.5410  1.2450
   97OSM    C12 9598   0.384   2.001  11.324  0.3164 -0.1353  0.3952
   97OSM   H12A 9599   0.421   2.102  11.321  0.5700 -0.2388 -1.4165
   97OSM   H12B 9600   0.286   1.998  11.369  0.6106 -0.2414  1.0465
   97OSM    C11 9601   0.383   1.944  11.180  0.3781  0.8842 -0.0201
   97OSM   H11A 9602   0.290   1.966  11.124  0.7075  0.6409 -0.6678
   97OSM   H11B 9603   0.375   1.834  11.172 -3.4496  0.9314  1.3194
   97OSM      P 9604   0.489   2.124  11.021 -0.1098  0.2457 -0.2660
   97OSM    O13 9605   0.498   2.247  11.101  0.6869 -0.5111 -0.3840
   97OSM    O14 9606   0.593   2.109  10.923 -0.1990 -0.5898  0.2859
   97OSM    O11 9607   0.352   2.127  10.958 -0.1835 -0.3617  0.3369
   97OSM    O12 9608   0.490   1.992  11.109  0.0972 -0.4518 -0.2786
   97OSM    C1S 9609   0.330   2.226  10.852  0.2941 -0.0597 -0.6118
   97OSM    H1S 9610   0.350   2.332  10.879  1.0965  0.2885 -2.4772
   97OSM    H1T 9611   0.219   2.229  10.837 -0.0177 -1.6713  1.0108
   97OSM     NF 9612   0.362   2.296  10.614  0.0425  0.5599 -0.1327
   97OSM    HNF 9613   0.292   2.285  10.543  0.7989 -2.0195 -0.5986
   97OSM    C2S 9614   0.385   2.186  10.712  0.5066 -0.6411  0.4110
   97OSM    H2S 9615   0.495   2.167  10.713  0.4693 -0.8459  0.5041
   97OSM    C3S 9616   0.324   2.053  10.661 -0.1874  0.3468  0.6312
   97OSM    H3S 9617   0.216   2.066  10.642  0.0760  0.9908 -0.5349
   97OSM     O3 9618   0.336   1.946  10.749  0.4857 -0.0780  0.2008
   97OSM    HO3 9619   0.342   1.987  10.836  3.4751 -1.5790  0.8448
   97OSM    C4S 9620   0.381   2.024  10.519  0.3489  0.1078  0.0829
   97OSM    H4S 9621   0.488   2.021  10.491  0.9358  3.3350  1.5531
   97OSM    C5S 9622   0.301   1.995  10.410 -0.3874  0.0088  0.5425
   97OSM    H5S 9623   0.192   1.995  10.426 -0.4475 -1.0339  0.1780
   97OSM    C6S 9624   0.357   1.973  10.267  0.4969  0.3408  0.0011
   97OSM    H6S 9625   0.468   1.970  10.267  0.5231 -3.3354  0.5700
   97OSM    H6T 9626   0.318   2.049  10.195 -0.7041 -0.8697 -0.6710
   97OSM    C7S 9627   0.315   1.832  10.220  0.2214 -0.1201  0.8802
   97OSM    H7S 9628   0.204   1.829  10.219  0.2254 -0.0579  0.0469
   97OSM    H7T 9629   0.360   1.749  10.279  0.9070 -0.7892 -0.5277
   97OSM    C8S 9630   0.373   1.798  10.078  0.9008  0.6570 -0.5117
   97OSM    H8S 9631   0.370   1.688  10.065  0.3023  0.6146 -0.0490
   97OSM    H8T 9632   0.480   1.821  10.060  1.2307  1.4856  2.1567
   97OSM    C9S 9633   0.309   1.886   9.974  0.5254 -0.2202 -0.5147
   97OSM    H9S 9634   0.377   1.973   9.965 -0.8730  1.1754  1.4415
   97OSM    H9T 9635   0.221   1.932  10.024  1.9825  3.5853 -1.1707
   97OSM   C10S 9636   0.288   1.815   9.843 -0.4392 -0.3232 -0.4610
   97OSM   H10S 9637   0.226   1.872   9.771 -1.3904 -0.3179  0.3482
   97OSM   H10T 9638   0.228   1.723   9.860  1.0348 -1.3335 -0.5289
   97OSM   C11S 9639   0.417   1.770   9.765  0.0783 -0.6239 -0.5094
   97OSM   H11S 9640   0.378   1.690   9.699  1.8621  0.6210 -3.2817
   97OSM   H11T 9641   0.490   1.726   9.837 -0.6410  0.0387  0.6698
   97OSM   C12S 9642   0.471   1.889   9.685 -0.7232  0.2522 -0.1008
   97OSM   H12S 9643   0.538   1.943   9.756 -0.5232 -0.2553  0.1042
   97OSM   H12T 9644   0.390   1.956   9.650  0.4749  1.8413  0.0523
   97OSM   C13S 9645   0.553   1.845   9.558  0.4470  1.1313 -0.1560
   97OSM   H13S 9646   0.473   1.801   9.495 -0.5747  1.0166  1.1722
   97OSM   H13T 9647   0.627   1.771   9.596 -1.1042  0.3816  1.5307
   97OSM   C14S 9648   0.622   1.962   9.480  0.2233 -0.2370  0.7622
   97OSM   H14S 9649   0.707   1.919   9.423 -0.7982  0.0003 -1.0302
   97OSM   H14T 9650   0.664   2.034   9.554 -0.0116 -0.7987  1.4484
   97OSM   C15S 9651   0.529   2.029   9.375  0.2260  0.2947  0.0215
   97OSM   H15S 9652   0.552   2.137   9.368 -1.6010  0.8889  2.0217
   97OSM   H15T 9653   0.423   2.020   9.406 -0.4711 -0.1910 -2.3013
   97OSM   C16S 9654   0.537   1.958   9.241 -0.0039 -0.2417  0.5319
   97OSM   H16S 9655   0.525   1.849   9.259 -0.1689 -0.2171  0.5759
   97OSM   H16T 9656   0.640   1.983   9.208 -0.7656  0.8264 -1.1964
   97OSM   C17S 9657   0.438   2.013   9.139  0.4095  0.1157 -0.1827
   97OSM   H17S 9658   0.337   1.978   9.166 -0.3776  3.5084  1.8021
   97OSM   H17T 9659   0.475   1.965   9.045  3.4970  0.8918  0.5176
   97OSM   C18S 9660   0.426   2.164   9.135 -0.1816  0.4476  0.0341
   97OSM   H18S 9661   0.528   2.208   9.129  1.8646 -3.3564  2.6499
   97OSM   H18T 9662   0.375   2.212   9.221 -2.3136 -1.0637 -0.2960
   97OSM   H18U 9663   0.375   2.199   9.043 -1.1093  2.5878  1.2994
   97OSM    C1F 9664   0.425   2.412  10.616  0.2090  0.4262  0.6429
   97OSM     OF 9665   0.524   2.431  10.689  0.2236  0.1391 -0.2678
   97OSM    C2F 9666   0.356   2.518  10.540 -0.0905  0.4296 -0.2204
   97OSM    H2F 9667   0.265   2.545  10.598 -0.1578  1.1074 -0.6251
   97OSM    H2G 9668   0.333   2.483  10.437  1.9486  0.0587 -0.5784
   97OSM    C3F 9669   0.457   2.635  10.536  0.5519 -0.4819 -0.2509
   97OSM    H3F 9670   0.548   2.593  10.487  0.6179 -1.0094  0.3038
   97OSM    H3G 9671   0.491   2.673  10.635 -3.1206  1.2334  0.5248
   97OSM    C4F 9672   0.391   2.762  10.463  0.0119  0.2062 -0.2032
   97OSM    H4F 9673   0.455   2.847  10.494  2.5477 -2.0132  1.1349
   97OSM    H4G 9674   0.302   2.798  10.518 -0.4026 -1.1078  0.0128
   97OSM    C5F 9675   0.358   2.731  10.313  0.1294 -0.9308  0.0937
   97OSM    H5F 9676   0.279   2.654  10.320  1.4319 -2.6307 -2.4117
   97OSM    H5G 9677   0.448   2.687  10.265 -0.2546 -0.9222 -0.6533
   97OSM    C6F 9678   0.314   2.857  10.236  0.1410 -0.0461  0.5636
   97OSM    H6F 9679   0.382   2.944  10.245 -0.6242  0.6543 -0.1652
   97OSM    H6G 9680   0.215   2.896  10.270 -0.4748  0.4511 -1.6220
   97OSM    C7F 9681   0.292   2.837  10.084 -0.0167 -0.5380 -0.2732
   97OSM    H7F 9682   0.244   2.928  10.040 -0.2120 -1.4023 -1.9009
   97OSM    H7G 9683   0.217   2.757  10.066  0.6439 -1.2240  0.0191
   97OSM    C8F 9684   0.414   2.796  10.000 -0.0292  0.0295  0.5225
   97OSM    H8F 9685   0.389   2.768   9.896  1.3129  0.5202  0.0474
   97OSM    H8G 9686   0.440   2.700  10.049  0.2444 -1.3325 -2.1468
   97OSM    C9F 9687   0.523   2.913   9.995  0.2182 -0.9858  0.3274
   97OSM    H9F 9688   0.513   2.988  10.075 -0.8995 -3.1023  2.2962
   97OSM   C10F 9689   0.614   2.937   9.899  0.0773  0.6920  0.3688
   97OSM   H10F 9690   0.694   3.009   9.925  0.3793  0.5417 -0.1363
   97OSM   C11F 9691   0.635   2.852   9.780 -0.4521 -0.3489  0.2533
   97OSM   H11F 9692   0.545   2.850   9.715 -2.0275  1.7879  2.2182
   97OSM   H11G 9693   0.657   2.747   9.811 -0.1664 -0.2849  0.2723
   97OSM   C12F 9694   0.745   2.897   9.682 -0.6933  0.5231 -0.2299
   97OSM   H12F 9695   0.848   2.903   9.724 -0.2229  0.0187 -1.2654
   97OSM   H12G 9696   0.712   2.997   9.648  0.2725  0.6273 -0.8956
   97OSM   C13F 9697   0.742   2.813   9.556  0.4633  0.4103  0.6011
   97OSM   H13F 9698   0.642   2.818   9.508 -0.0527  0.9573  1.7034
   97OSM   H13G 9699   0.760   2.705   9.575 -3.6988 -0.6766 -0.6751
   97OSM   C14F 9700   0.852   2.854   9.455 -0.2379  0.2123  1.0536
   97OSM   H14F 9701   0.955   2.847   9.497  0.5537 -1.4849 -0.9963
   97OSM   H14G 9702   0.840   2.962   9.433  2.2934  0.5341  0.9527
   97OSM   C15F 9703   0.858   2.760   9.334 -0.1143  0.2270  0.9431
   97OSM   H15F 9704   0.862   2.658   9.378  0.5778  0.5960  1.7630
   97OSM   H15G 9705   0.960   2.774   9.293 -0.7190 -1.4387 -1.3679
   97OSM   C16F 9706   0.756   2.801   9.226  0.0225  0.1297  0.1034
   97OSM   H16F 9707   0.784   2.905   9.201 -0.9532  1.1595  2.8428
   97OSM   H16G 9708   0.658   2.815   9.276  0.2062  5.4208 -0.4409
   97OSM   C17F 9709   0.735   2.694   9.116  0.0628  0.3100 -0.5067
   97OSM   H17F 9710   0.689   2.606   9.165 -0.0074 -0.4474 -1.8868
   97OSM   H17G 9711   0.824   2.658   9.062 -0.4224 -1.1291 -0.3999
   97OSM   C18F 9712   0.638   2.746   9.013 -0.2212 -0.3280 -0.4707
   97OSM   H18F 9713   0.627   2.666   8.937 -1.4276 -1.0502  0.4239
   97OSM   H18G 9714   0.682   2.837   8.967  1.8386 -1.3327 -0.5969
   97OSM   H18H 9715   0.545   2.781   9.062 -0.0816  0.4875 -0.7781
   98OSM      N 9716   0.253   2.799  11.057 -0.3317  0.4214  0.8883
   98OSM    C15 9717   0.313   2.813  11.191  0.2608  0.7963 -1.7395
   98OSM   H15A 9718   0.285   2.895  11.256  2.3274 -0.0585  0.3938
   98OSM   H15B 9719   0.421   2.813  11.186  0.4935 -1.1034  0.9435
   98OSM   H15C 9720   0.292   2.722  11.245  3.3748 -0.0174 -1.7111
   98OSM    C14 9721   0.098   2.808  11.065  0.3348  0.2464 -0.0582
   98OSM   H14A 9722   0.069   2.908  11.094 -0.3911  0.6348 -1.9810
   98OSM   H14B 9723   0.060   2.740  11.140 -0.3242  2.1898  1.4461
   98OSM   H14C 9724   0.060   2.793  10.965  1.6173  0.3280 -0.5772
   98OSM    C13 9725   0.298   2.914  10.977 -0.6415 -0.3991  0.0407
   98OSM   H13A 9726   0.281   3.013  11.017 -0.2432 -0.0217 -0.7006
   98OSM   H13B 9727   0.246   2.911  10.883 -2.2035 -0.3325  0.8612
   98OSM   H13C 9728   0.402   2.916  10.950 -0.6560 -0.2373 -0.0051
   98OSM    C12 9729   0.304   2.677  10.992 -0.3566 -1.1829 -0.1906
   98OSM   H12A 9730   0.283   2.592  11.056  2.8760 -2.0981 -0.1795
   98OSM   H12B 9731   0.411   2.687  10.982 -0.2097  3.4923  2.8125
   98OSM    C11 9732   0.270   2.643  10.846 -0.1970  0.4620  0.6899
   98OSM   H11A 9733   0.324   2.549  10.820  0.4976  0.3977  2.2582
   98OSM   H11B 9734   0.315   2.718  10.777  1.2910 -1.1547 -0.2119
   98OSM      P 9735   0.042   2.510  10.896  0.0005  0.0514 -0.1378
   98OSM    O13 9736   0.101   2.457  11.025  0.3410 -0.0172  0.8762
   98OSM    O14 9737  -0.095   2.568  10.914 -0.2063  0.0522 -0.6553
   98OSM    O11 9738   0.042   2.387  10.796  0.6559 -0.0719 -0.2695
   98OSM    O12 9739   0.129   2.626  10.834 -0.0396 -1.4140 -0.4998
   98OSM    C1S 9740  -0.018   2.395  10.657 -0.4854  0.5781 -0.4741
   98OSM    H1S 9741   0.057   2.457  10.604  0.7550 -0.1026  0.4246
   98OSM    H1T 9742  -0.116   2.447  10.657  0.0405  1.7391  2.1400
   98OSM     NF 9743  -0.058   2.260  10.453 -0.3423  0.6394 -0.1566
   98OSM    HNF 9744  -0.151   2.265  10.419  0.2293  2.4575 -1.6689
   98OSM    C2S 9745  -0.035   2.255  10.592  0.0040 -0.2737 -0.1864
   98OSM    H2S 9746   0.061   2.200  10.602 -0.3690 -1.3531 -1.9986
   98OSM    C3S 9747  -0.152   2.177  10.659 -0.3305  0.1698 -0.2385
   98OSM    H3S 9748  -0.250   2.220  10.627 -0.9108 -1.0177 -0.1416
   98OSM     O3 9749  -0.161   2.197  10.801 -0.2401 -0.2360  0.5094
   98OSM    HO3 9750  -0.098   2.266  10.820 -0.3245  0.3331 -1.1029
   98OSM    C4S 9751  -0.156   2.031  10.612  0.2306 -0.3335 -0.1961
   98OSM    H4S 9752  -0.217   2.016  10.522  0.7744 -1.7844 -0.3530
   98OSM    C5S 9753  -0.104   1.919  10.660  0.0261  0.3008  0.5616
   98OSM    H5S 9754  -0.026   1.914  10.738 -0.9348 -1.7549  1.4810
   98OSM    C6S 9755  -0.130   1.786  10.598 -0.3287  0.2361  0.3589
   98OSM    H6S 9756  -0.238   1.767  10.584 -0.1967 -1.4632  1.3852
   98OSM    H6T 9757  -0.085   1.714  10.670  1.4889 -1.1060 -1.9882
   98OSM    C7S 9758  -0.062   1.757  10.460  0.4336  0.1289 -0.1050
   98OSM    H7S 9759   0.047   1.747  10.474  0.0229 -3.0227  1.7510
   98OSM    H7T 9760  -0.073   1.848  10.397 -0.2665  0.0059 -0.1768
   98OSM    C8S 9761  -0.116   1.641  10.384  0.0965  0.8639 -0.2755
   98OSM    H8S 9762  -0.227   1.645  10.377  0.0766  0.4196 -0.2048
   98OSM    H8T 9763  -0.098   1.544  10.435 -3.6046 -0.2422 -0.8023
   98OSM    C9S 9764  -0.062   1.624  10.239 -0.5666  0.0230  0.0704
   98OSM    H9S 9765  -0.072   1.515  10.220 -3.3511  0.2304 -0.0111
   98OSM    H9T 9766   0.046   1.650  10.238 -0.1670 -1.4041  1.2695
   98OSM   C10S 9767  -0.147   1.693  10.132 -0.3959 -0.2535  0.0490
   98OSM   H10S 9768  -0.134   1.801  10.156 -0.6618 -0.5239  1.5608
   98OSM   H10T 9769  -0.254   1.664  10.134 -0.1390 -1.2598 -0.5402
   98OSM   C11S 9770  -0.096   1.658   9.991 -0.0064 -0.4752  0.1392
   98OSM   H11S 9771  -0.119   1.553   9.964  2.2377 -1.1262  0.5573
   98OSM   H11T 9772   0.015   1.651   9.993  0.0291 -0.2954  3.1268
   98OSM   C12S 9773  -0.136   1.759   9.882 -0.1781  0.0399  1.0635
   98OSM   H12S 9774  -0.088   1.855   9.913 -2.5588  1.3585  0.9504
   98OSM   H12T 9775  -0.247   1.769   9.885 -0.1103  1.0352  0.7710
   98OSM   C13S 9776  -0.085   1.708   9.739 -0.4452  0.2668  0.7335
   98OSM   H13S 9777  -0.135   1.612   9.718  0.1153  0.2263 -0.5471
   98OSM   H13T 9778   0.025   1.693   9.746 -0.0361  1.5135 -1.6716
   98OSM   C14S 9779  -0.115   1.805   9.623 -0.6927  0.2657  0.5775
   98OSM   H14S 9780  -0.079   1.910   9.636  0.3380  0.1202 -0.8621
   98OSM   H14T 9781  -0.224   1.803   9.602 -1.0232  1.9056  1.9169
   98OSM   C15S 9782  -0.043   1.757   9.492  0.6624  0.2224  0.1581
   98OSM   H15S 9783  -0.067   1.835   9.417 -1.2865 -0.8901 -0.4590
   98OSM   H15T 9784  -0.087   1.663   9.453  0.3908  1.1413 -1.8877
   98OSM   C16S 9785   0.108   1.727   9.484  0.7399  0.4579 -0.3587
   98OSM   H16S 9786   0.131   1.620   9.503 -0.9245 -0.2936 -2.2213
   98OSM   H16T 9787   0.153   1.797   9.558 -0.7773  0.8662  0.2408
   98OSM   C17S 9788   0.155   1.759   9.334  0.8047  1.0132  0.1915
   98OSM   H17S 9789   0.255   1.712   9.341 -0.9572 -3.0155  3.5608
   98OSM   H17T 9790   0.165   1.867   9.312 -1.4067  1.3359  0.4760
   98OSM   C18S 9791   0.064   1.674   9.229 -0.2577 -0.3013  0.0479
   98OSM   H18S 9792   0.102   1.668   9.125  0.4309  0.4057  0.2487
   98OSM   H18T 9793  -0.034   1.725   9.220  0.0518  0.9219  2.6966
   98OSM   H18U 9794   0.052   1.573   9.274 -1.5724 -0.1657  0.0248
   98OSM    C1F 9795   0.039   2.273  10.366  0.4476 -0.2012  0.5799
   98OSM     OF 9796   0.155   2.269  10.400  0.7316 -0.8527  0.0342
   98OSM    C2F 9797  -0.012   2.297  10.220  0.3634 -0.0732  0.1463
   98OSM    H2F 9798  -0.043   2.403  10.220 -0.7051 -0.3791 -0.4035
   98OSM    H2G 9799  -0.099   2.232  10.200 -1.0980  1.1330  2.2087
   98OSM    C3F 9800   0.087   2.271  10.108 -0.1526  0.3093  0.2979
   98OSM    H3F 9801   0.102   2.162  10.089  0.9037  0.2836  1.1577
   98OSM    H3G 9802   0.184   2.325  10.113  0.0850 -0.1029  0.2322
   98OSM    C4F 9803   0.022   2.316   9.970  0.0630  0.7703  0.3933
   98OSM    H4F 9804  -0.013   2.420   9.980  0.0605  0.9156 -0.9825
   98OSM    H4G 9805  -0.072   2.260   9.951 -0.1169  1.8985 -2.4466
   98OSM    C5F 9806   0.120   2.283   9.855  0.3134  0.3248 -0.0701
   98OSM    H5F 9807   0.190   2.209   9.899  1.0912  1.0327 -0.0897
   98OSM    H5G 9808   0.177   2.376   9.831  1.5937  0.0727  1.7153
   98OSM    C6F 9809   0.051   2.206   9.739 -0.1722 -0.5830  0.5235
   98OSM    H6F 9810  -0.052   2.241   9.717 -0.0015  0.1100  0.7957
   98OSM    H6G 9811   0.042   2.101   9.774  0.9763 -1.2164 -0.9483
   98OSM    C7F 9812   0.140   2.208   9.612  0.4300 -0.0790 -0.2917
   98OSM    H7F 9813   0.230   2.150   9.641 -0.7366 -1.0763  1.5431
   98OSM    H7G 9814   0.171   2.311   9.587  1.4340 -0.1507  0.5783
   98OSM    C8F 9815   0.093   2.129   9.483 -0.0491  0.3559 -0.5044
   98OSM    H8F 9816   0.074   2.020   9.491 -1.6616  0.7286  1.8641
   98OSM    H8G 9817   0.163   2.137   9.398  0.0526 -1.4977 -0.6354
   98OSM    C9F 9818  -0.042   2.193   9.455  0.1284  0.1535  0.2248
   98OSM    H9F 9819  -0.118   2.176   9.532  1.1474  0.8322  1.4229
   98OSM   C10F 9820  -0.060   2.266   9.350 -0.6579 -0.7971 -0.0333
   98OSM   H10F 9821  -0.157   2.314   9.334 -0.4414 -0.7743 -1.3475
   98OSM   C11F 9822   0.044   2.307   9.242  0.1730  0.7809  0.2454
   98OSM   H11F 9823   0.050   2.228   9.163  0.8988  1.0976 -0.0222
   98OSM   H11G 9824   0.149   2.318   9.276  0.0188 -1.7228  1.7680
   98OSM   C12F 9825   0.015   2.444   9.176 -0.3914  0.1012  0.0170
   98OSM   H12F 9826   0.029   2.516   9.260 -0.2455 -0.6295  0.6376
   98OSM   H12G 9827  -0.086   2.451   9.130  0.1223 -1.4204 -1.4313
   98OSM   C13F 9828   0.120   2.467   9.058 -0.5034  0.1197  0.0972
   98OSM   H13F 9829   0.214   2.424   9.099 -2.0455 -1.9066  1.7581
   98OSM   H13G 9830   0.139   2.576   9.049  3.3063 -0.3092  1.1058
   98OSM   C14F 9831   0.079   2.418   8.919  0.0719  0.2572 -0.2424
   98OSM   H14F 9832  -0.024   2.450   8.893 -0.5627  0.5106  2.3715
   98OSM   H14G 9833   0.067   2.309   8.905  0.6481  0.2535 -0.7655
   98OSM   C15F 9834   0.179   2.466   8.819  0.4853  0.1267 -0.0734
   98OSM   H15F 9835   0.209   2.572   8.831 -0.2697  0.1771  1.7500
   98OSM   H15G 9836   0.131   2.439   8.723 -0.3466 -1.7498  0.8091
   98OSM   C16F 9837   0.314   2.390   8.831 -0.2689 -0.2005  0.2159
   98OSM   H16F 9838   0.286   2.286   8.803 -1.0380 -0.0158  0.2770
   98OSM   H16G 9839   0.356   2.388   8.934  0.9996 -0.5873 -0.2835
   98OSM   C17F 9840   0.422   2.451   8.742 -0.2897 -0.3847  0.4034
   98OSM   H17F 9841   0.447   2.550   8.785 -0.3658 -1.0123  1.9581
   98OSM   H17G 9842   0.386   2.475   8.640  1.0550 -1.9117 -0.4654
   98OSM   C18F 9843   0.548   2.360   8.746 -0.3678  0.6039 -0.1329
   98OSM   H18F 9844   0.613   2.373   8.657  0.7196 -2.5714  0.0441
   98OSM   H18G 9845   0.508   2.256   8.740  2.3334 -0.6131  1.0957
   98OSM   H18H 9846   0.611   2.374   8.836  0.9943  2.4598 -1.2970
   99OSM      N 9847   1.758   3.480  10.850 -0.6430 -0.0702  0.2224
   99OSM    C15 9848   1.849   3.385  10.919  0.1135  0.2011 -0.2174
   99OSM   H15A 9849   1.812   3.367  11.019 -3.6921 -1.4476 -1.7166
   99OSM   H15B 9850   1.945   3.433  10.930 -0.4191  1.2368 -0.0329
   99OSM   H15C 9851   1.861   3.296  10.858  0.4284  0.8429 -1.1081
   99OSM    C14 9852   1.631   3.406  10.846  0.5445 -0.1789  0.0011
   99OSM   H14A 9853   1.559   3.458  10.785 -2.2034 -1.2908  2.0771
   99OSM   H14B 9854   1.581   3.401  10.942 -3.4652  0.3653 -1.8756
   99OSM   H14C 9855   1.646   3.314  10.793  1.6561  0.4766 -0.8639
   99OSM    C13 9856   1.739   3.609  10.928  0.4990  0.2443 -0.9319
   99OSM   H13A 9857   1.818   3.679  10.910  0.2200  0.0721 -3.1351
   99OSM   H13B 9858   1.732   3.597  11.035  1.7862 -0.6613 -0.9282
   99OSM   H13C 9859   1.651   3.659  10.889 -0.1368 -0.2434 -0.1645
   99OSM    C12 9860   1.811   3.505  10.711  0.5484 -0.0435 -0.1009
   99OSM   H12A 9861   1.753   3.584  10.665  1.6065  0.6211 -0.3475
   99OSM   H12B 9862   1.792   3.417  10.652 -1.2993 -1.0985  1.9697
   99OSM    C11 9863   1.962   3.539  10.698  1.0235 -0.8108 -0.1775
   99OSM   H11A 9864   1.965   3.549  10.587 -0.5897 -1.7308 -0.3313
   99OSM   H11B 9865   2.022   3.448  10.721  0.5670 -0.8129  1.0605
   99OSM      P 9866   1.988   3.799  10.733  0.0909 -0.5067 -0.3081
   99OSM    O13 9867   1.898   3.873  10.829 -0.0590  0.7396  0.0753
   99OSM    O14 9868   2.128   3.847  10.722  0.1347  0.8638  0.4160
   99OSM    O11 9869   1.921   3.788  10.585 -0.1108  0.4096 -0.0520
   99OSM    O12 9870   1.991   3.649  10.780 -0.5371 -0.4384 -0.3215
   99OSM    C1S 9871   2.005   3.788  10.468  0.1050 -0.2008 -0.2641
   99OSM    H1S 9872   2.099   3.731  10.482 -0.7033 -1.7371 -0.8470
   99OSM    H1T 9873   2.037   3.893  10.453 -1.3202  0.3980  0.6030
   99OSM     NF 9874   2.056   3.681  10.256 -0.2306 -0.0843  0.3233
   99OSM    HNF 9875   2.062   3.733  10.171 -0.0242 -1.4177 -0.5061
   99OSM    C2S 9876   1.944   3.708  10.345 -0.0390  0.4083 -0.2437
   99OSM    H2S 9877   1.914   3.611  10.390 -0.2824  0.0945 -1.0639
   99OSM    C3S 9878   1.827   3.779  10.284 -0.0609 -0.0149 -0.1840
   99OSM    H3S 9879   1.842   3.885  10.256  0.2498 -0.2104 -0.7835
   99OSM     O3 9880   1.713   3.784  10.374  0.2811 -0.6690  0.2742
   99OSM    HO3 9881   1.750   3.774  10.462  2.8827  0.8241 -0.5620
   99OSM    C4S 9882   1.779   3.707  10.152  0.5384 -0.2713  0.0696
   99OSM    H4S 9883   1.801   3.745  10.051 -0.4648  0.5981  0.1678
   99OSM    C5S 9884   1.709   3.588  10.149  0.4639  0.0298  0.5091
   99OSM    H5S 9885   1.689   3.533  10.242 -0.7691  1.7220  1.3065
   99OSM    C6S 9886   1.669   3.518  10.024 -0.2378 -0.0708  0.2926
   99OSM    H6S 9887   1.560   3.507  10.005 -0.3256  0.8234  0.2477
   99OSM    H6T 9888   1.706   3.415  10.045 -2.6160 -1.0198  0.1475
   99OSM    C7S 9889   1.728   3.573   9.891 -0.1723 -0.1574 -0.7111
   99OSM    H7S 9890   1.837   3.585   9.912  0.0501 -0.1895 -1.8025
   99OSM    H7T 9891   1.689   3.675   9.872  0.1780 -0.1619 -1.5029
   99OSM    C8S 9892   1.711   3.487   9.770 -1.1200  0.6700  0.5812
   99OSM    H8S 9893   1.607   3.449   9.765 -1.0574  0.6234 -0.5543
   99OSM    H8T 9894   1.779   3.400   9.778  0.1344  1.6165  0.5210
   99OSM    C9S 9895   1.748   3.553   9.635  0.8012 -0.0103 -1.0251
   99OSM    H9S 9896   1.811   3.484   9.575 -0.6461 -2.1846 -0.1738
   99OSM    H9T 9897   1.812   3.640   9.660  1.0580 -0.0641 -1.4862
   99OSM   C10S 9898   1.632   3.584   9.548  0.1288  0.4115 -0.1941
   99OSM   H10S 9899   1.563   3.657   9.595  0.1852 -0.6035  1.5775
   99OSM   H10T 9900   1.569   3.497   9.524 -2.0888  2.4383 -2.1601
   99OSM   C11S 9901   1.686   3.633   9.417 -0.3535 -0.7422 -0.0726
   99OSM   H11S 9902   1.764   3.562   9.381 -1.0473 -2.1949  1.2304
   99OSM   H11T 9903   1.731   3.734   9.434 -1.0508 -0.8367  2.6723
   99OSM   C12S 9904   1.586   3.636   9.298  0.2399  0.3454 -0.2561
   99OSM   H12S 9905   1.563   3.528   9.285  0.0956  0.2199  0.9799
   99OSM   H12T 9906   1.497   3.694   9.328  0.0650  0.0692 -0.2388
   99OSM   C13S 9907   1.644   3.682   9.162  0.4237  0.5270  0.2111
   99OSM   H13S 9908   1.684   3.784   9.176  0.9659  0.1712  1.3864
   99OSM   H13T 9909   1.560   3.684   9.090  0.3664  0.0580  0.2594
   99OSM   C14S 9910   1.761   3.593   9.104  0.7748 -0.0435 -0.2512
   99OSM   H14S 9911   1.729   3.487   9.110  1.5038 -0.4243 -2.2714
   99OSM   H14T 9912   1.854   3.609   9.162  1.2989 -1.9845 -0.4920
   99OSM   C15S 9913   1.802   3.637   8.957  0.0027 -0.0517 -0.2790
   99OSM   H15S 9914   1.836   3.743   8.960 -0.7153  0.1676  2.0587
   99OSM   H15T 9915   1.712   3.623   8.894 -0.0479 -1.9473  0.1378
   99OSM   C16S 9916   1.919   3.561   8.896 -0.5709 -0.2033  0.3203
   99OSM   H16S 9917   1.891   3.454   8.882 -0.0515 -0.4058  0.7927
   99OSM   H16T 9918   2.006   3.547   8.964 -0.9339 -0.4136  0.7519
   99OSM   C17S 9919   1.969   3.625   8.770 -0.2182  0.8898  0.7831
   99OSM   H17S 9920   1.993   3.734   8.771  0.0112  1.0621 -3.7578
   99OSM   H17T 9921   1.890   3.618   8.693 -0.1696 -0.3294  0.8278
   99OSM   C18S 9922   2.101   3.562   8.705  0.1352  0.4486 -0.2847
   99OSM   H18S 9923   2.070   3.457   8.691  0.1748  0.0187  2.4015
   99OSM   H18T 9924   2.181   3.565   8.782 -0.0954  1.2500 -0.0659
   99OSM   H18U 9925   2.118   3.614   8.608  1.4010 -0.8605 -0.8073
   99OSM    C1F 9926   2.152   3.591  10.284  0.1136  0.4901 -0.5481
   99OSM     OF 9927   2.136   3.501  10.370 -0.6121 -0.7055  0.2057
   99OSM    C2F 9928   2.287   3.604  10.218 -0.0023 -0.5216  0.5895
   99OSM    H2F 9929   2.357   3.583  10.302 -0.4332 -0.4442  0.9728
   99OSM    H2G 9930   2.310   3.710  10.197  0.1645 -0.5537  0.6087
   99OSM    C3F 9931   2.292   3.496  10.109 -0.3738 -0.5478 -0.9637
   99OSM    H3F 9932   2.392   3.516  10.065 -0.6691  1.8768 -0.6528
   99OSM    H3G 9933   2.289   3.397  10.161 -1.2422  0.1421  0.3576
   99OSM    C4F 9934   2.187   3.502   9.999  0.1683 -0.2907 -0.2349
   99OSM    H4F 9935   2.158   3.608   9.985  1.0978  0.3124  1.9201
   99OSM    H4G 9936   2.097   3.447  10.030 -0.6610  0.6251 -0.9408
   99OSM    C5F 9937   2.233   3.421   9.880  0.5863  0.0946  0.4180
   99OSM    H5F 9938   2.251   3.314   9.904 -0.6256 -0.7972 -2.2540
   99OSM    H5G 9939   2.325   3.468   9.840 -0.3039  3.3139  1.8452
   99OSM    C6F 9940   2.135   3.416   9.760 -0.2365 -0.2193 -0.3444
   99OSM    H6F 9941   2.135   3.522   9.727  1.8615  0.3988  1.4590
   99OSM    H6G 9942   2.038   3.381   9.801  0.6975  0.1456  2.3798
   99OSM    C7F 9943   2.191   3.328   9.648  0.0437  0.2863  0.1108
   99OSM    H7F 9944   2.198   3.223   9.682  4.3614  0.0248 -1.0779
   99OSM    H7G 9945   2.295   3.365   9.634  0.5796 -0.9934  0.5857
   99OSM    C8F 9946   2.114   3.354   9.513 -0.3075 -0.3074  0.2635
   99OSM    H8F 9947   2.185   3.335   9.430  0.3282  0.3731  0.6451
   99OSM    H8G 9948   2.082   3.459   9.498 -2.1182 -0.8437  0.1487
   99OSM    C9F 9949   1.996   3.266   9.513  0.4643  0.4090 -0.1088
   99OSM    H9F 9950   1.978   3.223   9.613 -0.9571  0.8835 -0.1433
   99OSM   C10F 9951   1.907   3.251   9.410 -0.4817  0.1856 -0.6076
   99OSM   H10F 9952   1.812   3.199   9.428  0.4422 -0.5922  2.8251
   99OSM   C11F 9953   1.917   3.327   9.283  0.5630 -0.5019 -0.4995
   99OSM   H11F 9954   1.973   3.422   9.297  0.9707 -1.0188  1.8316
   99OSM   H11G 9955   1.816   3.365   9.258  1.4864  0.6187 -2.7879
   99OSM   C12F 9956   1.977   3.237   9.166 -0.1223  0.1066  0.2048
   99OSM   H12F 9957   1.931   3.266   9.069  0.7793 -1.7319 -0.8095
   99OSM   H12G 9958   1.941   3.135   9.189 -1.4162  0.2386 -1.0511
   99OSM   C13F 9959   2.128   3.262   9.139  0.3818  0.2489  0.1421
   99OSM   H13F 9960   2.174   3.247   9.239 -0.3267 -2.2070  0.1688
   99OSM   H13G 9961   2.145   3.369   9.114 -1.0020  0.5851  0.5426
   99OSM   C14F 9962   2.182   3.156   9.036 -0.4528 -0.3776  0.6701
   99OSM   H14F 9963   2.152   3.192   8.936  0.8445  1.4631  0.9074
   99OSM   H14G 9964   2.135   3.061   9.070 -1.1018 -0.6383 -0.8790
   99OSM   C15F 9965   2.338   3.145   9.033 -0.0951  0.3799  0.3589
   99OSM   H15F 9966   2.364   3.214   9.117 -1.4725  0.7278  0.5168
   99OSM   H15G 9967   2.385   3.196   8.946  1.2061 -1.0077  0.1940
   99OSM   C16F 9968   2.396   3.009   9.060 -0.9928  0.0897 -0.3867
   99OSM   H16F 9969   2.332   2.953   9.132 -0.1514  0.3680  0.6010
   99OSM   H16G 9970   2.494   3.016   9.112 -0.7239  0.9104 -0.9788
   99OSM   C17F 9971   2.418   2.949   8.929  0.4350  0.5765 -0.5604
   99OSM   H17F 9972   2.488   3.008   8.866  0.3818  2.2226  0.8414
   99OSM   H17G 9973   2.320   2.941   8.876 -1.0545  1.6605  1.8241
   99OSM   C18F 9974   2.478   2.807   8.949  0.8175 -1.1059  0.2174
   99OSM   H18F 9975   2.570   2.805   9.010  0.8034 -1.0610  0.2407
   99OSM   H18G 9976   2.505   2.766   8.849 -0.5391  0.5359 -0.8874
   99OSM   H18H 9977   2.397   2.745   8.994  0.9191 -0.5142  1.2507
  100OSM      N 9978   3.668   4.355  10.884  0.2048 -0.2132  0.3342
  100OSM    C15 9979   3.544   4.405  10.812 -0.3452  0.2033 -0.3448
  100OSM   H15A 9980   3.493   4.323  10.763  1.2083  0.0974 -1.8667
  100OSM   H15B 9981   3.566   4.482  10.740  0.3539  1.7853  1.4675
  100OSM   H15C 9982   3.477   4.449  10.885 -1.1993  0.7092 -1.4076
  100OSM    C14 9983   3.732   4.458  10.969 -0.0468  0.4473  0.1452
  100OSM   H14A 9984   3.656   4.490  11.039  0.5696 -0.8459  1.4529
  100OSM   H14B 9985   3.746   4.543  10.904 -2.0358  0.0222 -0.9088
  100OSM   H14C 9986   3.805   4.422  11.041  2.1055  1.4672 -1.4027
  100OSM    C13 9987   3.621   4.237  10.958 -0.5875  1.3036 -0.1739
  100OSM   H13A 9988   3.542   4.270  11.024 -1.7479 -0.9065 -0.3612
  100OSM   H13B 9989   3.704   4.192  11.011 -0.3658 -1.6890 -2.7523
  100OSM   H13C 9990   3.574   4.157  10.903  3.3229 -2.1441  0.9720
  100OSM    C12 9991   3.765   4.303  10.778 -0.2422 -0.0041 -0.9345
  100OSM   H12A 9992   3.788   4.377  10.703  0.9064  1.1846  0.5116
  100OSM   H12B 9993   3.723   4.218  10.725  0.8098 -0.8898 -0.3986
  100OSM    C11 9994   3.904   4.250  10.825  0.0046 -0.2814  0.0916
  100OSM   H11A 9995   3.952   4.328  10.889 -2.1919  1.2753 -0.0721
  100OSM   H11B 9996   3.976   4.247  10.740  1.3380  1.4638  1.0787
  100OSM      P 9997   3.888   3.997  10.821  0.0668 -0.1543  0.4272
  100OSM    O13 9998   3.919   3.894  10.920 -0.4910 -0.2521  0.3686
  100OSM    O14 9999   3.763   3.996  10.744 -0.5736 -0.2433 -1.0361
  100OSM    O1110000   4.022   4.006  10.727  0.5764 -0.4261  0.4914
  100OSM    O1210001   3.889   4.126  10.899 -0.2000 -0.3947  0.2696
  100OSM    C1S10002   4.037   3.907  10.622  0.3253  0.3862 -0.4195
  100OSM    H1S10003   3.981   3.815  10.647  0.0277  0.7032  0.0951
  100OSM    H1T10004   4.142   3.872  10.622  0.0289 -0.6291 -2.1983
  100OSM     NF10005   3.999   3.847  10.379 -0.1065 -0.1736  0.8338
  100OSM    HNF10006   4.055   3.853  10.297  0.3335  1.2970  1.2068
  100OSM    C2S10007   3.994   3.957  10.476  0.2064  0.0342 -0.6586
  100OSM    H2S10008   3.891   3.998  10.483  0.1517 -0.3991  1.7970
  100OSM    C3S10009   4.092   4.070  10.434 -0.6177 -0.9635  0.0074
  100OSM    H3S10010   4.186   4.016  10.411 -1.0969 -1.2120 -1.5070
  100OSM     O310011   4.119   4.159  10.544 -0.1631  0.3192 -0.2929
  100OSM    HO310012   4.094   4.103  10.618 -1.4162 -0.3391 -1.1916
  100OSM    C4S10013   4.048   4.144  10.305 -0.7182 -0.3993 -0.1785
  100OSM    H4S10014   4.068   4.084  10.214 -1.8836 -2.6911  0.9774
  100OSM    C5S10015   3.988   4.264  10.293  0.0158  0.5546 -0.7823
  100OSM    H5S10016   3.953   4.315  10.384  1.1397 -4.3775  2.7833
  100OSM    C6S10017   3.971   4.332  10.161 -0.2737 -0.2564  0.5843
  100OSM    H6S10018   3.999   4.437  10.186  0.5212 -0.5420  0.9149
  100OSM    H6T10019   3.861   4.325  10.147 -0.3103  1.4111 -0.1399
  100OSM    C7S10020   4.039   4.289  10.028  0.4069  0.3780  0.2984
  100OSM    H7S10021   4.017   4.182  10.007  1.2672  0.3077 -0.3189
  100OSM    H7T10022   4.150   4.299  10.032  0.4790 -0.2247  0.0489
  100OSM    C8S10023   3.997   4.357   9.896 -0.7315  0.5673 -0.2947
  100OSM    H8S10024   3.891   4.388   9.900  0.0927  3.8280 -0.7376
  100OSM    H8T10025   3.994   4.276   9.820 -0.9488  0.5300 -0.2472
  100OSM    C9S10026   4.095   4.466   9.838 -0.7131  0.0487 -0.0547
  100OSM    H9S10027   4.146   4.511   9.926 -0.1032  0.7077 -0.7327
  100OSM    H9T10028   4.034   4.539   9.781  1.9259  0.8563 -2.0648
  100OSM   C10S10029   4.199   4.413   9.731  0.5837  0.6611 -0.2670
  100OSM   H10S10030   4.142   4.336   9.675  0.9968  0.6745 -0.7117
  100OSM   H10T10031   4.293   4.376   9.776  1.0283  0.5139 -1.2916
  100OSM   C11S10032   4.237   4.523   9.625  0.0620  0.3554 -0.0712
  100OSM   H11S10033   4.274   4.612   9.680 -3.5200  1.7245  0.4107
  100OSM   H11T10034   4.143   4.561   9.578 -0.8428 -2.2327 -0.4866
  100OSM   C12S10035   4.327   4.480   9.514  0.1236  0.3858  0.7827
  100OSM   H12S10036   4.284   4.391   9.463  0.9411  0.6239 -0.3502
  100OSM   H12T10037   4.428   4.456   9.552  0.3562 -1.4835 -0.8436
  100OSM   C13S10038   4.340   4.590   9.401 -0.3072  0.3481  0.0081
  100OSM   H13S10039   4.377   4.679   9.456  0.0050  1.5270 -1.9978
  100OSM   H13T10040   4.243   4.607   9.349 -0.3034 -2.0315 -0.9256
  100OSM   C14S10041   4.449   4.555   9.290 -0.6733 -0.6966  0.1167
  100OSM   H14S10042   4.412   4.474   9.224 -0.8714 -0.8159  0.3748
  100OSM   H14T10043   4.539   4.525   9.347 -0.7019 -0.2234  0.4177
  100OSM   C15S10044   4.476   4.688   9.210 -0.3748 -0.2357  0.3475
  100OSM   H15S10045   4.585   4.685   9.190 -0.0045  0.4732  2.1473
  100OSM   H15T10046   4.461   4.776   9.276  1.0313 -0.0037  0.3863
  100OSM   C16S10047   4.391   4.697   9.084 -0.8082 -0.6581  0.3675
  100OSM   H16S10048   4.284   4.683   9.113 -1.1528  0.1580 -0.4469
  100OSM   H16T10049   4.422   4.611   9.020 -1.3637  0.0544 -0.8980
  100OSM   C17S10050   4.401   4.820   8.995 -0.0535 -0.0980 -0.2451
  100OSM   H17S10051   4.323   4.805   8.917  1.3387 -1.7857 -1.3882
  100OSM   H17T10052   4.497   4.825   8.938  0.8354 -0.7875  1.1458
  100OSM   C18S10053   4.387   4.952   9.078  0.3766 -0.3507 -0.2958
  100OSM   H18S10054   4.398   5.039   9.010  4.1608 -0.0726  0.4747
  100OSM   H18T10055   4.472   4.954   9.149  1.7128  1.4231 -1.8070
  100OSM   H18U10056   4.290   4.947   9.131 -0.4149  0.2137 -1.6192
  100OSM    C1F10057   3.909   3.744  10.382 -0.5250  0.6084 -0.0888
  100OSM     OF10058   3.817   3.738  10.461 -0.1980 -0.3493 -0.4352
  100OSM    C2F10059   3.944   3.628  10.287  0.2356 -0.0310 -0.5329
  100OSM    H2F10060   3.845   3.577  10.286 -0.5174  1.3795 -0.0170
  100OSM    H2G10061   4.020   3.566  10.340  1.5883  1.7367 -0.3389
  100OSM    C3F10062   3.996   3.671  10.149 -0.2751  0.0577 -0.1483
  100OSM    H3F10063   4.099   3.707  10.172  0.7309 -1.1578 -2.4206
  100OSM    H3G10064   3.934   3.752  10.105  0.1317  1.3522  1.5458
  100OSM    C4F10065   3.998   3.563  10.038  0.0127 -0.7721  0.6972
  100OSM    H4F10066   3.899   3.514  10.030 -2.1563  3.1005  1.0345
  100OSM    H4G10067   4.065   3.485  10.079  0.6517 -1.2877 -1.2521
  100OSM    C5F10068   4.031   3.611   9.896  0.4751 -0.1736  0.2027
  100OSM    H5F10069   4.140   3.628   9.885  0.8373 -2.9203 -1.0743
  100OSM    H5G10070   3.980   3.706   9.866  0.6416 -0.1813 -0.1090
  100OSM    C6F10071   3.967   3.508   9.803 -0.4627  0.1426  0.2487
  100OSM    H6F10072   3.865   3.484   9.842 -1.2048  1.7685 -0.5961
  100OSM    H6G10073   4.033   3.419   9.803 -1.0391 -0.3763 -2.4407
  100OSM    C7F10074   3.951   3.568   9.660 -0.4365 -0.1534 -0.2174
  100OSM    H7F10075   4.041   3.626   9.630  0.4472 -0.8515  1.0065
  100OSM    H7G10076   3.862   3.633   9.667  0.8224  1.5070  1.0530
  100OSM    C8F10077   3.909   3.466   9.554  0.2193  0.6857  0.0634
  100OSM    H8F10078   3.846   3.523   9.484 -0.8957 -0.0397  0.4468
  100OSM    H8G10079   3.855   3.382   9.602 -0.3448  0.8461 -0.2858
  100OSM    C9F10080   4.031   3.405   9.487  0.0069 -0.0452 -0.0580
  100OSM    H9F10081   4.094   3.336   9.545 -1.0915  0.0588  1.2962
  100OSM   C10F10082   4.089   3.439   9.370 -0.5993 -0.4217  0.2153
  100OSM   H10F10083   4.187   3.393   9.348 -1.0827 -1.0196 -0.7533
  100OSM   C11F10084   4.044   3.542   9.275 -0.1381  0.2173 -0.0856
  100OSM   H11F10085   4.117   3.626   9.276 -0.7160  0.7420  1.5858
  100OSM   H11G10086   3.948   3.580   9.315  0.3997  0.2368  1.2197
  100OSM   C12F10087   4.005   3.488   9.146 -0.0522 -0.4598 -0.0362
  100OSM   H12F10088   3.934   3.563   9.106 -0.6659 -2.1185 -2.2451
  100OSM   H12G10089   3.948   3.394   9.161 -0.5234 -0.0218  1.0016
  100OSM   C13F10090   4.123   3.476   9.049  0.2113 -0.0117  0.4889
  100OSM   H13F10091   4.184   3.391   9.086 -0.3549 -0.7250 -0.1881
  100OSM   H13G10092   4.193   3.563   9.047 -0.1780  0.4388 -4.0625
  100OSM   C14F10093   4.094   3.426   8.906 -0.2132 -0.1231  0.0842
  100OSM   H14F10094   4.010   3.494   8.879 -0.5748 -0.2670  0.8216
  100OSM   H14G10095   4.047   3.326   8.908  1.2541 -0.8295  0.8736
  100OSM   C15F10096   4.199   3.423   8.793  0.4403  0.7708  0.1139
  100OSM   H15F10097   4.137   3.412   8.701  0.1638 -0.0358  0.3958
  100OSM   H15G10098   4.271   3.341   8.814  1.1065  1.1562 -0.6319
  100OSM   C16F10099   4.285   3.543   8.777 -0.5417 -0.2588  0.7805
  100OSM   H16F10100   4.347   3.556   8.868  1.1699  3.1078 -0.7010
  100OSM   H16G10101   4.221   3.633   8.767 -0.0919 -0.1556 -1.9744
  100OSM   C17F10102   4.377   3.518   8.659 -1.0637  0.1659 -1.0788
  100OSM   H17F10103   4.318   3.478   8.574 -0.6137 -1.3179 -0.7335
  100OSM   H17G10104   4.453   3.436   8.667  1.0901  1.9176 -2.4720
  100OSM   C18F10105   4.457   3.645   8.625 -0.0654  0.7320 -0.1438
  100OSM   H18F10106   4.532   3.617   8.549 -0.9242 -0.5404 -0.5463
  100OSM   H18G10107   4.520   3.681   8.710  1.0385 -0.1282 -0.5662
  100OSM   H18H10108   4.396   3.716   8.566 -1.0589 -1.7249 -2.2849
  101OSM      N10109   6.016   2.998  11.142 -0.7581  0.9394  0.1510
  101OSM    C1510110   6.062   2.934  11.275  0.1299 -0.3083  0.3538
  101OSM   H15A10111   6.105   3.006  11.343  0.6841 -1.7802  1.6227
  101OSM   H15B10112   6.128   2.850  11.259  0.4682 -0.1733  0.9823
  101OSM   H15C10113   5.976   2.891  11.323 -1.4407  0.0881 -1.9665
  101OSM    C1410114   5.916   2.897  11.089 -0.9294  0.3109  0.2866
  101OSM   H14A10115   5.967   2.811  11.048 -0.8398  0.9201 -0.9165
  101OSM   H14B10116   5.853   2.937  11.011 -0.8051  2.9916  1.4641
  101OSM   H14C10117   5.841   2.864  11.159  0.6450 -1.3017  1.3089
  101OSM    C1310118   5.937   3.123  11.158  0.5125 -0.0297  0.0127
  101OSM   H13A10119   5.911   3.165  11.062  3.0822 -1.5447 -1.4586
  101OSM   H13B10120   6.007   3.196  11.197  1.1702 -1.6966  2.1409
  101OSM   H13C10121   5.868   3.107  11.240  1.7576 -0.1458  1.0711
  101OSM    C1210122   6.135   3.010  11.044  0.0803 -0.0102  0.2693
  101OSM   H12A10123   6.194   2.921  11.029 -0.7588 -0.4204 -0.7199
  101OSM   H12B10124   6.203   3.085  11.081  0.7149 -1.0992  1.3843
  101OSM    C1110125   6.094   3.061  10.894 -0.0383 -0.5849  0.8451
  101OSM   H11A10126   6.010   3.002  10.853  0.0800 -0.2175  0.0587
  101OSM   H11B10127   6.184   3.037  10.833 -0.8596  0.6204 -0.9180
  101OSM      P10128   6.173   3.303  10.851 -0.2097  0.1260 -0.2875
  101OSM    O1310129   6.126   3.438  10.901  0.2281  0.7275 -0.2220
  101OSM    O1410130   6.313   3.259  10.897  0.1423  0.0768 -0.3027
  101OSM    O1110131   6.174   3.306  10.692 -0.0097  0.6154  0.4971
  101OSM    O1210132   6.061   3.199  10.895  0.0799  0.1307  0.1169
  101OSM    C1S10133   6.076   3.383  10.621  0.5936  0.9000 -0.1386
  101OSM    H1S10134   6.107   3.490  10.626 -0.0368  1.0219  1.9340
  101OSM    H1T10135   5.973   3.376  10.662 -0.5140 -0.1275 -2.8784
  101OSM     NF10136   5.985   3.427  10.394  0.6863  0.4694 -0.4295
  101OSM    HNF10137   5.903   3.379  10.364  0.8009 -0.7206  1.0437
  101OSM    C2S10138   6.073   3.338  10.473  0.3173 -0.5067 -0.1920
  101OSM    H2S10139   6.175   3.353  10.431  1.5582 -3.3617  1.5100
  101OSM    C3S10140   6.029   3.185  10.450  0.5039  0.4482 -0.5091
  101OSM    H3S10141   5.918   3.189  10.450  0.4931  0.6826 -2.0842
  101OSM     O310142   6.067   3.099  10.557  0.4192 -0.6262  0.1163
  101OSM    HO310143   6.099   3.160  10.625  2.1193  1.5477 -2.4264
  101OSM    C4S10144   6.082   3.128  10.322 -0.1948 -0.6092  0.0994
  101OSM    H4S10145   6.192   3.137  10.311 -0.4245  0.3758 -1.9415
  101OSM    C5S10146   6.018   3.089  10.211  0.0716 -0.0890 -0.4690
  101OSM    H5S10147   5.910   3.106  10.201  0.2212  0.8543 -0.5419
  101OSM    C6S10148   6.093   3.036  10.096 -0.0091 -0.4045  0.3114
  101OSM    H6S10149   6.099   2.930  10.062  1.8378  0.0415 -0.8989
  101OSM    H6T10150   6.202   3.051  10.100  0.2268 -2.0889  2.9082
  101OSM    C7S10151   6.041   3.102   9.969  0.2239 -0.1665  0.4352
  101OSM    H7S10152   6.050   3.213   9.973 -2.3734  0.0774  3.1264
  101OSM    H7T10153   5.935   3.090   9.939  0.5467  0.4523 -1.0272
  101OSM    C8S10154   6.125   3.057   9.839  0.3963 -0.3309  0.0874
  101OSM    H8S10155   6.119   2.948   9.816  0.2715 -0.4062  0.4722
  101OSM    H8T10156   6.227   3.081   9.878  0.0452 -0.2014  0.9499
  101OSM    C9S10157   6.087   3.132   9.718  0.0934 -0.0115 -0.0731
  101OSM    H9S10158   6.096   3.242   9.732  0.8561 -0.0060 -0.5625
  101OSM    H9T10159   5.984   3.106   9.687 -0.5707  1.2969  0.9148
  101OSM   C10S10160   6.184   3.094   9.605 -0.3045  0.6612  0.1644
  101OSM   H10S10161   6.200   2.985   9.590  0.3102  0.3351  2.6901
  101OSM   H10T10162   6.282   3.132   9.642  0.2322  0.8663 -1.4060
  101OSM   C11S10163   6.151   3.153   9.469  0.5284  0.1403 -0.2004
  101OSM   H11S10164   6.148   3.264   9.478 -0.3076  0.0207  1.5694
  101OSM   H11T10165   6.052   3.113   9.437  0.6807 -1.1007  0.7804
  101OSM   C12S10166   6.255   3.115   9.359 -0.1066 -0.0141 -0.2117
  101OSM   H12S10167   6.283   3.010   9.379  1.7676  0.8005  1.7943
  101OSM   H12T10168   6.346   3.177   9.374  0.2135 -0.3607 -0.7142
  101OSM   C13S10169   6.204   3.138   9.223 -0.0069  0.4949  0.7223
  101OSM   H13S10170   6.162   3.240   9.217 -3.2997 -0.7676  0.2349
  101OSM   H13T10171   6.131   3.058   9.196  0.3121  0.0599  1.1272
  101OSM   C14S10172   6.311   3.125   9.110  0.3195 -0.2053  0.8934
  101OSM   H14S10173   6.358   3.025   9.116 -0.8126 -0.7272  1.2605
  101OSM   H14T10174   6.390   3.200   9.129  1.2329 -1.0119  0.3619
  101OSM   C15S10175   6.260   3.130   8.956 -0.5199 -0.2393 -0.0383
  101OSM   H15S10176   6.204   3.224   8.936  1.7677  0.7788 -2.2770
  101OSM   H15T10177   6.195   3.042   8.938  0.4305 -0.8924 -0.3667
  101OSM   C16S10178   6.376   3.139   8.852  0.3694  0.0678 -0.1128
  101OSM   H16S10179   6.446   3.216   8.890 -0.3115  0.1459  1.0009
  101OSM   H16T10180   6.334   3.180   8.757  1.8673 -2.1597 -1.8450
  101OSM   C17S10181   6.440   3.004   8.819 -0.1603  0.4587 -0.3260
  101OSM   H17S10182   6.362   2.941   8.770  0.1003  0.6900 -1.0535
  101OSM   H17T10183   6.466   2.956   8.916  0.7929 -3.3127 -2.2693
  101OSM   C18S10184   6.560   3.013   8.729  0.2991  0.3395 -0.2754
  101OSM   H18S10185   6.635   3.082   8.774  0.8111  0.5150 -1.3657
  101OSM   H18T10186   6.532   3.057   8.631 -1.3602 -0.1271 -0.0473
  101OSM   H18U10187   6.612   2.916   8.722 -3.4658 -1.8898  0.0199
  101OSM    C1F10188   5.998   3.561  10.382  0.0412 -0.5569 -0.2312
  101OSM     OF10189   6.105   3.627  10.404  0.0787  0.0761 -0.2592
  101OSM    C2F10190   5.881   3.639  10.324  0.7042 -0.4026  0.0814
  101OSM    H2F10191   5.850   3.694  10.416 -1.1781 -1.8137  0.3543
  101OSM    H2G10192   5.798   3.573  10.292 -0.7054  0.6981  1.3223
  101OSM    C3F10193   5.931   3.744  10.214  0.2603  0.5056 -0.6499
  101OSM    H3F10194   6.021   3.800  10.246  1.9563 -1.8777 -0.9674
  101OSM    H3G10195   5.848   3.817  10.200  0.9476  0.8218 -3.7546
  101OSM    C4F10196   5.963   3.683  10.075 -0.0298 -0.0760 -0.1715
  101OSM    H4F10197   5.875   3.653  10.013  0.6719 -4.4196  0.5990
  101OSM    H4G10198   6.014   3.587  10.095  0.8473  0.5348  0.6030
  101OSM    C5F10199   6.061   3.766   9.999 -0.0956 -0.0641  0.1407
  101OSM    H5F10200   6.158   3.777  10.052 -0.3938  1.6717  0.3610
  101OSM    H5G10201   6.014   3.865   9.983 -0.0728  0.4670  2.9628
  101OSM    C6F10202   6.095   3.693   9.861  0.0500 -0.0087 -0.1345
  101OSM    H6F10203   6.133   3.592   9.887 -0.4134 -0.0888  0.2519
  101OSM    H6G10204   6.000   3.679   9.804  0.7350 -2.4630 -0.7957
  101OSM    C7F10205   6.188   3.770   9.760  0.0652 -0.2211 -0.1134
  101OSM    H7F10206   6.285   3.780   9.813 -0.3860  0.8048  0.5475
  101OSM    H7G10207   6.159   3.875   9.740  3.1652  0.7284 -0.1518
  101OSM    C8F10208   6.215   3.690   9.629 -0.1891 -0.0503  0.9572
  101OSM    H8F10209   6.251   3.587   9.648  0.6118 -0.0627 -0.4566
  101OSM    H8G10210   6.298   3.732   9.569 -0.0201 -0.3808  0.9624
  101OSM    C9F10211   6.092   3.684   9.537 -0.5937 -0.1250 -0.3073
  101OSM    H9F10212   5.997   3.668   9.591 -0.9061  1.8675 -0.1818
  101OSM   C10F10213   6.070   3.698   9.403 -0.0240  0.2386 -0.4215
  101OSM   H10F10214   5.972   3.696   9.353  0.6234 -0.7501 -1.6896
  101OSM   C11F10215   6.179   3.720   9.309  0.0555 -0.3457  0.1935
  101OSM   H11F10216   6.246   3.807   9.324 -0.8328  0.8109 -2.1302
  101OSM   H11G10217   6.126   3.733   9.212  1.5971 -1.1118 -0.7839
  101OSM   C12F10218   6.259   3.591   9.300 -0.2859 -0.1468  0.2030
  101OSM   H12F10219   6.210   3.491   9.305  0.6483 -0.5506  1.7719
  101OSM   H12G10220   6.338   3.589   9.378  2.4383  0.2457 -2.3643
  101OSM   C13F10221   6.338   3.591   9.169 -0.7115  0.4894  0.9568
  101OSM   H13F10222   6.420   3.516   9.177 -1.5886 -0.7469 -0.9445
  101OSM   H13G10223   6.381   3.692   9.153  1.4499 -0.6017 -0.7487
  101OSM   C14F10224   6.248   3.545   9.056  0.3651 -0.0665  0.0436
  101OSM   H14F10225   6.157   3.607   9.040 -0.8587 -1.7407  0.1774
  101OSM   H14G10226   6.205   3.447   9.088 -1.0386  0.4557 -0.1781
  101OSM   C15F10227   6.312   3.543   8.921 -0.9063 -0.5216 -0.5344
  101OSM   H15F10228   6.236   3.540   8.840 -1.8539  2.8188  0.0912
  101OSM   H15G10229   6.378   3.453   8.916 -1.5081 -1.0068  0.0933
  101OSM   C16F10230   6.392   3.671   8.901 -0.0519 -0.1066  0.0191
  101OSM   H16F10231   6.495   3.675   8.941 -0.2557  2.7329  0.4373
  101OSM   H16G10232   6.337   3.754   8.951 -0.0407  0.0700 -0.2642
  101OSM   C17F10233   6.399   3.712   8.749  0.3369 -0.4041 -0.2776
  101OSM   H17F10234   6.299   3.744   8.713  0.2120  0.1585  0.5338
  101OSM   H17G10235   6.433   3.626   8.687  2.3808  0.3050 -0.2240
  101OSM   C18F10236   6.508   3.824   8.722  0.3260  0.3333 -0.4752
  101OSM   H18F10237   6.605   3.790   8.763 -0.0431 -0.2946 -0.1148
  101OSM   H18G10238   6.485   3.926   8.761  0.8973  0.2863 -0.0063
  101OSM   H18H10239   6.528   3.827   8.613  2.4959 -0.2653 -0.1288
  102OSM      N10240   2.725   6.033  10.535 -0.5419  0.2691  0.3411
  102OSM    C1510241   2.622   5.923  10.548 -0.9931 -0.1731  0.0292
  102OSM   H15A10242   2.653   5.854  10.471 -0.4623 -0.1696  0.2380
  102OSM   H15B10243   2.527   5.971  10.531 -0.3284  0.7410 -1.3756
  102OSM   H15C10244   2.622   5.876  10.645 -1.8895 -2.4605 -0.9982
  102OSM    C1410245   2.709   6.078  10.397  0.8448 -0.2920 -0.4096
  102OSM   H14A10246   2.784   6.149  10.369 -0.4675  0.2967 -2.6386
  102OSM   H14B10247   2.611   6.124  10.396  0.2241 -1.4360  1.6575
  102OSM   H14C10248   2.705   5.998  10.325 -1.8113 -0.6578  0.0204
  102OSM    C1310249   2.711   6.133  10.638 -0.2483 -0.8007 -0.1881
  102OSM   H13A10250   2.610   6.163  10.663 -0.4412  1.0095 -2.6796
  102OSM   H13B10251   2.777   6.217  10.619 -0.8633  0.0301  1.2036
  102OSM   H13C10252   2.748   6.091  10.730  0.9587 -0.2079 -0.3753
  102OSM    C1210253   2.867   5.967  10.546  0.0825 -0.9862  0.5517
  102OSM   H12A10254   2.935   6.047  10.522 -2.2803  0.9068 -0.3096
  102OSM   H12B10255   2.868   5.884  10.478 -0.6048 -1.7911  1.4851
  102OSM    C1110256   2.906   5.904  10.691  0.1964  0.2455  0.1588
  102OSM   H11A10257   2.892   5.983  10.768  1.2058  2.1436 -1.4956
  102OSM   H11B10258   3.011   5.870  10.696 -0.5121 -1.8615  1.9365
  102OSM      P10259   2.854   5.654  10.699 -0.4852 -0.2045  0.7180
  102OSM    O1310260   2.953   5.607  10.797  0.1397 -0.2384 -0.0991
  102OSM    O1410261   2.728   5.579  10.700 -0.0460 -0.1737  0.3875
  102OSM    O1110262   2.914   5.671  10.554  0.9690  0.0768 -0.4192
  102OSM    O1210263   2.816   5.803  10.727 -0.5211 -0.4870  0.2407
  102OSM    C1S10264   2.891   5.561  10.467  0.1353 -0.0090  0.3665
  102OSM    H1S10265   2.789   5.570  10.422 -0.1609  3.7819  1.4561
  102OSM    H1T10266   2.913   5.462  10.511 -0.4218  0.4851  1.8244
  102OSM     NF10267   2.952   5.484  10.239 -0.1817 -0.2976 -0.4489
  102OSM    HNF10268   3.014   5.406  10.239  1.5954  1.0546 -1.0080
  102OSM    C2S10269   2.985   5.581  10.342 -0.0141  0.2747 -0.0709
  102OSM    H2S10270   2.961   5.683  10.305  0.7373  1.1351  1.6823
  102OSM    C3S10271   3.143   5.587  10.382  0.2407  0.2333 -1.0209
  102OSM    H3S10272   3.179   5.489  10.420  0.1897  0.2735 -0.8656
  102OSM     O310273   3.167   5.684  10.494 -0.7827  0.2531  0.3574
  102OSM    HO310274   3.079   5.686  10.531 -1.0738 -3.2546  0.1320
  102OSM    C4S10275   3.216   5.629  10.259 -0.3899  0.9409  0.2042
  102OSM    H4S10276   3.250   5.549  10.191 -0.1381  1.9118 -0.8413
  102OSM    C5S10277   3.224   5.758  10.212 -0.4545  0.3241 -0.2895
  102OSM    H5S10278   3.177   5.838  10.271  3.1574  2.2689  0.2478
  102OSM    C6S10279   3.292   5.813  10.087  0.2808 -0.6867  0.1077
  102OSM    H6S10280   3.395   5.849  10.107 -0.4460  1.3587  0.4387
  102OSM    H6T10281   3.234   5.905  10.063 -0.0739 -0.5008  1.5796
  102OSM    C7S10282   3.297   5.716   9.973 -0.4713 -0.0338  0.1303
  102OSM    H7S10283   3.355   5.621   9.984 -0.1450  0.2553  0.9391
  102OSM    H7T10284   3.352   5.757   9.885 -1.9364 -0.3524 -0.9691
  102OSM    C8S10285   3.166   5.684   9.908  0.3293  0.5119 -0.3353
  102OSM    H8S10286   3.119   5.778   9.871 -0.7009  1.1482  2.3507
  102OSM    H8T10287   3.101   5.643   9.988  0.3594  0.7764 -0.1728
  102OSM    C9S10288   3.170   5.566   9.808  0.0625 -0.1953 -0.5355
  102OSM    H9S10289   3.172   5.473   9.869 -0.1084  0.9721  1.3367
  102OSM    H9T10290   3.266   5.575   9.754 -0.8787 -1.2676 -2.5276
  102OSM   C10S10291   3.056   5.572   9.707  0.1106  0.7703  0.1244
  102OSM   H10S10292   2.974   5.635   9.747 -0.6870 -0.6867  0.9088
  102OSM   H10T10293   3.020   5.466   9.700 -0.9465  1.1789 -1.0940
  102OSM   C11S10294   3.106   5.591   9.570 -0.5567 -0.2177  0.2915
  102OSM   H11S10295   3.184   5.516   9.548 -0.7638  0.1911 -2.1123
  102OSM   H11T10296   3.160   5.687   9.555  1.1973 -1.1572  0.4242
  102OSM   C12S10297   2.997   5.582   9.457  0.4191 -0.2958  0.2597
  102OSM   H12S10298   2.910   5.651   9.468 -0.5628 -1.1492 -1.6155
  102OSM   H12T10299   2.943   5.485   9.458  1.7992 -1.2875 -3.6194
  102OSM   C13S10300   3.046   5.612   9.324 -0.5674 -0.3316  0.7626
  102OSM   H13S10301   3.092   5.519   9.286  0.7185  0.3258  0.6461
  102OSM   H13T10302   3.120   5.695   9.322 -0.9958  0.0558  0.8972
  102OSM   C14S10303   2.939   5.658   9.225  0.5723 -0.3898  0.6159
  102OSM   H14S10304   2.908   5.761   9.252 -1.5404 -0.6612 -0.5547
  102OSM   H14T10305   2.851   5.591   9.215  0.2241  0.0285  0.8702
  102OSM   C15S10306   3.010   5.663   9.086 -0.1687 -0.1872 -0.0214
  102OSM   H15S10307   3.068   5.570   9.074 -1.4522 -1.5292  3.0968
  102OSM   H15T10308   3.075   5.753   9.083 -0.6103  0.1878  1.1032
  102OSM   C16S10309   2.915   5.671   8.964  0.5466  0.5097 -0.3386
  102OSM   H16S10310   2.977   5.622   8.885  1.9495 -0.4075  1.2696
  102OSM   H16T10311   2.889   5.776   8.940  1.2845  0.9092  0.5473
  102OSM   C17S10312   2.779   5.593   8.974 -0.1639 -0.6239  0.2728
  102OSM   H17S10313   2.720   5.646   9.052 -1.5778 -1.4102 -0.2163
  102OSM   H17T10314   2.815   5.499   9.023  0.7393 -0.2506  0.3443
  102OSM   C18S10315   2.705   5.575   8.843  0.5721 -0.3236  0.3968
  102OSM   H18S10316   2.668   5.675   8.812 -0.1004 -1.0520 -1.2898
  102OSM   H18T10317   2.617   5.509   8.856  0.9893 -0.7219  1.3172
  102OSM   H18U10318   2.771   5.522   8.771 -1.7030 -0.0939 -1.9934
  102OSM    C1F10319   2.837   5.473  10.169 -0.5652 -0.2816 -0.3198
  102OSM     OF10320   2.749   5.560  10.172  0.0031  0.0285  0.0157
  102OSM    C2F10321   2.830   5.354  10.079 -0.1779 -0.3870 -0.0897
  102OSM    H2F10322   2.835   5.256  10.131  1.5348 -0.8305 -1.0118
  102OSM    H2G10323   2.925   5.346  10.021 -0.4694  1.5026 -0.8890
  102OSM    C3F10324   2.725   5.354   9.964 -0.4674 -0.1420  0.1575
  102OSM    H3F10325   2.719   5.452   9.913 -1.1771  0.3688  1.1920
  102OSM    H3G10326   2.627   5.333  10.011 -0.9799  0.3176 -0.7027
  102OSM    C4F10327   2.748   5.254   9.854 -0.3797  0.5108 -0.9887
  102OSM    H4F10328   2.754   5.153   9.901 -1.6963  0.0545 -1.7389
  102OSM    H4G10329   2.844   5.273   9.803 -0.9789 -0.5269 -2.5937
  102OSM    C5F10330   2.648   5.259   9.743 -0.1510 -0.1367 -0.3573
  102OSM    H5F10331   2.639   5.366   9.717  0.6056 -0.0727 -0.3778
  102OSM    H5G10332   2.549   5.214   9.766 -0.7633  0.5278 -1.5778
  102OSM    C6F10333   2.697   5.183   9.621 -0.1712 -0.0737  0.5204
  102OSM    H6F10334   2.728   5.081   9.652  0.4844 -1.4112 -3.8592
  102OSM    H6G10335   2.792   5.224   9.583 -1.3613  0.2188 -2.3561
  102OSM    C7F10336   2.610   5.159   9.499 -0.8794  0.0944 -0.2775
  102OSM    H7F10337   2.572   5.261   9.474  1.1840  1.5788  2.0280
  102OSM    H7G10338   2.529   5.092   9.534 -0.6979  0.1997  0.3676
  102OSM    C8F10339   2.675   5.080   9.386 -0.3487 -0.1731  0.2949
  102OSM    H8F10340   2.602   5.028   9.320 -0.5016  2.0711 -1.4352
  102OSM    H8G10341   2.724   4.990   9.429 -0.1816  0.1011  0.6861
  102OSM    C9F10342   2.767   5.171   9.306 -0.2276 -0.1096  0.1479
  102OSM    H9F10343   2.834   5.237   9.364 -1.1591  0.3780  0.6875
  102OSM   C10F10344   2.753   5.194   9.177 -0.1688 -0.2438  0.0031
  102OSM   H10F10345   2.831   5.255   9.128  1.8186 -1.3854  1.5733
  102OSM   C11F10346   2.662   5.131   9.074  0.6303  0.0790 -0.1373
  102OSM   H11F10347   2.568   5.088   9.114 -1.5252  0.9266 -3.8755
  102OSM   H11G10348   2.710   5.048   9.019  1.0307  1.4118 -1.8912
  102OSM   C12F10349   2.626   5.224   8.965  0.4232  0.4107 -0.3873
  102OSM   H12F10350   2.718   5.264   8.917  0.5612  2.2036  1.2072
  102OSM   H12G10351   2.581   5.313   9.014 -2.0277 -1.0794  0.1997
  102OSM   C13F10352   2.537   5.163   8.845 -0.5476  1.0623  1.1437
  102OSM   H13F10353   2.518   5.239   8.767 -0.7171 -0.7601 -0.6643
  102OSM   H13G10354   2.439   5.128   8.887 -1.0905 -0.5972 -1.3066
  102OSM   C14F10355   2.601   5.051   8.763 -0.6424  0.0400 -0.2847
  102OSM   H14F10356   2.620   4.953   8.813 -0.4773 -0.4612 -1.3120
  102OSM   H14G10357   2.700   5.089   8.730 -1.1629  3.8625  1.9383
  102OSM   C15F10358   2.534   5.025   8.625 -0.1346  0.2542 -0.2968
  102OSM   H15F10359   2.464   5.108   8.604  0.8868  1.2775  0.2626
  102OSM   H15G10360   2.489   4.923   8.625  0.4377 -0.0731  2.2994
  102OSM   C16F10361   2.643   5.039   8.515 -0.3102  0.9797  0.3843
  102OSM   H16F10362   2.735   4.977   8.514  0.9953  2.7871 -1.8245
  102OSM   H16G10363   2.682   5.143   8.514  2.5875  0.0265  2.0240
  102OSM   C17F10364   2.579   5.027   8.371  0.8405  0.2710  0.5479
  102OSM   H17F10365   2.488   5.090   8.366  1.0780  0.5749 -0.0930
  102OSM   H17G10366   2.547   4.921   8.365 -1.5037  0.9542 -0.0076
  102OSM   C18F10367   2.660   5.069   8.244  0.3025 -0.3711 -0.1695
  102OSM   H18F10368   2.683   4.978   8.184 -0.3726 -0.9025  0.3542
  102OSM   H18G10369   2.756   5.110   8.281  0.3041 -1.1254  0.6946
  102OSM   H18H10370   2.604   5.140   8.179  0.4620  0.3195  0.4431
  103OSM      N10371   1.184   2.299  11.054 -0.0415  0.2894  0.3074
  103OSM    C1510372   1.300   2.399  11.060  0.2731  0.2485 -0.1709
  103OSM   H15A10373   1.251   2.496  11.064 -0.3808 -0.0969  0.7917
  103OSM   H15B10374   1.368   2.374  10.981  2.5209 -1.2003  2.0838
  103OSM   H15C10375   1.358   2.377  11.149  0.1361 -1.8123 -0.5532
  103OSM    C1410376   1.240   2.164  11.096 -0.3785 -0.4558 -0.4658
  103OSM   H14A10377   1.164   2.091  11.069 -0.9755  0.2787 -0.8101
  103OSM   H14B10378   1.246   2.157  11.203 -0.5688  2.3870 -0.2042
  103OSM   H14C10379   1.334   2.149  11.047  1.4807  1.8138  2.1242
  103OSM    C1310380   1.075   2.340  11.140  0.2432  0.0707 -0.1544
  103OSM   H13A10381   1.036   2.434  11.104  0.8564  0.0771 -0.8274
  103OSM   H13B10382   1.111   2.367  11.238  0.8051 -1.0142 -0.0486
  103OSM   H13C10383   0.996   2.270  11.162 -0.6771  1.1877  0.1835
  103OSM    C1210384   1.134   2.285  10.908  0.1085 -0.4856  0.6486
  103OSM   H12A10385   1.107   2.385  10.878 -4.7166 -1.5178  0.7459
  103OSM   H12B10386   1.041   2.229  10.905 -0.6753  0.7863 -1.6740
  103OSM    C1110387   1.233   2.241  10.793  0.3443  0.8829 -0.6614
  103OSM   H11A10388   1.185   2.239  10.693  0.6207 -0.7132 -0.7915
  103OSM   H11B10389   1.263   2.135  10.810  1.7558  1.6810  2.8293
  103OSM      P10390   1.492   2.281  10.751 -0.0145  0.0484  0.2623
  103OSM    O1310391   1.581   2.398  10.765 -0.7905  0.3452  0.5152
  103OSM    O1410392   1.540   2.149  10.799 -0.5137 -0.2771 -0.2092
  103OSM    O1110393   1.482   2.264  10.594  0.7713 -0.5969  0.2227
  103OSM    O1210394   1.347   2.323  10.782  0.2574  0.1455  0.3832
  103OSM    C1S10395   1.393   2.338  10.520 -0.3076 -0.2095 -0.2315
  103OSM    H1S10396   1.382   2.442  10.556 -0.6255 -0.6862  1.1221
  103OSM    H1T10397   1.286   2.305  10.524  0.0354 -1.2267  1.4751
  103OSM     NF10398   1.315   2.439  10.307  0.7624 -0.1399  0.0235
  103OSM    HNF10399   1.234   2.405  10.260  0.0418 -1.1601  1.8726
  103OSM    C2S10400   1.412   2.349  10.367 -0.0303  0.5357 -0.4118
  103OSM    H2S10401   1.514   2.389  10.351  0.0908  0.5573  0.3633
  103OSM    C3S10402   1.409   2.198  10.311 -0.3747 -0.3513 -0.8897
  103OSM    H3S10403   1.307   2.154  10.313 -0.9720  0.9480 -1.5236
  103OSM     O310404   1.490   2.101  10.384  0.3196  0.2525 -0.1094
  103OSM    HO310405   1.531   2.155  10.452  0.4423  1.1296 -0.8561
  103OSM    C4S10406   1.450   2.210  10.161 -0.0680 -0.1599 -1.2142
  103OSM    H4S10407   1.544   2.265  10.141 -0.8745  0.3257 -4.1761
  103OSM    C5S10408   1.394   2.167  10.053 -0.0145 -0.1425  0.5472
  103OSM    H5S10409   1.307   2.102  10.070  1.4227 -1.7610  2.1666
  103OSM    C6S10410   1.441   2.189   9.909 -0.2098  0.1944 -0.4559
  103OSM    H6S10411   1.450   2.089   9.863  1.3342  0.7440 -1.4285
  103OSM    H6T10412   1.544   2.232   9.908 -0.5715  1.3920  2.3438
  103OSM    C7S10413   1.334   2.265   9.837 -0.3318  0.0383  0.5699
  103OSM    H7S10414   1.298   2.349   9.899 -0.7921  2.0958 -2.3044
  103OSM    H7T10415   1.251   2.190   9.839  1.2371 -1.8270 -0.4117
  103OSM    C8S10416   1.367   2.308   9.700 -0.9398  0.5878  0.6671
  103OSM    H8S10417   1.459   2.369   9.699 -1.5729  1.5818 -0.9132
  103OSM    H8T10418   1.285   2.382   9.683 -1.7305  0.1675  2.4051
  103OSM    C9S10419   1.373   2.191   9.599 -0.2279  0.1930 -0.7489
  103OSM    H9S10420   1.284   2.126   9.614  0.6931 -0.9574 -0.0918
  103OSM    H9T10421   1.464   2.127   9.606 -1.0174 -0.8182  1.0814
  103OSM   C10S10422   1.369   2.242   9.455  0.7779 -0.2145 -0.7599
  103OSM   H10S10423   1.469   2.285   9.434  0.0291  1.1808 -1.6690
  103OSM   H10T10424   1.286   2.314   9.436 -0.5647 -2.0527 -2.2259
  103OSM   C11S10425   1.331   2.141   9.339 -0.2923 -0.4472  0.2468
  103OSM   H11S10426   1.222   2.120   9.341 -0.4467 -0.0322 -1.7551
  103OSM   H11T10427   1.384   2.044   9.350 -0.7288 -0.7158  0.0287
  103OSM   C12S10428   1.358   2.216   9.209 -0.2157 -0.0104  0.0545
  103OSM   H12S10429   1.469   2.217   9.198 -0.1445 -1.8044  0.3541
  103OSM   H12T10430   1.330   2.323   9.219 -2.6209 -0.5711 -0.2015
  103OSM   C13S10431   1.295   2.142   9.094  0.3179  0.4960  0.3553
  103OSM   H13S10432   1.189   2.128   9.125 -0.4305  1.0176 -1.7939
  103OSM   H13T10433   1.346   2.047   9.072 -0.3014  0.0558  0.7645
  103OSM   C14S10434   1.287   2.218   8.966 -0.0667  0.2794 -0.0167
  103OSM   H14S10435   1.214   2.301   8.973 -1.8466 -1.1828 -0.2702
  103OSM   H14T10436   1.248   2.150   8.887  0.9635 -0.5690  0.1821
  103OSM   C15S10437   1.428   2.261   8.919 -0.8444 -0.0639 -0.3636
  103OSM   H15S10438   1.499   2.181   8.950 -1.1712  0.3996  1.7441
  103OSM   H15T10439   1.449   2.362   8.963  0.4456 -0.1123 -0.8068
  103OSM   C16S10440   1.431   2.282   8.769  0.4242 -0.0225 -0.0069
  103OSM   H16S10441   1.539   2.299   8.750  0.3014 -0.6209 -1.3112
  103OSM   H16T10442   1.360   2.365   8.747 -0.2095  0.1636  2.4294
  103OSM   C17S10443   1.376   2.176   8.676 -0.6213  0.1061  0.2463
  103OSM   H17S10444   1.266   2.159   8.676 -0.4951 -0.8945 -1.0564
  103OSM   H17T10445   1.432   2.086   8.709 -0.3399  0.7143  1.4527
  103OSM   C18S10446   1.402   2.204   8.533 -0.0076  0.3648  0.3627
  103OSM   H18S10447   1.402   2.112   8.470 -0.3490  0.6137 -0.0104
  103OSM   H18T10448   1.505   2.245   8.519 -0.5083  1.1208 -1.3948
  103OSM   H18U10449   1.324   2.277   8.506  0.0283  0.3122  0.1125
  103OSM    C1F10450   1.326   2.568  10.328 -0.7644 -0.1502 -0.5721
  103OSM     OF10451   1.412   2.610  10.404  0.0228  0.3307 -0.4439
  103OSM    C2F10452   1.223   2.666  10.272  0.0016 -0.1537 -0.7233
  103OSM    H2F10453   1.163   2.710  10.354 -0.1736 -0.2650 -0.7897
  103OSM    H2G10454   1.155   2.607  10.206  1.2316 -0.8618 -1.3950
  103OSM    C3F10455   1.291   2.786  10.197 -0.3451  0.7426  0.3681
  103OSM    H3F10456   1.371   2.757  10.126 -0.0530 -0.6866  1.2509
  103OSM    H3G10457   1.332   2.854  10.275  0.9560  3.7370 -2.6685
  103OSM    C4F10458   1.185   2.875  10.134  0.0692 -0.3297  0.0624
  103OSM    H4F10459   1.239   2.971  10.123 -0.0569 -0.3510 -0.8032
  103OSM    H4G10460   1.090   2.893  10.189 -1.4972 -2.5400 -1.7498
  103OSM    C5F10461   1.160   2.814   9.989  1.0955  0.2884  0.1874
  103OSM    H5F10462   1.112   2.714  10.004  1.3946 -0.0095 -0.7778
  103OSM    H5G10463   1.258   2.806   9.938  1.6957 -0.4105  1.3873
  103OSM    C6F10464   1.068   2.903   9.902  0.7525 -0.2959 -0.4248
  103OSM    H6F10465   0.973   2.922   9.957  0.4952  0.1306 -1.0085
  103OSM    H6G10466   1.051   2.842   9.811 -2.3898 -3.1996  1.8648
  103OSM    C7F10467   1.138   3.039   9.857  0.0584 -0.2956 -0.5415
  103OSM    H7F10468   1.234   3.020   9.805  0.3379  0.0378 -0.1484
  103OSM    H7G10469   1.177   3.095   9.945  0.3336 -1.3858  0.0558
  103OSM    C8F10470   1.052   3.104   9.752  0.8104  1.3322  0.4009
  103OSM    H8F10471   0.947   3.080   9.779  1.4233 -3.5124 -0.6609
  103OSM    H8G10472   1.070   3.048   9.657  1.8016 -0.3101  1.5097
  103OSM    C9F10473   1.073   3.252   9.740  0.4540  0.3881  0.1557
  103OSM    H9F10474   1.022   3.299   9.825  0.5120 -2.6214  1.9770
  103OSM   C10F10475   1.111   3.320   9.634 -0.4117  0.3563 -0.5667
  103OSM   H10F10476   1.146   3.423   9.648 -2.4869  1.0581 -0.1466
  103OSM   C11F10477   1.148   3.255   9.504  0.1514 -0.5035  0.3398
  103OSM   H11F10478   1.184   3.150   9.507  2.2071  0.1711  1.5350
  103OSM   H11G10479   1.221   3.325   9.457 -1.0917  1.3311  1.0501
  103OSM   C12F10480   1.039   3.248   9.392 -0.7233 -0.4365  0.0333
  103OSM   H12F10481   0.976   3.339   9.397 -3.1457 -1.7824 -2.7268
  103OSM   H12G10482   0.964   3.174   9.429  0.5990 -1.0536  1.6215
  103OSM   C13F10483   1.105   3.208   9.262 -0.3878  0.3071  0.1486
  103OSM   H13F10484   1.190   3.138   9.279  0.9495  1.7871 -0.2123
  103OSM   H13G10485   1.154   3.291   9.207 -1.1220 -0.0333 -1.0430
  103OSM   C14F10486   1.012   3.135   9.161  0.4784 -0.6380  0.6339
  103OSM   H14F10487   0.936   3.204   9.119  1.5035  0.9879  1.3415
  103OSM   H14G10488   0.962   3.050   9.214 -0.7913  0.7348  1.7267
  103OSM   C15F10489   1.078   3.050   9.051 -0.9355 -0.2198  0.2668
  103OSM   H15F10490   1.171   2.999   9.084  1.3420  2.5625 -1.3813
  103OSM   H15G10491   1.107   3.116   8.967 -2.4132 -1.7278 -1.5176
  103OSM   C16F10492   0.986   2.944   8.986  0.4198  0.0530 -0.1312
  103OSM   H16F10493   0.919   3.003   8.920 -0.0338  0.3000  0.5405
  103OSM   H16G10494   0.923   2.887   9.058  1.0999 -3.0786 -1.8069
  103OSM   C17F10495   1.052   2.828   8.906 -0.2800  0.2181 -0.5066
  103OSM   H17F10496   0.986   2.745   8.873  0.5014 -0.8825  0.5992
  103OSM   H17G10497   1.111   2.775   8.984 -1.4468 -3.0265 -1.6878
  103OSM   C18F10498   1.151   2.863   8.792  0.3426 -0.7978 -0.0564
  103OSM   H18F10499   1.229   2.935   8.827 -1.6560  1.0216  0.9064
  103OSM   H18G10500   1.086   2.922   8.724 -0.9067 -0.2004  1.5714
  103OSM   H18H10501   1.197   2.770   8.753  1.0277 -0.8770  0.8987
  104OSM      N10502   1.410   2.801  10.799 -0.3262  0.2556  0.9266
  104OSM    C1510503   1.456   2.656  10.815  0.1225 -0.5353 -0.0819
  104OSM   H15A10504   1.385   2.596  10.869 -0.3748  0.4423  0.3697
  104OSM   H15B10505   1.555   2.652  10.859  1.1135 -2.1687 -2.2518
  104OSM   H15C10506   1.473   2.617  10.716 -3.5279 -0.6132 -0.8154
  104OSM    C1410507   1.294   2.807  10.710  1.2762 -0.7779  0.5816
  104OSM   H14A10508   1.245   2.903  10.719  0.7221 -1.1084  1.1833
  104OSM   H14B10509   1.215   2.741  10.744 -0.6117  1.5852  1.0422
  104OSM   H14C10510   1.315   2.794  10.605 -0.7516 -0.4380  0.0735
  104OSM    C1310511   1.381   2.863  10.929 -0.8126  0.3392  0.7335
  104OSM   H13A10512   1.296   2.804  10.962 -1.4518  0.2376 -0.9991
  104OSM   H13B10513   1.340   2.962  10.918  0.7449  1.1892  2.1053
  104OSM   H13C10514   1.460   2.851  11.001 -0.5980 -1.7665  0.2195
  104OSM    C1210515   1.527   2.877  10.731  0.0701  0.0279 -0.1795
  104OSM   H12A10516   1.482   2.971  10.702  0.6557  0.8379  1.4141
  104OSM   H12B10517   1.554   2.824  10.641  1.4878  1.2961 -0.5378
  104OSM    C1110518   1.644   2.920  10.815  0.1967  0.9941  0.2591
  104OSM   H11A10519   1.697   2.827  10.844 -1.6524 -0.7821 -1.6591
  104OSM   H11B10520   1.620   2.971  10.910  0.6312  0.2619  0.7734
  104OSM      P10521   1.870   3.032  10.744 -0.0970  0.1488 -0.1387
  104OSM    O1310522   1.900   3.163  10.681 -0.1999  0.5522 -0.3361
  104OSM    O1410523   1.913   2.998  10.876 -0.5874  0.1841  0.3877
  104OSM    O1110524   1.925   2.913  10.647 -0.6514  0.2095 -0.0992
  104OSM    O1210525   1.719   3.004  10.733  0.0289  0.5858 -0.3332
  104OSM    C1S10526   1.936   2.929  10.504 -0.3018 -0.6748 -0.1502
  104OSM    H1S10527   1.936   3.036  10.475 -0.4638  0.1933  2.6838
  104OSM    H1T10528   1.843   2.894  10.454  0.0858 -0.5980 -0.9357
  104OSM     NF10529   2.061   2.849  10.301  0.4625 -0.8096  0.3715
  104OSM    HNF10530   1.997   2.786  10.259 -0.2456 -0.1039  0.3734
  104OSM    C2S10531   2.046   2.833  10.443 -0.1179 -0.6104  0.5532
  104OSM    H2S10532   2.147   2.859  10.482  0.9404  0.2226 -2.4710
  104OSM    C3S10533   2.019   2.688  10.480 -0.0280  0.3047  0.6654
  104OSM    H3S10534   1.922   2.663  10.431 -0.6512 -0.1334  2.0665
  104OSM     O310535   1.994   2.666  10.617 -0.0190 -0.3831  0.2556
  104OSM    HO310536   1.948   2.748  10.640  0.8535  0.1002  0.3051
  104OSM    C4S10537   2.130   2.601  10.428 -0.5847  0.7248  0.5943
  104OSM    H4S10538   2.230   2.639  10.451  0.3016 -1.2815  0.2327
  104OSM    C5S10539   2.120   2.488  10.354 -0.5401  0.1882 -0.3000
  104OSM    H5S10540   2.023   2.436  10.343  0.5175 -1.9562 -0.1139
  104OSM    C6S10541   2.235   2.402  10.312  0.1208  0.0381 -0.0740
  104OSM    H6S10542   2.279   2.340  10.393 -0.1285  1.3738  1.1341
  104OSM    H6T10543   2.316   2.450  10.253 -0.1486 -1.3652 -1.6600
  104OSM    C7S10544   2.180   2.303  10.198  0.3325 -0.5996 -0.8420
  104OSM    H7S10545   2.122   2.364  10.125  0.3071  0.5069  0.0729
  104OSM    H7T10546   2.122   2.221  10.245 -0.3083  0.9658  1.2396
  104OSM    C8S10547   2.292   2.238  10.116  0.0723  0.2914 -0.7910
  104OSM    H8S10548   2.318   2.145  10.171 -1.6690  0.0091 -0.3528
  104OSM    H8T10549   2.386   2.295  10.124 -0.5694  1.2686  0.0560
  104OSM    C9S10550   2.261   2.199   9.968 -0.7533  0.5146 -0.0262
  104OSM    H9S10551   2.254   2.287   9.901  0.7161 -1.4069 -2.8909
  104OSM    H9T10552   2.163   2.148   9.971 -0.7087  0.3570 -1.1471
  104OSM   C10S10553   2.365   2.108   9.905 -0.6703  0.2477 -0.8357
  104OSM   H10S10554   2.380   2.019   9.970 -0.0704  0.9522  0.0268
  104OSM   H10T10555   2.468   2.149   9.916 -1.0248  1.0592 -0.4667
  104OSM   C11S10556   2.333   2.078   9.757  0.0138  0.3403  0.1118
  104OSM   H11S10557   2.223   2.073   9.751 -0.0216  0.6771  0.5078
  104OSM   H11T10558   2.375   1.979   9.727 -0.3678  0.9212 -2.5957
  104OSM   C12S10559   2.380   2.190   9.664 -0.4086 -0.9140  0.5668
  104OSM   H12S10560   2.481   2.217   9.704 -0.2288 -0.6858 -0.0370
  104OSM   H12T10561   2.326   2.284   9.691  0.9847  0.2176 -0.4195
  104OSM   C13S10562   2.395   2.160   9.519 -0.6555  0.0530  0.9921
  104OSM   H13S10563   2.421   2.248   9.457 -0.8773 -0.5784 -0.0179
  104OSM   H13T10564   2.296   2.120   9.491 -0.7434 -0.5440  2.1073
  104OSM   C14S10565   2.504   2.057   9.479  0.3918 -0.4462 -0.1627
  104OSM   H14S10566   2.507   1.962   9.538  0.9904  0.2924  1.0278
  104OSM   H14T10567   2.603   2.105   9.494 -0.5509  2.1144 -1.4868
  104OSM   C15S10568   2.511   2.016   9.329  0.2482  0.1101  0.3354
  104OSM   H15S10569   2.517   2.100   9.256 -0.8437 -0.6034 -0.6016
  104OSM   H15T10570   2.418   1.963   9.299 -0.3325  2.1140 -1.7373
  104OSM   C16S10571   2.642   1.948   9.301 -0.1676  0.4144  0.2682
  104OSM   H16S10572   2.654   1.848   9.349 -0.9390  0.6288  0.9189
  104OSM   H16T10573   2.716   2.016   9.348 -2.1843  2.4947  0.6024
  104OSM   C17S10574   2.659   1.940   9.145  0.0083  0.8966 -0.4153
  104OSM   H17S10575   2.670   2.042   9.102  3.7940  0.1971 -1.4399
  104OSM   H17T10576   2.569   1.890   9.102  1.5055 -0.3717 -2.2551
  104OSM   C18S10577   2.768   1.855   9.097 -0.1298  0.3330  0.6929
  104OSM   H18S10578   2.871   1.880   9.130 -0.1921  0.6828  0.6250
  104OSM   H18T10579   2.773   1.862   8.987 -1.9322  1.4738  0.6427
  104OSM   H18U10580   2.747   1.754   9.139  1.7678  0.0608  1.0656
  104OSM    C1F10581   2.099   2.963  10.238  0.2729 -0.0732 -0.5195
  104OSM     OF10582   2.128   3.067  10.294 -0.0101  0.2804  0.0004
  104OSM    C2F10583   2.088   2.956  10.087  0.1374 -0.1052  0.2037
  104OSM    H2F10584   1.997   2.895  10.067 -1.2761  1.8641  0.3449
  104OSM    H2G10585   2.168   2.896  10.038  1.1486  2.2141 -1.1632
  104OSM    C3F10586   2.073   3.090  10.016 -0.7630  0.1066  0.1376
  104OSM    H3F10587   2.177   3.128  10.006 -1.1073  0.9024 -0.5195
  104OSM    H3G10588   2.021   3.169  10.075 -1.1051  1.6559 -2.1212
  104OSM    C4F10589   2.012   3.072   9.877  0.3354 -0.1268 -0.2880
  104OSM    H4F10590   2.011   3.176   9.836  0.6036  0.9377  2.2275
  104OSM    H4G10591   1.904   3.050   9.884  0.3596  0.3445  2.3984
  104OSM    C5F10592   2.079   2.967   9.787 -0.3114 -0.2745 -0.5647
  104OSM    H5F10593   2.123   2.877   9.835  1.1882  1.3952  1.3437
  104OSM    H5G10594   2.170   3.015   9.746 -0.0031  1.2256  1.6889
  104OSM    C6F10595   1.985   2.911   9.677 -0.4201  0.3094  0.2755
  104OSM    H6F10596   1.942   3.001   9.626  0.0814  0.8373  0.7788
  104OSM    H6G10597   1.911   2.853   9.736 -2.9726  0.8104 -2.1757
  104OSM    C7F10598   2.041   2.818   9.576 -0.6784  0.0467 -0.6483
  104OSM    H7F10599   1.955   2.780   9.517 -0.4638 -1.8157  0.1695
  104OSM    H7G10600   2.083   2.730   9.629  1.6093  1.9125  0.8291
  104OSM    C8F10601   2.143   2.881   9.484 -0.1071 -0.2108 -0.2972
  104OSM    H8F10602   2.234   2.912   9.541  0.5568  1.3560 -2.0761
  104OSM    H8G10603   2.102   2.978   9.447  0.3599  0.0849 -0.0522
  104OSM    C9F10604   2.188   2.788   9.379  0.1425  0.2171  1.2710
  104OSM    H9F10605   2.293   2.756   9.374 -0.6014 -2.3093 -2.8402
  104OSM   C10F10606   2.117   2.750   9.271  0.6397  0.6465  0.6702
  104OSM   H10F10607   2.164   2.672   9.208  2.3778  2.6682 -0.6724
  104OSM   C11F10608   1.973   2.780   9.246  0.1653 -0.1115 -0.1968
  104OSM   H11F10609   1.932   2.858   9.313 -0.7725  0.0368 -0.9265
  104OSM   H11G10610   1.910   2.689   9.261 -0.3791  0.1751 -0.7030
  104OSM   C12F10611   1.930   2.825   9.105  0.1149  0.3947  0.1118
  104OSM   H12F10612   1.949   2.739   9.038 -0.7701  1.9787 -2.2893
  104OSM   H12G10613   2.000   2.903   9.067  0.3790  0.0171 -0.1893
  104OSM   C13F10614   1.791   2.876   9.095  0.6477  0.5893  0.6780
  104OSM   H13F10615   1.775   2.943   9.182  0.0303  0.3149  0.7801
  104OSM   H13G10616   1.721   2.793   9.118  1.4983 -0.2952  0.1220
  104OSM   C14F10617   1.760   2.929   8.958 -0.4086  0.4610  0.3981
  104OSM   H14F10618   1.781   2.847   8.886  0.2011  2.4079 -1.7499
  104OSM   H14G10619   1.835   3.009   8.936 -0.8523  0.2401 -2.1526
  104OSM   C15F10620   1.623   2.995   8.947 -0.2317 -0.3133 -0.4712
  104OSM   H15F10621   1.540   2.926   8.973  1.0258 -1.6551  0.1627
  104OSM   H15G10622   1.612   3.022   8.840  0.0443  0.3490 -0.3384
  104OSM   C16F10623   1.610   3.130   9.032 -0.2039  0.9629  0.6864
  104OSM   H16F10624   1.689   3.201   8.999 -0.1636  0.0597 -1.3067
  104OSM   H16G10625   1.618   3.118   9.142  1.2976 -0.8737  0.4253
  104OSM   C17F10626   1.477   3.199   9.002  0.0952 -0.9851 -0.0779
  104OSM   H17F10627   1.390   3.133   9.021 -0.5507 -1.9613 -5.1503
  104OSM   H17G10628   1.482   3.233   8.896  0.6455 -0.8386 -0.0083
  104OSM   C18F10629   1.450   3.323   9.089  0.4093  0.4102  0.2712
  104OSM   H18F10630   1.365   3.379   9.044  1.3353  1.4235 -0.2614
  104OSM   H18G10631   1.532   3.398   9.096  1.6852 -0.8751 -0.3459
  104OSM   H18H10632   1.433   3.293   9.195  0.5850  1.6683  0.6748
  105OSM      N10633   5.272   4.295  11.267  0.3301  0.2984 -0.3106
  105OSM    C1510634   5.408   4.342  11.297 -0.7204  0.0130  0.0879
  105OSM   H15A10635   5.467   4.323  11.209 -1.0119 -2.9619  0.4287
  105OSM   H15B10636   5.449   4.283  11.377  0.2063  1.9423  1.1149
  105OSM   H15C10637   5.416   4.448  11.316  0.5454  0.6451 -3.4101
  105OSM    C1410638   5.269   4.146  11.236 -0.1523 -0.6687 -0.1372
  105OSM   H14A10639   5.168   4.123  11.207 -0.8638  0.9175  0.9654
  105OSM   H14B10640   5.294   4.077  11.316  1.2020  1.6457  1.5599
  105OSM   H14C10641   5.340   4.122  11.158 -0.7631 -1.2264 -0.5284
  105OSM    C1310642   5.187   4.329  11.384 -0.1324 -0.2958  0.2674
  105OSM   H13A10643   5.086   4.296  11.363  0.3154 -0.4120 -2.0270
  105OSM   H13B10644   5.178   4.435  11.403  1.1183 -0.4370  1.7961
  105OSM   H13C10645   5.215   4.277  11.474 -0.5615 -1.2431 -0.1301
  105OSM    C1210646   5.228   4.375  11.144  0.0762 -0.0293  0.2754
  105OSM   H12A10647   5.227   4.482  11.158  2.9650  0.3549 -1.5650
  105OSM   H12B10648   5.125   4.346  11.131 -0.3545  0.2685  2.5957
  105OSM    C1110649   5.300   4.360  11.005 -0.0158 -0.4945 -0.1244
  105OSM   H11A10650   5.408   4.379  11.025  0.0560 -1.5027  0.5689
  105OSM   H11B10651   5.272   4.446  10.941 -1.2539  0.1292  1.1997
  105OSM      P10652   5.133   4.204  10.888  0.0569  0.1984  0.2834
  105OSM    O1310653   5.117   4.059  10.905 -0.5328 -0.6238  0.0550
  105OSM    O1410654   5.033   4.295  10.950  0.0848  0.5129 -0.5825
  105OSM    O1110655   5.139   4.244  10.734 -0.1796  0.2784  0.2820
  105OSM    O1210656   5.280   4.235  10.939  0.3489  0.3380  0.3995
  105OSM    C1S10657   5.258   4.278  10.659 -0.5258  0.0749 -0.3577
  105OSM    H1S10658   5.339   4.211  10.694 -1.5427 -0.8116  0.3543
  105OSM    H1T10659   5.285   4.384  10.678  0.6626 -0.7442  3.1133
  105OSM     NF10660   5.353   4.259  10.432  0.3748  0.3454 -0.1538
  105OSM    HNF10661   5.365   4.343  10.380 -0.6278  1.0272  0.6545
  105OSM    C2S10662   5.237   4.248  10.514  0.3358 -0.1816 -0.3265
  105OSM    H2S10663   5.199   4.144  10.512 -1.0398  0.3147 -1.3554
  105OSM    C3S10664   5.123   4.335  10.449  0.4622 -0.6923  0.3497
  105OSM    H3S10665   5.153   4.442  10.454  2.2349 -1.1819  4.0647
  105OSM     O310666   5.004   4.325  10.520  0.0814 -0.9113  0.0566
  105OSM    HO310667   5.032   4.278  10.598  0.9663  2.1189  1.7237
  105OSM    C4S10668   5.102   4.309  10.301  0.6467 -0.2803  0.0334
  105OSM    H4S10669   5.167   4.373  10.240  0.8450  0.1450  0.6783
  105OSM    C5S10670   5.023   4.209  10.252  0.6421 -0.3387 -0.5521
  105OSM    H5S10671   4.965   4.146  10.321  0.2690  1.3942  0.7912
  105OSM    C6S10672   5.009   4.165  10.112 -0.9026  0.6547 -0.2925
  105OSM    H6S10673   4.900   4.158  10.093 -0.6790 -1.5396 -0.9467
  105OSM    H6T10674   5.033   4.057  10.113 -1.6371  0.4609 -1.9805
  105OSM    C7S10675   5.093   4.254  10.015  0.3867  0.3778  0.7176
  105OSM    H7S10676   5.201   4.252  10.043  0.6691  0.5256 -0.3430
  105OSM    H7T10677   5.055   4.358  10.013  0.8901  0.5585 -0.7365
  105OSM    C8S10678   5.090   4.205   9.864 -0.0233  0.1085 -0.0968
  105OSM    H8S10679   4.999   4.239   9.810 -0.4107 -0.8302 -0.0595
  105OSM    H8T10680   5.073   4.095   9.869  1.4985 -0.0971  1.6915
  105OSM    C9S10681   5.210   4.238   9.788  0.0895  0.1612 -0.8919
  105OSM    H9S10682   5.295   4.193   9.843 -1.1441 -0.0786  0.9006
  105OSM    H9T10683   5.225   4.347   9.774 -0.0252  0.2684 -0.1767
  105OSM   C10S10684   5.211   4.180   9.644 -0.2690 -0.0008 -0.0245
  105OSM   H10S10685   5.107   4.180   9.604 -0.3020 -1.4619 -0.0174
  105OSM   H10T10686   5.235   4.072   9.650 -1.4970 -0.3300 -0.5925
  105OSM   C11S10687   5.300   4.249   9.539 -0.5171  0.5263 -0.3910
  105OSM   H11S10688   5.406   4.222   9.560 -0.5466  0.0469 -0.8615
  105OSM   H11T10689   5.282   4.359   9.548 -0.1187  0.4973  1.0278
  105OSM   C12S10690   5.264   4.189   9.398  0.0864 -0.2448 -0.5525
  105OSM   H12S10691   5.153   4.191   9.397 -0.0465  3.8462  0.5504
  105OSM   H12T10692   5.298   4.084   9.392 -0.6758 -0.5526  0.2156
  105OSM   C13S10693   5.316   4.270   9.274 -0.1942  0.3749 -0.2357
  105OSM   H13S10694   5.427   4.266   9.268 -0.2744 -0.1668 -1.8492
  105OSM   H13T10695   5.291   4.374   9.303 -2.4321  0.0345 -0.7813
  105OSM   C14S10696   5.253   4.224   9.142  0.1763 -0.1410 -0.5099
  105OSM   H14S10697   5.144   4.215   9.162 -0.0153 -0.6489 -1.7084
  105OSM   H14T10698   5.296   4.127   9.109  0.9583 -0.0986  0.3677
  105OSM   C15S10699   5.286   4.325   9.029  0.2849  0.1369 -0.4928
  105OSM   H15S10700   5.394   4.302   9.016  0.2301  0.0465 -0.8062
  105OSM   H15T10701   5.265   4.430   9.059 -3.7273 -0.9141  1.0309
  105OSM   C16S10702   5.212   4.286   8.903 -0.4169  0.8129  1.0714
  105OSM   H16S10703   5.103   4.306   8.914 -0.8148 -0.1750 -0.6342
  105OSM   H16T10704   5.233   4.177   8.890 -1.7083  0.4314  1.9891
  105OSM   C17S10705   5.246   4.371   8.773 -0.3494  0.1427  0.2697
  105OSM   H17S10706   5.345   4.340   8.732  1.4348  2.0263  2.8108
  105OSM   H17T10707   5.272   4.473   8.808  1.0945  0.2074 -0.8824
  105OSM   C18S10708   5.135   4.378   8.665  0.2385 -0.4295  0.2636
  105OSM   H18S10709   5.121   4.283   8.610  1.8609 -0.6282  0.1594
  105OSM   H18T10710   5.167   4.458   8.595  0.0551 -1.3865 -0.9264
  105OSM   H18U10711   5.041   4.420   8.709  0.0901  2.2916 -2.3693
  105OSM    C1F10712   5.451   4.178  10.448  0.5000 -0.2554  0.0934
  105OSM     OF10713   5.438   4.074  10.511 -0.3163 -0.2063  0.5090
  105OSM    C2F10714   5.580   4.218  10.387 -0.3560 -0.2426  0.5929
  105OSM    H2F10715   5.657   4.183  10.459  0.6123 -2.7280 -1.4782
  105OSM    H2G10716   5.574   4.328  10.376  1.0109 -0.3986 -3.4603
  105OSM    C3F10717   5.618   4.150  10.246 -0.7796 -0.9365 -0.2262
  105OSM    H3F10718   5.540   4.189  10.178 -0.1953  0.2892 -0.2072
  105OSM    H3G10719   5.606   4.040  10.256 -0.7224 -0.8021  1.9719
  105OSM    C4F10720   5.758   4.181  10.195 -0.2334 -0.3198  0.0016
  105OSM    H4F10721   5.825   4.170  10.282  0.0861  0.6841 -0.1048
  105OSM    H4G10722   5.760   4.288  10.165  0.4064 -0.8826 -2.1655
  105OSM    C5F10723   5.809   4.100  10.072 -0.2551  0.2685  0.0694
  105OSM    H5F10724   5.763   3.999  10.067  2.2727 -0.9128 -0.9170
  105OSM    H5G10725   5.915   4.075  10.091  0.4108  1.7915 -1.4385
  105OSM    C6F10726   5.818   4.177   9.946  0.0743 -0.3949 -0.1352
  105OSM    H6F10727   5.866   4.276   9.962  0.7438 -1.1447  3.2996
  105OSM    H6G10728   5.717   4.199   9.905  0.2696  0.6524 -0.0854
  105OSM    C7F10729   5.894   4.101   9.838  0.3975  0.3531 -0.8294
  105OSM    H7F10730   5.841   4.004   9.826 -2.3457  1.5342  0.8389
  105OSM    H7G10731   5.995   4.082   9.881 -0.9115 -3.6497  0.9268
  105OSM    C8F10732   5.904   4.177   9.705  0.2516  0.7371  0.1622
  105OSM    H8F10733   5.952   4.277   9.714 -1.4340  1.5855  0.0099
  105OSM    H8G10734   5.811   4.201   9.651 -0.2943  2.6823  1.8314
  105OSM    C9F10735   5.984   4.086   9.618 -0.5541 -0.0383 -0.2655
  105OSM    H9F10736   5.965   3.979   9.635  0.8413 -0.1879  0.5344
  105OSM   C10F10737   6.079   4.117   9.516 -0.1063  0.7367 -0.4565
  105OSM   H10F10738   6.120   4.036   9.454  0.1562  0.5351 -0.0222
  105OSM   C11F10739   6.122   4.253   9.483 -0.2621  0.3503  0.5984
  105OSM   H11F10740   6.218   4.275   9.535  0.8324 -1.0824 -0.7138
  105OSM   H11G10741   6.070   4.337   9.534  0.7937  0.3312  1.7567
  105OSM   C12F10742   6.146   4.255   9.324 -0.1529 -0.2077 -0.4442
  105OSM   H12F10743   6.046   4.237   9.280 -0.7410  0.3506  0.6076
  105OSM   H12G10744   6.216   4.174   9.296  0.2749 -0.1833  0.5004
  105OSM   C13F10745   6.185   4.386   9.272 -0.0570 -0.5220  0.0742
  105OSM   H13F10746   6.296   4.383   9.278 -0.0583 -0.7544 -0.0010
  105OSM   H13G10747   6.152   4.473   9.331  3.4633  2.4077 -1.8440
  105OSM   C14F10748   6.136   4.419   9.130  0.2660  0.7331  0.7378
  105OSM   H14F10749   6.140   4.529   9.110 -1.3606  0.5081 -1.1017
  105OSM   H14G10750   6.032   4.383   9.116  0.8417  0.2224 -3.5361
  105OSM   C15F10751   6.229   4.356   9.016 -0.1781  0.6873  0.1984
  105OSM   H15F10752   6.233   4.244   9.016 -0.4928  0.5373 -4.1561
  105OSM   H15G10753   6.336   4.371   9.041  0.3828 -1.5721 -0.5637
  105OSM   C16F10754   6.207   4.400   8.872  1.2028 -0.4624  0.4609
  105OSM   H16F10755   6.229   4.508   8.861  2.1268 -0.5699  1.1600
  105OSM   H16G10756   6.101   4.386   8.843  1.6988  1.8530 -3.1039
  105OSM   C17F10757   6.299   4.321   8.779  0.7426  0.1165  0.2662
  105OSM   H17F10758   6.266   4.215   8.787 -0.3181  0.2118 -1.9825
  105OSM   H17G10759   6.407   4.325   8.803  1.3066 -1.8122 -1.6286
  105OSM   C18F10760   6.272   4.357   8.627 -0.0199  0.1477 -1.0217
  105OSM   H18F10761   6.164   4.349   8.602  0.1571 -1.4659 -1.4243
  105OSM   H18G10762   6.339   4.297   8.561  2.0658  2.0587 -0.7544
  105OSM   H18H10763   6.295   4.465   8.620 -0.1229  0.1113 -2.1068
  106OSM      N10764   5.847   4.818  10.895  0.0944  0.6010  0.5273
  106OSM    C1510765   5.844   4.676  10.946  0.4889  0.5718  0.3757
  106OSM   H15A10766   5.751   4.634  10.980  1.0517 -1.8374 -0.8732
  106OSM   H15B10767   5.920   4.672  11.023 -0.4162  0.9544  1.3161
  106OSM   H15C10768   5.872   4.618  10.860 -1.1732  1.5488 -0.8899
  106OSM    C1410769   5.827   4.911  11.005  0.2149 -0.3901  0.5491
  106OSM   H14A10770   5.910   4.922  11.073 -0.2116  1.8862  0.7984
  106OSM   H14B10771   5.735   4.895  11.059 -1.9512 -0.0095 -2.7387
  106OSM   H14C10772   5.819   5.015  10.976 -0.3618 -0.8604 -1.0504
  106OSM    C1310773   5.972   4.859  10.833  0.1509  0.4582 -0.8845
  106OSM   H13A10774   6.048   4.852  10.909 -1.0525 -1.7783  0.2132
  106OSM   H13B10775   5.968   4.959  10.792 -1.9878  0.0708 -1.8121
  106OSM   H13C10776   6.001   4.786  10.760 -0.7202 -1.2888  0.4445
  106OSM    C1210777   5.728   4.838  10.799  0.7810  0.1472 -0.6010
  106OSM   H12A10778   5.724   4.943  10.777  0.7723  0.3572  0.3323
  106OSM   H12B10779   5.637   4.798  10.840  0.5943  0.5105 -0.6598
  106OSM    C1110780   5.734   4.758  10.667  0.2247  0.5922  0.4645
  106OSM   H11A10781   5.841   4.755  10.636  0.2581  0.4876  0.5932
  106OSM   H11B10782   5.669   4.805  10.590 -1.2815 -3.1988 -0.8181
  106OSM      P10783   5.553   4.571  10.738 -0.0802  0.4210 -0.1163
  106OSM    O1310784   5.542   4.425  10.730 -0.4433  0.0514 -0.4830
  106OSM    O1410785   5.521   4.641  10.863  0.4029  0.2482  0.1018
  106OSM    O1110786   5.459   4.633  10.627  0.4410 -0.2041 -0.0749
  106OSM    O1210787   5.697   4.616  10.686  0.4927  0.2289 -0.3644
  106OSM    C1S10788   5.485   4.595  10.490  0.0929  0.2495  0.9086
  106OSM    H1S10789   5.450   4.490  10.480 -1.3127  0.5337  2.4418
  106OSM    H1T10790   5.592   4.596  10.461 -0.0696 -0.2546  0.2400
  106OSM     NF10791   5.451   4.675  10.261  0.1485  0.2270  0.5503
  106OSM    HNF10792   5.485   4.755  10.213  0.8268 -0.2466  0.2310
  106OSM    C2S10793   5.409   4.693  10.393 -0.3356  0.2425  0.5237
  106OSM    H2S10794   5.300   4.672  10.404 -0.5456  1.5797  1.2586
  106OSM    C3S10795   5.418   4.836  10.446 -0.4490 -0.0464 -0.0349
  106OSM    H3S10796   5.523   4.866  10.463  0.0326 -1.8963  0.5214
  106OSM     O310797   5.351   4.864  10.573 -0.1609 -0.3299  0.0491
  106OSM    HO310798   5.339   4.781  10.620  1.7783 -0.1629  0.9334
  106OSM    C4S10799   5.375   4.928  10.340  0.2480  1.1709  0.3719
  106OSM    H4S10800   5.456   4.988  10.298  0.3995  3.3538  3.4130
  106OSM    C5S10801   5.245   4.967  10.334  1.0134 -0.1210  0.7641
  106OSM    H5S10802   5.170   4.919  10.399  0.4153  0.2428  0.3538
  106OSM    C6S10803   5.192   5.068  10.238  0.0227 -0.8904  0.1257
  106OSM    H6S10804   5.200   5.170  10.281  2.3968 -1.0537  0.1834
  106OSM    H6T10805   5.085   5.056  10.209 -0.0021 -3.2575  0.9723
  106OSM    C7S10806   5.265   5.084  10.105  0.0157  0.4308 -0.1541
  106OSM    H7S10807   5.286   4.982  10.065 -0.7629 -0.0452  0.6001
  106OSM    H7T10808   5.366   5.129  10.112  0.4933 -0.0693 -2.7492
  106OSM    C8S10809   5.179   5.174  10.006 -0.4353  0.0659 -0.4541
  106OSM    H8S10810   5.144   5.262  10.063 -2.2221 -0.0015 -1.3833
  106OSM    H8T10811   5.091   5.113   9.976 -2.4268  1.7099  1.6702
  106OSM    C9S10812   5.257   5.216   9.884 -0.0168 -0.3750  0.2336
  106OSM    H9S10813   5.356   5.167   9.884  0.3597  0.2576  2.9819
  106OSM    H9T10814   5.270   5.324   9.904 -1.0975 -0.2186  0.1522
  106OSM   C10S10815   5.181   5.171   9.765  0.6540  0.0132  0.7266
  106OSM   H10S10816   5.084   5.224   9.767 -0.1985 -1.1406 -2.7116
  106OSM   H10T10817   5.150   5.064   9.764  1.0829 -0.1307 -1.1920
  106OSM   C11S10818   5.246   5.203   9.630  0.2883  0.4671  1.5847
  106OSM   H11S10819   5.350   5.167   9.612 -0.2500 -0.2111 -0.5142
  106OSM   H11T10820   5.258   5.313   9.623  0.6249  0.3373 -1.4889
  106OSM   C12S10821   5.175   5.169   9.492 -0.7746 -1.3351 -0.5580
  106OSM   H12S10822   5.074   5.213   9.500  0.0134  0.5211 -0.2462
  106OSM   H12T10823   5.169   5.059   9.479 -1.2874 -1.3713 -0.0535
  106OSM   C13S10824   5.234   5.248   9.371  0.1704 -0.1833  0.0697
  106OSM   H13S10825   5.269   5.348   9.404  1.6396  0.0226 -1.9012
  106OSM   H13T10826   5.150   5.276   9.305  1.0819  1.1328 -0.5837
  106OSM   C14S10827   5.341   5.163   9.299  0.0946  0.2586  0.3312
  106OSM   H14S10828   5.286   5.075   9.258  1.2424  0.1524 -1.0755
  106OSM   H14T10829   5.409   5.116   9.374  0.9532 -1.4126 -1.3983
  106OSM   C15S10830   5.415   5.236   9.183  0.4756  0.3764 -0.7103
  106OSM   H15S10831   5.500   5.293   9.225 -0.5026  1.7923 -0.5886
  106OSM   H15T10832   5.348   5.309   9.133  0.5705  1.5683  0.8375
  106OSM   C16S10833   5.471   5.140   9.082 -0.5076  0.4251  0.1196
  106OSM   H16S10834   5.391   5.076   9.040 -1.0429  1.2665 -0.1713
  106OSM   H16T10835   5.548   5.072   9.125  0.6581  2.3283  1.2144
  106OSM   C17S10836   5.515   5.222   8.955  0.4504 -0.2503  0.3798
  106OSM   H17S10837   5.588   5.300   8.985  1.3758 -0.7712 -0.4683
  106OSM   H17T10838   5.421   5.268   8.918  0.4201 -0.0880  0.6532
  106OSM   C18S10839   5.581   5.131   8.855 -0.5628  0.2759  0.4882
  106OSM   H18S10840   5.590   5.183   8.758 -0.7445 -0.9258 -0.1922
  106OSM   H18T10841   5.532   5.031   8.851 -2.9715  1.3964  0.5296
  106OSM   H18U10842   5.682   5.108   8.895 -0.9426 -1.4711  0.5402
  106OSM    C1F10843   5.440   4.555  10.203  1.1895  0.0423  0.2862
  106OSM     OF10844   5.369   4.465  10.247 -0.4511 -0.0512 -0.2138
  106OSM    C2F10845   5.519   4.534  10.081  0.5401 -0.2421  0.8187
  106OSM    H2F10846   5.621   4.499  10.109  0.6114  0.2093  1.1290
  106OSM    H2G10847   5.534   4.629  10.025 -0.3035  0.1016  1.1691
  106OSM    C3F10848   5.457   4.421   9.999 -1.7510  0.4943  0.3336
  106OSM    H3F10849   5.355   4.453   9.968 -2.5127 -0.1237  2.0791
  106OSM    H3G10850   5.458   4.333  10.067  0.8048 -0.2608 -0.5788
  106OSM    C4F10851   5.548   4.391   9.873  0.5408  0.2856 -0.2892
  106OSM    H4F10852   5.533   4.282   9.857  0.4323 -0.5807  4.3178
  106OSM    H4G10853   5.654   4.397   9.906  0.2542  1.3550  0.5057
  106OSM    C5F10854   5.521   4.475   9.753 -0.0780  0.3005  0.0703
  106OSM    H5F10855   5.553   4.579   9.778  0.0827  0.1902  0.3281
  106OSM    H5G10856   5.415   4.478   9.723  0.0708  0.9690 -0.4045
  106OSM    C6F10857   5.612   4.441   9.635 -0.1378 -0.2326  0.5749
  106OSM    H6F10858   5.603   4.333   9.612  0.3098 -0.6770  2.3111
  106OSM    H6G10859   5.720   4.457   9.659  0.6803 -0.6376 -2.4960
  106OSM    C7F10860   5.568   4.521   9.506  0.1972 -0.4196  0.3198
  106OSM    H7F10861   5.529   4.623   9.529  0.0723 -0.8143  1.9986
  106OSM    H7G10862   5.489   4.458   9.460 -0.5018  1.5224 -1.2845
  106OSM    C8F10863   5.677   4.547   9.405  0.1334 -0.3359  0.1065
  106OSM    H8F10864   5.748   4.614   9.458  0.6272 -0.0490 -0.8876
  106OSM    H8G10865   5.643   4.603   9.316  0.4532  0.6093  0.5704
  106OSM    C9F10866   5.757   4.426   9.365  0.4325 -0.0589  0.4117
  106OSM    H9F10867   5.822   4.371   9.435  1.3055 -0.1479 -0.4430
  106OSM   C10F10868   5.752   4.366   9.241  0.2911 -0.2633 -0.3047
  106OSM   H10F10869   5.804   4.271   9.222 -1.3429 -1.2503 -0.0152
  106OSM   C11F10870   5.683   4.420   9.120 -0.1873  0.5645  0.4037
  106OSM   H11F10871   5.718   4.525   9.108  0.3876  0.1064 -2.6685
  106OSM   H11G10872   5.573   4.419   9.129 -0.3259 -0.8953 -1.1112
  106OSM   C12F10873   5.719   4.341   8.993 -0.4450  0.0863 -0.1805
  106OSM   H12F10874   5.665   4.245   9.004  1.4968 -1.1059 -0.5134
  106OSM   H12G10875   5.824   4.308   8.974  0.0431  2.6062 -2.7601
  106OSM   C13F10876   5.665   4.403   8.866  0.1193  0.1929  0.0416
  106OSM   H13F10877   5.718   4.501   8.858  1.1048 -0.3721 -0.5521
  106OSM   H13G10878   5.557   4.423   8.882  0.6500  2.2398  1.4571
  106OSM   C14F10879   5.695   4.318   8.735  0.3574  0.7861  0.1456
  106OSM   H14F10880   5.660   4.376   8.647 -0.0183 -0.3216 -0.4600
  106OSM   H14G10881   5.635   4.225   8.746  1.0447  0.0380 -1.8623
  106OSM   C15F10882   5.844   4.284   8.710 -0.1644  0.7755 -0.3200
  106OSM   H15F10883   5.877   4.202   8.777 -0.6774  0.9864  0.1970
  106OSM   H15G10884   5.903   4.376   8.723 -2.5707  2.2904  0.4924
  106OSM   C16F10885   5.871   4.235   8.565 -0.2105  0.0652 -1.0672
  106OSM   H16F10886   5.793   4.163   8.534  0.1584 -1.3385  1.0521
  106OSM   H16G10887   5.968   4.181   8.569  0.1019  0.5934  3.3737
  106OSM   C17F10888   5.882   4.353   8.465 -0.0664  0.3140 -0.2775
  106OSM   H17F10889   5.966   4.419   8.497  3.1853 -1.9355 -3.3291
  106OSM   H17G10890   5.784   4.404   8.465 -1.1222 -1.5196 -2.7897
  106OSM   C18F10891   5.920   4.304   8.322  0.6474 -0.8055  0.3362
  106OSM   H18F10892   6.016   4.249   8.336  0.2177 -1.2020  1.9938
  106OSM   H18G10893   5.937   4.382   8.246  0.9042 -0.2328  0.9675
  106OSM   H18H10894   5.844   4.235   8.279  1.0474 -0.8327 -0.3414
  107OSM      N10895   1.192   1.405  11.145 -0.7596  0.0945 -0.0771
  107OSM    C1510896   1.068   1.349  11.088  0.5594  0.3158 -0.4020
  107OSM   H15A10897   1.044   1.253  11.132  0.2965  0.0943 -1.0072
  107OSM   H15B10898   1.067   1.329  10.981 -1.3536 -1.5058 -0.1128
  107OSM   H15C10899   0.986   1.418  11.103  0.9608  1.2669 -2.2275
  107OSM    C1410900   1.217   1.540  11.084 -0.1617  0.0636  0.0480
  107OSM   H14A10901   1.305   1.586  11.127 -0.8959  1.7808 -0.2197
  107OSM   H14B10902   1.138   1.609  11.109 -0.8604 -1.4005  2.2291
  107OSM   H14C10903   1.219   1.536  10.976 -0.0348  1.4606 -0.0223
  107OSM    C1310904   1.181   1.410  11.296 -0.2298 -1.4700  0.4242
  107OSM   H13A10905   1.163   1.317  11.347 -0.3251 -1.2551  0.7856
  107OSM   H13B10906   1.111   1.489  11.319  0.3817 -0.0177 -2.3135
  107OSM   H13C10907   1.274   1.446  11.336  0.0469  1.0860 -2.1750
  107OSM    C1210908   1.306   1.312  11.102  0.4830  0.0404  0.0243
  107OSM   H12A10909   1.290   1.212  11.139  1.1699 -0.4693 -1.0055
  107OSM   H12B10910   1.399   1.338  11.150 -0.1144 -0.2147  1.3690
  107OSM    C1110911   1.336   1.313  10.953 -0.2131 -0.0846  0.1674
  107OSM   H11A10912   1.429   1.252  10.946 -0.8038 -0.9300 -0.4833
  107OSM   H11B10913   1.366   1.415  10.919 -2.4015  0.3956 -0.4720
  107OSM      P10914   1.179   1.305  10.743 -0.0993  0.3037  0.3071
  107OSM    O1310915   1.226   1.209  10.641 -0.1316  0.3856 -1.2869
  107OSM    O1410916   1.036   1.337  10.745 -0.2766  0.0469  0.2113
  107OSM    O1110917   1.237   1.447  10.715  0.0229  0.2821 -0.7523
  107OSM    O1210918   1.226   1.257  10.881 -0.1709 -1.2852  0.1763
  107OSM    C1S10919   1.363   1.480  10.656  0.0186  0.6423  0.6398
  107OSM    H1S10920   1.441   1.403  10.671 -0.8562 -0.3592  0.1450
  107OSM    H1T10921   1.400   1.568  10.712  3.5752 -0.2353 -0.0923
  107OSM     NF10922   1.481   1.561  10.455  0.2069 -0.6629  0.1377
  107OSM    HNF10923   1.489   1.655  10.424  0.0301 -1.0616 -1.2232
  107OSM    C2S10924   1.356   1.522  10.505  0.4345 -0.1423 -0.4817
  107OSM    H2S10925   1.323   1.424  10.465  0.3734 -0.1573 -0.3937
  107OSM    C3S10926   1.238   1.628  10.469 -0.4442 -0.1413  0.1267
  107OSM    H3S10927   1.267   1.730  10.503  0.6849 -0.8767  1.4374
  107OSM     O310928   1.115   1.604  10.536  0.1573  0.5414 -0.3129
  107OSM    HO310929   1.121   1.541  10.608 -1.1235 -0.4439 -1.0354
  107OSM    C4S10930   1.214   1.625  10.323  0.1579  0.2212  0.5722
  107OSM    H4S10931   1.177   1.529  10.286 -2.1274  1.6359 -1.0271
  107OSM    C5S10932   1.233   1.727  10.235 -0.4199  0.4217 -0.0680
  107OSM    H5S10933   1.278   1.815  10.282 -0.8329  0.2463  0.6755
  107OSM    C6S10934   1.216   1.729  10.082 -0.3274 -0.5341  0.0071
  107OSM    H6S10935   1.148   1.811  10.051  0.1692 -0.5716 -1.2609
  107OSM    H6T10936   1.180   1.630  10.044 -0.0976 -1.4609  2.0414
  107OSM    C7S10937   1.354   1.743  10.006 -0.1051  0.6009  0.3297
  107OSM    H7S10938   1.431   1.666  10.031 -0.8899 -0.2020  0.3283
  107OSM    H7T10939   1.404   1.840  10.022  2.3803 -0.5175 -0.1641
  107OSM    C8S10940   1.334   1.747   9.848 -0.2320 -0.1318  0.6486
  107OSM    H8S10941   1.240   1.804   9.834  0.3133  0.5906 -0.1095
  107OSM    H8T10942   1.312   1.646   9.807 -0.2667  0.7293 -1.5760
  107OSM    C9S10943   1.462   1.783   9.774 -0.0084 -0.0710 -0.0984
  107OSM    H9S10944   1.541   1.718   9.817 -0.1112 -0.3994 -0.4013
  107OSM    H9T10945   1.498   1.886   9.794  1.7880 -0.7624  0.3926
  107OSM   C10S10946   1.442   1.744   9.624  0.0869  0.2379 -0.3119
  107OSM   H10S10947   1.337   1.761   9.591  0.5235  0.2583 -1.7392
  107OSM   H10T10948   1.482   1.643   9.602  0.8346  0.5769 -0.5463
  107OSM   C11S10949   1.545   1.830   9.536 -0.3778 -0.5485 -0.1436
  107OSM   H11S10950   1.645   1.826   9.584  0.1836  0.6336 -1.1842
  107OSM   H11T10951   1.524   1.939   9.539  3.1486  0.4219 -3.5736
  107OSM   C12S10952   1.547   1.786   9.392  0.4386  0.9553  0.5698
  107OSM   H12S10953   1.445   1.792   9.351  0.9879  1.0551 -0.8320
  107OSM   H12T10954   1.589   1.684   9.375  1.3970  1.1487  1.6417
  107OSM   C13S10955   1.631   1.889   9.308  0.3222 -0.0482 -0.0164
  107OSM   H13S10956   1.730   1.844   9.332 -1.1991 -4.2137 -0.8082
  107OSM   H13T10957   1.610   1.993   9.342  0.4433 -0.0955  0.2077
  107OSM   C14S10958   1.613   1.869   9.155  0.1001  0.5586 -1.0974
  107OSM   H14S10959   1.507   1.900   9.141 -0.7542 -1.8324 -0.3984
  107OSM   H14T10960   1.605   1.759   9.138  0.3464  0.3342  0.1234
  107OSM   C15S10961   1.710   1.937   9.069 -0.1488 -0.2678 -0.7968
  107OSM   H15S10962   1.806   1.924   9.122 -1.3463  0.5495  1.7564
  107OSM   H15T10963   1.686   2.046   9.071 -0.1596 -0.2330 -1.9989
  107OSM   C16S10964   1.712   1.882   8.924 -0.5770  0.6159 -0.2163
  107OSM   H16S10965   1.609   1.896   8.884 -1.0986  1.0385  1.2136
  107OSM   H16T10966   1.735   1.774   8.926 -0.2489  0.6956  0.6848
  107OSM   C17S10967   1.820   1.950   8.840  0.4094 -0.6389 -0.3576
  107OSM   H17S10968   1.803   1.914   8.736 -0.2445 -1.0635 -0.1078
  107OSM   H17T10969   1.918   1.914   8.878  1.0001 -0.7835 -1.9290
  107OSM   C18S10970   1.827   2.104   8.839 -0.1668  0.1098 -0.0837
  107OSM   H18S10971   1.739   2.153   8.792  2.0187  1.2581 -3.2859
  107OSM   H18T10972   1.909   2.138   8.773 -1.2727  2.1450 -0.4767
  107OSM   H18U10973   1.852   2.140   8.941  1.4930 -1.4191  0.0911
  107OSM    C1F10974   1.592   1.492  10.453  0.3068 -0.4145  0.6454
  107OSM     OF10975   1.592   1.372  10.480 -0.4157 -0.6093 -0.2781
  107OSM    C2F10976   1.709   1.568  10.411 -0.2626  0.0615  0.5134
  107OSM    H2F10977   1.787   1.582  10.490  1.2417 -0.3814 -0.8356
  107OSM    H2G10978   1.677   1.674  10.400 -2.1817 -0.5846 -0.4853
  107OSM    C3F10979   1.791   1.514  10.297 -0.2410  0.6139 -0.3852
  107OSM    H3F10980   1.832   1.411  10.311 -1.4971  0.4520  3.0695
  107OSM    H3G10981   1.876   1.582  10.277  0.7051  0.0497  1.4972
  107OSM    C4F10982   1.716   1.511  10.170  0.0676  0.8918  1.2092
  107OSM    H4F10983   1.674   1.613  10.158  1.7432  1.4115 -1.1118
  107OSM    H4G10984   1.635   1.437  10.187  1.8049 -1.9179 -1.6674
  107OSM    C5F10985   1.794   1.460  10.044  0.5315 -0.2016  0.3241
  107OSM    H5F10986   1.844   1.361  10.051 -2.2725 -1.6766  1.0616
  107OSM    H5G10987   1.878   1.530  10.027 -0.0574 -0.1261 -2.9734
  107OSM    C6F10988   1.719   1.462   9.909  0.3721  0.2957  0.3397
  107OSM    H6F10989   1.657   1.553   9.902  0.2819  0.1877 -0.2799
  107OSM    H6G10990   1.645   1.379   9.909  1.4991 -0.7490 -0.3571
  107OSM    C7F10991   1.814   1.457   9.784 -0.7008 -0.4677 -0.8710
  107OSM    H7F10992   1.874   1.364   9.791 -0.0747 -0.1635 -1.9127
  107OSM    H7G10993   1.885   1.543   9.784 -1.8499  0.6015 -3.7936
  107OSM    C8F10994   1.721   1.437   9.662  0.2024 -0.8123 -1.2408
  107OSM    H8F10995   1.660   1.530   9.650 -1.4857 -1.5103  1.1596
  107OSM    H8G10996   1.652   1.355   9.690 -0.2146  0.8441  3.5198
  107OSM    C9F10997   1.812   1.413   9.540 -0.5261  0.4310 -0.2712
  107OSM    H9F10998   1.919   1.433   9.559 -0.3784 -1.0728  0.6211
  107OSM   C10F10999   1.780   1.401   9.410  0.1786  0.6543 -0.3742
  107OSM   H10F11000   1.854   1.383   9.330 -0.1500  0.0301 -0.5476
  107OSM   C11F11001   1.643   1.402   9.348 -0.0728  0.1550  0.8310
  107OSM   H11F11002   1.585   1.491   9.378  1.8400  1.6391  0.3633
  107OSM   H11G11003   1.588   1.310   9.376 -0.1704  0.0665  0.3589
  107OSM   C12F11004   1.636   1.398   9.194  0.2943 -0.2007 -0.3713
  107OSM   H12F11005   1.692   1.317   9.142  1.7617 -0.0264  0.8535
  107OSM   H12G11006   1.678   1.495   9.160 -2.1126  2.0206  2.4466
  107OSM   C13F11007   1.495   1.376   9.146  0.9755  0.5551  0.1697
  107OSM   H13F11008   1.432   1.454   9.194  0.3359  0.3287 -0.2938
  107OSM   H13G11009   1.444   1.284   9.181  0.1946  0.2009 -1.7822
  107OSM   C14F11010   1.475   1.390   8.995  0.0831  0.2291 -0.0526
  107OSM   H14F11011   1.373   1.357   8.964 -0.7599  2.1912  0.4734
  107OSM   H14G11012   1.557   1.343   8.938 -0.1680 -1.4681  0.9142
  107OSM   C15F11013   1.476   1.541   8.957 -0.6010 -0.2442 -0.4607
  107OSM   H15F11014   1.576   1.587   8.970 -0.0022 -1.6605  0.1268
  107OSM   H15G11015   1.411   1.592   9.032  1.4676  0.5233  0.9204
  107OSM   C16F11016   1.425   1.553   8.811  0.0774 -0.5690 -0.2346
  107OSM   H16F11017   1.343   1.482   8.786 -0.3212  0.5404 -2.2271
  107OSM   H16G11018   1.503   1.540   8.733 -0.1130  0.1825 -0.5581
  107OSM   C17F11019   1.369   1.700   8.805 -0.0911 -0.0332 -0.4567
  107OSM   H17F11020   1.455   1.767   8.828  2.0610 -2.9987  0.7200
  107OSM   H17G11021   1.296   1.721   8.886 -1.1646 -1.5048 -0.9994
  107OSM   C18F11022   1.305   1.742   8.674  0.1204  0.3364 -0.4588
  107OSM   H18F11023   1.362   1.717   8.582 -0.7382  1.9575 -1.4580
  107OSM   H18G11024   1.291   1.852   8.676  0.4511  0.3781  0.9359
  107OSM   H18H11025   1.204   1.700   8.659  0.1101 -0.1150  0.7614
  108OSM      N11026   4.457   3.708  10.555  0.0886 -0.9246  0.2390
  108OSM    C1511027   4.592   3.662  10.511 -0.0176 -0.4007  0.4357
  108OSM   H15A11028   4.579   3.570  10.456 -1.2077  0.2327 -0.3549
  108OSM   H15B11029   4.653   3.625  10.593  1.3413 -0.5995 -0.6204
  108OSM   H15C11030   4.644   3.733  10.448  0.5651 -0.1586  1.1649
  108OSM    C1411031   4.484   3.822  10.652 -0.7978 -0.8567  0.0982
  108OSM   H14A11032   4.529   3.792  10.746 -0.1447  1.1409  0.4735
  108OSM   H14B11033   4.395   3.871  10.690  0.9215  2.0798  0.6849
  108OSM   H14C11034   4.555   3.890  10.607  0.1145 -2.7112 -1.4080
  108OSM    C1311035   4.381   3.753  10.433 -0.1723 -0.1385 -0.7337
  108OSM   H13A11036   4.364   3.670  10.366 -0.3236 -0.9249  0.2464
  108OSM   H13B11037   4.436   3.826  10.375 -0.5418 -0.1251 -1.0686
  108OSM   H13C11038   4.287   3.795  10.466 -0.2009 -1.7301  1.4715
  108OSM    C1211039   4.390   3.593  10.622  0.1919  0.0266 -0.9018
  108OSM   H12A11040   4.297   3.626  10.664 -0.1603 -0.3230 -1.4004
  108OSM   H12B11041   4.453   3.565  10.705 -2.9598  0.3374  1.8083
  108OSM    C1111042   4.357   3.470  10.536  0.0745  0.3485  0.2229
  108OSM   H11A11043   4.455   3.424  10.512 -1.4801 -4.1554  1.4917
  108OSM   H11B11044   4.304   3.493  10.441  0.7632 -0.3815 -0.3501
  108OSM      P11045   4.131   3.395  10.655  0.1363  0.1421 -0.4720
  108OSM    O1311046   4.104   3.292  10.757 -0.7769 -0.3102  0.1701
  108OSM    O1411047   4.102   3.538  10.696 -0.0662 -0.1768  0.3974
  108OSM    O1111048   4.050   3.358  10.521  0.6229 -0.6415 -0.3004
  108OSM    O1211049   4.282   3.376  10.616 -0.1214  0.1955  0.3049
  108OSM    C1S11050   4.000   3.224  10.505  0.1961 -0.6376 -0.6976
  108OSM    H1S11051   3.916   3.210  10.576  0.8584 -0.4063  0.1466
  108OSM    H1T11052   4.069   3.140  10.529  1.8797  0.9634  0.3222
  108OSM     NF11053   3.841   3.104  10.351  0.0955  0.1974 -0.5964
  108OSM    HNF11054   3.859   3.032  10.285  0.8336  1.2903 -1.6092
  108OSM    C2S11055   3.946   3.203  10.358  0.5200 -0.5877 -0.1912
  108OSM    H2S11056   3.910   3.301  10.320  2.2166  0.0845 -0.1663
  108OSM    C3S11057   4.067   3.172  10.264  0.0189 -0.2403  0.1183
  108OSM    H3S11058   4.114   3.076  10.296  0.3655 -0.3217 -0.5971
  108OSM     O311059   4.165   3.278  10.253 -0.3063  0.1792 -0.0470
  108OSM    HO311060   4.145   3.330  10.331  1.0855 -1.0663  1.2006
  108OSM    C4S11061   4.011   3.160  10.118 -0.0268  0.1545 -0.1286
  108OSM    H4S11062   3.952   3.250  10.094 -0.6296 -0.0234  0.6429
  108OSM    C5S11063   4.030   3.065  10.029 -0.3116 -0.4037  0.7786
  108OSM    H5S11064   4.103   2.989  10.060  2.3415  0.6003 -2.3557
  108OSM    C6S11065   3.983   3.072   9.884  0.0878  0.6456 -0.3646
  108OSM    H6S11066   3.933   3.168   9.861 -0.9459  0.7665  2.1590
  108OSM    H6T11067   3.905   2.996   9.864  2.4241 -1.3151 -2.9208
  108OSM    C7S11068   4.101   3.042   9.791  0.5596  0.2710  0.0094
  108OSM    H7S11069   4.144   2.945   9.824  0.7724  0.9240  1.8027
  108OSM    H7T11070   4.180   3.120   9.793 -0.7720  1.6757 -0.3246
  108OSM    C8S11071   4.048   3.008   9.650  0.0504 -0.6058 -0.5492
  108OSM    H8S11072   3.982   3.089   9.614  1.2658  0.6139 -0.1330
  108OSM    H8T11073   3.994   2.913   9.666  0.5874 -0.6244  1.4328
  108OSM    C9S11074   4.162   2.968   9.552  0.0610  0.5478  0.1364
  108OSM    H9S11075   4.218   2.876   9.579 -0.2435  0.4502  0.4460
  108OSM    H9T11076   4.244   3.042   9.542 -0.3828  0.8133 -2.1931
  108OSM   C10S11077   4.114   2.948   9.407 -0.1657  0.7386  0.4578
  108OSM   H10S11078   4.008   2.976   9.386  0.0325 -1.0787 -4.3005
  108OSM   H10T11079   4.119   2.840   9.380 -0.5310  0.8621 -0.1257
  108OSM   C11S11080   4.205   3.018   9.299 -0.1113  0.5074 -0.6401
  108OSM   H11S11081   4.311   2.990   9.318 -0.5733 -0.5521  0.4873
  108OSM   H11T11082   4.186   3.126   9.316 -1.1982  0.0489  1.4004
  108OSM   C12S11083   4.144   2.989   9.156  0.3334  0.3176 -0.1529
  108OSM   H12S11084   4.038   3.022   9.147  0.6875  1.7842  0.7193
  108OSM   H12T11085   4.135   2.879   9.138  0.3360  0.7351 -3.1300
  108OSM   C13S11086   4.231   3.048   9.042 -0.6850 -0.0473 -0.4358
  108OSM   H13S11087   4.326   2.991   9.037  0.6300  2.0830 -1.4683
  108OSM   H13T11088   4.257   3.154   9.061  2.1131 -0.6685 -0.4578
  108OSM   C14S11089   4.163   3.052   8.904 -0.2144 -0.2256 -0.6155
  108OSM   H14S11090   4.231   3.096   8.828 -0.7066  1.4553 -0.1311
  108OSM   H14T11091   4.067   3.108   8.911 -0.4538 -0.8582  2.2495
  108OSM   C15S11092   4.116   2.913   8.872 -0.1271 -0.2444 -0.1077
  108OSM   H15S11093   4.044   2.874   8.946 -0.4542 -0.3739 -0.4882
  108OSM   H15T11094   4.199   2.841   8.860 -1.0294 -1.4641  0.7944
  108OSM   C16S11095   4.041   2.907   8.738 -0.3154  0.5570  0.1694
  108OSM   H16S11096   4.103   2.950   8.657  0.8232 -1.3451 -0.0329
  108OSM   H16T11097   3.951   2.969   8.755  0.6279  1.4130  2.2671
  108OSM   C17S11098   3.982   2.772   8.708  0.2464  0.0625  0.9159
  108OSM   H17S11099   3.918   2.749   8.796 -0.6768 -0.3835  0.1485
  108OSM   H17T11100   4.060   2.696   8.687 -0.2638 -0.0470 -0.7136
  108OSM   C18S11101   3.886   2.764   8.592  0.1519 -0.0658 -1.1882
  108OSM   H18S11102   3.814   2.849   8.591  0.6958  0.4218 -2.6290
  108OSM   H18T11103   3.843   2.662   8.601  2.1555 -0.8286  0.5587
  108OSM   H18U11104   3.946   2.770   8.499  1.6696 -3.1950 -0.5357
  108OSM    C1F11105   3.727   3.118  10.407 -0.2176  0.2434  0.5686
  108OSM     OF11106   3.694   3.218  10.467 -0.0975 -0.5877 -0.7826
  108OSM    C2F11107   3.624   3.009  10.390  0.9856  0.6516  0.7976
  108OSM    H2F11108   3.556   3.023  10.476 -1.4707  2.4218 -1.2849
  108OSM    H2G11109   3.674   2.911  10.407 -0.5287 -0.3384 -0.2329
  108OSM    C3F11110   3.564   3.017  10.252  0.1926 -0.2683  0.0838
  108OSM    H3F11111   3.639   2.980  10.178  0.9864  1.5925 -0.0992
  108OSM    H3G11112   3.542   3.124  10.233 -1.0011 -0.3718  0.8043
  108OSM    C4F11113   3.432   2.939  10.232  1.0567  0.7376  0.3299
  108OSM    H4F11114   3.363   2.983  10.307  1.7492  1.2918  0.6517
  108OSM    H4G11115   3.447   2.831  10.255 -0.2827  0.3315 -0.5548
  108OSM    C5F11116   3.382   2.957  10.090 -0.1971 -0.1736  0.2479
  108OSM    H5F11117   3.372   3.067  10.073 -3.6146 -0.2943  0.8172
  108OSM    H5G11118   3.273   2.936  10.093 -0.4923  1.2566  0.4238
  108OSM    C6F11119   3.456   2.883   9.978 -0.3455  0.2978  0.4485
  108OSM    H6F11120   3.435   2.777  10.000 -4.3111  0.3652 -2.0060
  108OSM    H6G11121   3.566   2.900   9.974 -0.1713 -0.8981 -0.4999
  108OSM    C7F11122   3.389   2.901   9.840  0.1867  0.6704 -0.1987
  108OSM    H7F11123   3.282   2.889   9.868  0.9353 -1.4103  2.1765
  108OSM    H7G11124   3.423   2.833   9.759 -0.7374  1.4009 -1.2353
  108OSM    C8F11125   3.411   3.036   9.780  0.3971 -0.2385 -0.5628
  108OSM    H8F11126   3.399   3.121   9.850  2.0623 -0.8883  0.5544
  108OSM    H8G11127   3.329   3.046   9.705  1.2698  1.7591 -1.3028
  108OSM    C9F11128   3.546   3.031   9.723 -0.8428 -0.1949  1.0171
  108OSM    H9F11129   3.624   3.087   9.778 -0.0365  0.9007 -1.0890
  108OSM   C10F11130   3.583   2.974   9.606 -0.3586  0.5525 -0.7590
  108OSM   H10F11131   3.688   2.990   9.578 -0.0254 -0.1198  0.0573
  108OSM   C11F11132   3.489   2.911   9.503  0.0801  0.0495 -0.4568
  108OSM   H11F11133   3.392   2.878   9.545 -0.3332 -1.3535 -2.3774
  108OSM   H11G11134   3.537   2.824   9.453 -2.1511 -1.6514  0.1833
  108OSM   C12F11135   3.450   3.011   9.387  0.0652 -0.7906  0.2147
  108OSM   H12F11136   3.403   3.095   9.441  0.2880 -0.4317 -0.1402
  108OSM   H12G11137   3.377   2.962   9.319 -0.2201  0.0150 -0.0707
  108OSM   C13F11138   3.565   3.055   9.301  0.1383 -0.4071  0.1476
  108OSM   H13F11139   3.591   2.986   9.218 -1.0729  1.3564 -1.8066
  108OSM   H13G11140   3.651   3.065   9.370  0.8728 -3.3389 -0.2209
  108OSM   C14F11141   3.531   3.190   9.240 -0.5326  0.5850  0.0223
  108OSM   H14F11142   3.482   3.252   9.318 -1.1591  1.9237 -1.3712
  108OSM   H14G11143   3.452   3.177   9.163  0.3391 -2.4534 -0.4919
  108OSM   C15F11144   3.650   3.274   9.198  0.0073  0.1820  0.2328
  108OSM   H15F11145   3.720   3.284   9.284  0.3043 -4.6725  0.8769
  108OSM   H15G11146   3.624   3.376   9.165 -2.5998 -0.8681 -1.3062
  108OSM   C16F11147   3.731   3.217   9.080 -0.0070 -0.0751  0.0938
  108OSM   H16F11148   3.755   3.111   9.103 -1.1493 -0.0300  1.6205
  108OSM   H16G11149   3.828   3.270   9.067 -0.1556  0.4609  1.0808
  108OSM   C17F11150   3.662   3.227   8.944 -0.8779  0.0857 -0.6716
  108OSM   H17F11151   3.633   3.334   8.945 -1.9535 -0.1738 -1.4385
  108OSM   H17G11152   3.579   3.153   8.952  0.0595 -0.9057  0.1092
  108OSM   C18F11153   3.749   3.187   8.825 -0.2711 -0.2263  0.3875
  108OSM   H18F11154   3.776   3.079   8.827  2.0620  0.3091  0.7073
  108OSM   H18G11155   3.844   3.244   8.834  0.1978 -1.1490  1.5195
  108OSM   H18H11156   3.698   3.233   8.738 -0.3403  1.6561  1.3701
  109OSM      N11157   2.295   1.931  11.016 -0.4226 -0.1373 -0.1539
  109OSM    C1511158   2.162   1.957  11.082  0.1375 -0.1046 -0.1748
  109OSM   H15A11159   2.158   2.056  11.124  1.0191  0.5801 -1.5955
  109OSM   H15B11160   2.131   1.881  11.152 -0.1305 -1.4115 -1.6380
  109OSM   H15C11161   2.082   1.952  11.009 -1.7540 -1.2313  1.8566
  109OSM    C1411162   2.395   1.895  11.123  0.0221 -0.9631  0.8453
  109OSM   H14A11163   2.411   1.981  11.187  1.0169 -1.2863  1.0517
  109OSM   H14B11164   2.495   1.880  11.084 -0.0822 -0.1588  0.2239
  109OSM   H14C11165   2.348   1.823  11.187 -1.1831 -1.0726 -0.1143
  109OSM    C1311166   2.291   1.806  10.935 -0.0616 -0.3453  0.2524
  109OSM   H13A11167   2.383   1.769  10.893  0.2108  1.7461 -1.0997
  109OSM   H13B11168   2.218   1.813  10.855 -0.4991 -2.9234  0.3098
  109OSM   H13C11169   2.252   1.719  10.985  1.8244 -1.1083  0.4898
  109OSM    C1211170   2.340   2.051  10.935  0.3901 -0.2401  0.6703
  109OSM   H12A11171   2.338   2.139  10.998  2.4269  1.5499 -1.5360
  109OSM   H12B11172   2.265   2.063  10.859 -0.0670  1.3428  1.3323
  109OSM    C1111173   2.482   2.063  10.872  0.1484  0.1566  0.2968
  109OSM   H11A11174   2.476   2.150  10.803 -0.4981 -0.7725 -0.8581
  109OSM   H11B11175   2.503   1.975  10.807  2.2117  0.3186  0.6814
  109OSM      P11176   2.637   2.208  11.019 -0.2404  0.2602 -0.1192
  109OSM    O1311177   2.521   2.274  11.087  0.1031  0.4465 -0.0985
  109OSM    O1411178   2.763   2.186  11.101  0.4223 -0.1419 -0.2017
  109OSM    O1111179   2.687   2.277  10.885  0.8023 -0.7458  0.6951
  109OSM    O1211180   2.589   2.068  10.967  0.5212  0.1466  0.1903
  109OSM    C1S11181   2.799   2.238  10.812  0.5825 -0.3855  0.0415
  109OSM    H1S11182   2.831   2.141  10.855 -1.7017 -0.1403  2.5421
  109OSM    H1T11183   2.881   2.312  10.820 -0.3251  0.6730 -0.1812
  109OSM     NF11184   2.842   2.168  10.566  0.4528  0.2852  0.6180
  109OSM    HNF11185   2.890   2.217  10.494  2.0101 -2.2096 -0.1876
  109OSM    C2S11186   2.757   2.237  10.654 -0.5799 -0.3184  0.2727
  109OSM    H2S11187   2.659   2.185  10.647 -1.3484  0.9429  1.1931
  109OSM    C3S11188   2.739   2.385  10.612 -0.2821 -0.5664  0.4827
  109OSM    H3S11189   2.838   2.436  10.615  1.1860 -2.9974 -1.8145
  109OSM     O311190   2.643   2.450  10.696  0.3547  0.2212  0.5187
  109OSM    HO311191   2.632   2.382  10.762 -0.0377  0.4413  0.6823
  109OSM    C4S11192   2.683   2.396  10.475  0.2776 -0.4036  0.4961
  109OSM    H4S11193   2.581   2.356  10.467  1.2313 -3.1987  1.3139
  109OSM    C5S11194   2.744   2.434  10.364 -0.1172  0.1671  0.4933
  109OSM    H5S11195   2.851   2.461  10.369  0.2293 -1.0263  0.0341
  109OSM    C6S11196   2.681   2.442  10.221 -0.0492 -0.2001  0.2755
  109OSM    H6S11197   2.655   2.549  10.206  0.2306 -0.1104  0.4114
  109OSM    H6T11198   2.585   2.386  10.229 -1.3439  1.9055  0.1843
  109OSM    C7S11199   2.776   2.398  10.107  0.4988 -0.4522  0.1944
  109OSM    H7S11200   2.804   2.295  10.136 -0.6186 -0.8432 -0.0535
  109OSM    H7T11201   2.864   2.466  10.105 -0.5165  0.9738  1.5768
  109OSM    C8S11202   2.709   2.401   9.968 -1.0536 -0.2565  0.3497
  109OSM    H8S11203   2.678   2.505   9.944 -0.3136 -0.0966  0.0786
  109OSM    H8T11204   2.612   2.346   9.974 -0.8920 -0.5435  0.3196
  109OSM    C9S11205   2.809   2.356   9.859  0.1557 -0.1439 -0.5542
  109OSM    H9S11206   2.904   2.411   9.879  0.6026 -0.4101 -1.8167
  109OSM    H9T11207   2.769   2.380   9.758 -1.2041 -0.2280 -0.0450
  109OSM   C10S11208   2.851   2.209   9.870  0.3579  0.4749  0.6166
  109OSM   H10S11209   2.913   2.204   9.962  0.2829  1.8657  0.7576
  109OSM   H10T11210   2.918   2.202   9.782 -0.6478 -0.4721 -0.0963
  109OSM   C11S11211   2.734   2.111   9.857 -0.2892 -0.4420  0.2067
  109OSM   H11S11212   2.698   2.125   9.753 -0.3044  0.5037  0.3357
  109OSM   H11T11213   2.656   2.128   9.935 -1.1716 -0.7087 -0.5931
  109OSM   C12S11214   2.772   1.962   9.847  0.8370 -0.0401  0.7894
  109OSM   H12S11215   2.822   1.930   9.754 -0.8147 -1.4204  0.3216
  109OSM   H12T11216   2.680   1.900   9.836  1.0815 -0.1241 -1.1258
  109OSM   C13S11217   2.848   1.905   9.966  0.2876 -0.9342  0.5636
  109OSM   H13S11218   2.947   1.954   9.976  0.4074 -1.2069  0.7215
  109OSM   H13T11219   2.872   1.801   9.935  0.1317 -0.6853 -0.4324
  109OSM   C14S11220   2.786   1.926  10.103  0.3619 -0.3747  0.0621
  109OSM   H14S11221   2.757   2.032  10.119  0.8150 -0.2369 -0.0303
  109OSM   H14T11222   2.863   1.885  10.172  0.1546 -1.2730 -0.2181
  109OSM   C15S11223   2.656   1.845  10.129 -0.4042  0.1406 -0.2259
  109OSM   H15S11224   2.676   1.748  10.178 -1.9466 -0.6152 -1.0038
  109OSM   H15T11225   2.618   1.799  10.035 -0.8826  2.2054 -1.1055
  109OSM   C16S11226   2.555   1.918  10.217 -0.2278  0.3465  0.4411
  109OSM   H16S11227   2.472   1.846  10.231  1.3896 -2.5462 -3.0769
  109OSM   H16T11228   2.508   2.005  10.168  0.8652 -0.1690 -1.6383
  109OSM   C17S11229   2.601   1.964  10.346 -0.3583  0.2421 -0.4460
  109OSM   H17S11230   2.670   2.051  10.351 -1.7038  1.2626  2.0147
  109OSM   H17T11231   2.649   1.877  10.395 -1.4132  0.8410  1.8120
  109OSM   C18S11232   2.487   2.006  10.437 -0.4798  0.6906  0.5572
  109OSM   H18S11233   2.437   2.091  10.384 -0.6988 -0.8128 -1.8040
  109OSM   H18T11234   2.518   2.051  10.534  1.3294 -2.1006  1.3841
  109OSM   H18U11235   2.416   1.922  10.451  1.7944 -1.4157  0.1474
  109OSM    C1F11236   2.872   2.033  10.574  0.3194 -0.0213 -0.6411
  109OSM     OF11237   2.816   1.965  10.658  0.0971 -0.4889  0.0547
  109OSM    C2F11238   2.993   1.976  10.492  0.0340 -1.0409 -0.1055
  109OSM    H2F11239   2.956   1.887  10.437 -1.7063 -1.3352  1.4591
  109OSM    H2G11240   3.075   1.952  10.563 -0.2715  1.3380  1.1610
  109OSM    C3F11241   3.047   2.070  10.385 -0.1638  0.5133 -0.3885
  109OSM    H3F11242   3.095   2.159  10.429  0.8471 -1.0138  1.8286
  109OSM    H3G11243   2.976   2.109  10.309  0.2385  0.4460 -0.7964
  109OSM    C4F11244   3.139   1.994  10.293  0.6865  0.2932  0.9109
  109OSM    H4F11245   3.080   1.927  10.226 -0.6251  0.2250  2.0947
  109OSM    H4G11246   3.213   1.935  10.350 -0.8322 -0.3370  2.3183
  109OSM    C5F11247   3.213   2.099  10.204 -0.3099 -0.5862  0.2071
  109OSM    H5F11248   3.267   2.178  10.261  0.6757 -1.1536  0.0834
  109OSM    H5G11249   3.143   2.152  10.136 -0.3619  2.4853  2.4355
  109OSM    C6F11250   3.321   2.034  10.108 -0.1534 -0.0755  0.4017
  109OSM    H6F11251   3.363   1.947  10.162  1.3083  0.8220  0.7648
  109OSM    H6G11252   3.403   2.104  10.082 -2.1220  0.8649 -4.5544
  109OSM    C7F11253   3.258   1.989   9.974  0.1382 -0.6655 -0.0001
  109OSM    H7F11254   3.252   2.077   9.907  1.2379 -1.8525 -1.7367
  109OSM    H7G11255   3.154   1.955   9.993 -0.2450 -0.1913 -1.1623
  109OSM    C8F11256   3.335   1.874   9.899  0.8797  0.1751 -0.3845
  109OSM    H8F11257   3.291   1.856   9.798  0.1239 -0.7525  0.0877
  109OSM    H8G11258   3.310   1.783   9.957 -1.4464 -0.6907 -2.5354
  109OSM    C9F11259   3.484   1.886   9.893 -0.2145  0.9180  0.4475
  109OSM    H9F11260   3.540   1.816   9.957  1.2764  0.6523 -1.0924
  109OSM   C10F11261   3.555   1.969   9.815 -0.2771  0.1948  0.0651
  109OSM   H10F11262   3.665   1.969   9.820 -0.1655 -2.1569 -0.9131
  109OSM   C11F11263   3.496   2.068   9.727 -0.3503 -0.3097 -0.0468
  109OSM   H11F11264   3.546   2.166   9.746 -0.6982  0.2317 -1.8002
  109OSM   H11G11265   3.387   2.084   9.739 -0.2449  0.9562 -0.5633
  109OSM   C12F11266   3.519   2.020   9.584  0.2541  0.2606  0.3883
  109OSM   H12F11267   3.437   1.949   9.560 -0.2338  1.8332 -3.2397
  109OSM   H12G11268   3.613   1.972   9.552 -0.2836 -0.8308  0.4139
  109OSM   C13F11269   3.506   2.132   9.489 -0.0755 -1.0533  0.2648
  109OSM   H13F11270   3.587   2.201   9.522 -1.7655 -0.4830  3.6385
  109OSM   H13G11271   3.405   2.176   9.505  0.2352  0.0605 -0.7002
  109OSM   C14F11272   3.512   2.086   9.343 -0.6773 -0.1146  0.2228
  109OSM   H14F11273   3.450   1.996   9.323 -0.9349 -0.1450  1.1393
  109OSM   H14G11274   3.613   2.045   9.323 -1.0732 -0.9974  0.0039
  109OSM   C15F11275   3.494   2.205   9.236 -0.7994 -0.0137  0.6547
  109OSM   H15F11276   3.550   2.298   9.262 -2.4498  0.7856  1.5224
  109OSM   H15G11277   3.387   2.234   9.230 -0.8140 -0.3150 -4.0135
  109OSM   C16F11278   3.552   2.179   9.086 -0.3334  0.0901  0.3178
  109OSM   H16F11279   3.521   2.075   9.066  0.8942 -0.3134  0.4322
  109OSM   H16G11280   3.662   2.179   9.103 -0.0449 -1.5664 -1.2839
  109OSM   C17F11281   3.516   2.290   8.981  0.0037 -0.2982  0.1657
  109OSM   H17F11282   3.586   2.272   8.897 -0.7885 -2.9002 -0.0073
  109OSM   H17G11283   3.529   2.388   9.031 -0.4460  0.8940 -1.9142
  109OSM   C18F11284   3.377   2.270   8.915 -0.7069 -0.1311 -0.2973
  109OSM   H18F11285   3.351   2.346   8.839 -1.0239  0.0422 -0.0202
  109OSM   H18G11286   3.301   2.275   8.996  0.8908  1.5098  1.1831
  109OSM   H18H11287   3.378   2.164   8.880 -1.2517 -1.0378  2.1565
  110OSM      N11288   3.585   0.102  11.315  0.2273 -0.3292  0.1650
  110OSM    C1511289   3.537   0.043  11.444 -0.1106  0.2113 -0.0914
  110OSM   H15A11290   3.445  -0.013  11.444  1.3199 -2.2962 -0.5779
  110OSM   H15B11291   3.514   0.125  11.511 -1.0003  1.2958 -1.6690
  110OSM   H15C11292   3.622  -0.014  11.480  0.7179  0.9566 -0.7982
  110OSM    C1411293   3.480   0.205  11.261 -0.1871 -0.3171  0.4333
  110OSM   H14A11294   3.474   0.294  11.321 -0.4323 -1.6010  2.4090
  110OSM   H14B11295   3.380   0.164  11.258 -0.7049  0.9109 -2.3229
  110OSM   H14C11296   3.518   0.229  11.163  0.3498 -2.3317  0.0923
  110OSM    C1311297   3.711   0.178  11.348  0.6772 -0.1717  0.4351
  110OSM   H13A11298   3.783   0.111  11.393 -1.2404 -0.8462  2.7323
  110OSM   H13B11299   3.693   0.267  11.406  1.0474 -1.2184  2.2228
  110OSM   H13C11300   3.750   0.219  11.256 -0.5061 -0.8836 -0.4038
  110OSM    C1211301   3.606  -0.009  11.213  0.1272  0.1960  0.8512
  110OSM   H12A11302   3.519  -0.073  11.211  0.2269  0.0798 -0.0474
  110OSM   H12B11303   3.692  -0.066  11.243  0.1428  0.4182  1.2361
  110OSM    C1111304   3.627   0.022  11.066 -0.3748 -0.7731 -0.4560
  110OSM   H11A11305   3.529   0.050  11.023 -0.5956  0.6921  0.8820
  110OSM   H11B11306   3.661  -0.069  11.012 -1.5690 -1.2955 -0.3468
  110OSM      P11307   3.716   0.250  10.948  0.3510 -0.1214  0.0054
  110OSM    O1311308   3.590   0.320  10.982 -0.7544 -0.7817 -0.0131
  110OSM    O1411309   3.848   0.322  10.948 -0.4245  0.2568  0.0131
  110OSM    O1111310   3.691   0.188  10.805 -0.0705  0.2955  0.8673
  110OSM    O1211311   3.726   0.127  11.052  0.7552 -0.2027  0.0257
  110OSM    C1S11312   3.759   0.069  10.758 -0.0970  0.0203 -0.4784
  110OSM    H1S11313   3.685  -0.012  10.777  0.1100 -0.5373 -1.9024
  110OSM    H1T11314   3.846   0.045  10.822 -1.6552  2.8743  3.0615
  110OSM     NF11315   3.859  -0.064  10.578  0.2712 -0.2992  0.5262
  110OSM    HNF11316   3.958  -0.056  10.570  0.0663  1.6667 -0.6755
  110OSM    C2S11317   3.790   0.062  10.602 -0.3224  0.4597 -0.4860
  110OSM    H2S11318   3.690   0.065  10.553 -1.1382 -3.7716  0.4789
  110OSM    C3S11319   3.881   0.177  10.567  0.5418  0.1711 -0.4953
  110OSM    H3S11320   3.972   0.177  10.631  0.6940  1.0842 -0.6901
  110OSM     O311321   3.819   0.306  10.582  0.2861  0.5883 -0.2969
  110OSM    HO311322   3.727   0.278  10.593  0.6211  0.2248  2.0836
  110OSM    C4S11323   3.921   0.168  10.415  0.0610 -0.0196 -0.0411
  110OSM    H4S11324   3.836   0.142  10.349  0.3948 -0.6593 -0.2268
  110OSM    C5S11325   4.044   0.189  10.362  0.2082  0.0655 -0.0729
  110OSM    H5S11326   4.137   0.201  10.420  2.7571 -2.5036 -3.2494
  110OSM    C6S11327   4.077   0.186  10.217  0.2921 -0.5784  0.7673
  110OSM    H6S11328   3.997   0.138  10.157  2.4843 -1.2039 -1.8540
  110OSM    H6T11329   4.159   0.113  10.199 -0.4967 -2.1190  2.9780
  110OSM    C7S11330   4.109   0.320  10.150  0.3586  0.1566 -0.5663
  110OSM    H7S11331   4.201   0.353  10.203 -0.4569  0.4825  0.7111
  110OSM    H7T11332   4.041   0.403  10.178  0.5161  0.0526  0.1548
  110OSM    C8S11333   4.104   0.312   9.993 -0.4028 -0.2914 -0.4730
  110OSM    H8S11334   3.998   0.316   9.959 -1.0596  2.5869  1.5305
  110OSM    H8T11335   4.142   0.212   9.964 -0.7051 -0.8027  0.8471
  110OSM    C9S11336   4.192   0.420   9.933  0.2410 -0.2358  0.3623
  110OSM    H9S11337   4.280   0.442   9.997  0.8740 -1.6144 -0.0111
  110OSM    H9T11338   4.132   0.514   9.929 -0.8681 -0.8308  1.9343
  110OSM   C10S11339   4.242   0.383   9.796 -1.1128 -0.5371  0.4069
  110OSM   H10S11340   4.311   0.296   9.800  1.7131  1.5520 -0.0934
  110OSM   H10T11341   4.310   0.467   9.770 -2.2993  0.4096  0.2561
  110OSM   C11S11342   4.133   0.364   9.690 -0.4202  0.6022  1.0613
  110OSM   H11S11343   4.090   0.460   9.656  1.3409  0.8117 -0.7911
  110OSM   H11T11344   4.054   0.303   9.738 -0.2117 -0.5389  0.0018
  110OSM   C12S11345   4.187   0.293   9.563 -0.3204  0.0810  0.0702
  110OSM   H12S11346   4.241   0.198   9.584  0.1403  0.2636 -0.2692
  110OSM   H12T11347   4.268   0.359   9.524 -0.4053  0.5534  0.6628
  110OSM   C13S11348   4.089   0.282   9.441 -0.5602  0.0234 -0.2129
  110OSM   H13S11349   4.052   0.385   9.419 -3.8283 -0.9456  0.1043
  110OSM   H13T11350   3.995   0.231   9.473 -0.6820  0.3733 -0.0110
  110OSM   C14S11351   4.152   0.211   9.325 -0.2738  0.4114  0.2875
  110OSM   H14S11352   4.180   0.112   9.367 -2.8524 -0.6344 -0.2526
  110OSM   H14T11353   4.247   0.260   9.296  1.6495 -2.3899  1.4469
  110OSM   C15S11354   4.052   0.219   9.211  0.3525  0.7236 -0.7291
  110OSM   H15S11355   4.020   0.324   9.196  1.3517  1.3519  1.3054
  110OSM   H15T11356   3.961   0.161   9.238  0.8923  0.3863  0.4051
  110OSM   C16S11357   4.112   0.178   9.077 -0.4257 -0.0968 -0.5084
  110OSM   H16S11358   4.133   0.068   9.083  1.7470  0.3090  0.4890
  110OSM   H16T11359   4.205   0.230   9.047 -1.4250  0.6677 -2.4288
  110OSM   C17S11360   4.014   0.187   8.961  0.0607 -0.5693  0.4785
  110OSM   H17S11361   3.974   0.291   8.962 -0.1806 -0.6591  0.2168
  110OSM   H17T11362   3.925   0.125   8.986  0.5490 -1.3375  0.3405
  110OSM   C18S11363   4.074   0.140   8.825  1.1540  0.0034 -0.1123
  110OSM   H18S11364   3.993   0.104   8.759  1.2894  0.6941 -0.6638
  110OSM   H18T11365   4.152   0.063   8.838  1.9487  0.8720  0.4389
  110OSM   H18U11366   4.120   0.231   8.781  1.4800 -0.1546 -0.0987
  110OSM    C1F11367   3.806  -0.185  10.579  0.5222 -0.3050  0.3653
  110OSM     OF11368   3.697  -0.210  10.631  0.6825  0.2219 -0.5649
  110OSM    C2F11369   3.884  -0.295  10.536 -0.1532 -0.0013 -0.4326
  110OSM    H2F11370   3.841  -0.381  10.591  0.3902 -0.3055 -0.4723
  110OSM    H2G11371   3.993  -0.293  10.559  0.4747  1.8894 -3.0760
  110OSM    C3F11372   3.855  -0.344  10.388 -0.2037  0.5085  0.6080
  110OSM    H3F11373   3.749  -0.377  10.382  0.2293 -0.6933 -2.0049
  110OSM    H3G11374   3.921  -0.432  10.371  1.2357  1.4699  1.0896
  110OSM    C4F11375   3.882  -0.239  10.272  0.0748  0.5033 -0.6694
  110OSM    H4F11376   3.815  -0.153  10.294 -1.6130 -0.7492 -0.7267
  110OSM    H4G11377   3.855  -0.286  10.175 -2.4133 -1.5754  0.8855
  110OSM    C5F11378   4.033  -0.216  10.282  0.3993 -0.0727 -0.1894
  110OSM    H5F11379   4.077  -0.309  10.325  0.6799  1.0053  1.9659
  110OSM    H5G11380   4.055  -0.142  10.361 -0.9603 -0.3469  0.4591
  110OSM    C6F11381   4.118  -0.177  10.163  0.0576  0.2532  0.1801
  110OSM    H6F11382   4.085  -0.079  10.121  0.5782  0.0196 -0.8144
  110OSM    H6G11383   4.100  -0.258  10.089  0.4919  1.1188 -0.9054
  110OSM    C7F11384   4.264  -0.169  10.200 -0.2727  0.1379  0.1708
  110OSM    H7F11385   4.304  -0.250  10.266  0.4119 -0.9617 -1.5218
  110OSM    H7G11386   4.295  -0.080  10.258  1.0228  0.3156 -0.7593
  110OSM    C8F11387   4.357  -0.177  10.075 -0.7209  0.3617 -0.3397
  110OSM    H8F11388   4.351  -0.279  10.031 -0.5233  0.1824  0.0344
  110OSM    H8G11389   4.459  -0.161  10.118 -0.3677  1.1946 -1.4472
  110OSM    C9F11390   4.323  -0.071   9.979 -0.2622  0.7308  0.6238
  110OSM    H9F11391   4.347   0.024  10.029  1.0965  2.0542 -2.2438
  110OSM   C10F11392   4.275  -0.082   9.856 -0.1791  0.6245  1.0989
  110OSM   H10F11393   4.266   0.006   9.790 -0.9497 -2.2001 -2.8499
  110OSM   C11F11394   4.251  -0.210   9.778 -0.0240  0.1690  0.3527
  110OSM   H11F11395   4.156  -0.212   9.720  0.6187 -2.4042 -0.7760
  110OSM   H11G11396   4.242  -0.295   9.849 -0.2103 -0.0029  0.1266
  110OSM   C12F11397   4.350  -0.237   9.658  0.1271 -0.0385 -0.2298
  110OSM   H12F11398   4.370  -0.344   9.639  3.1795  0.0656  1.6985
  110OSM   H12G11399   4.451  -0.193   9.675 -0.1008  1.0718 -1.5627
  110OSM   C13F11400   4.301  -0.174   9.517 -0.3879  0.2666 -0.0800
  110OSM   H13F11401   4.277  -0.066   9.520 -0.6846  0.2503 -1.2369
  110OSM   H13G11402   4.213  -0.233   9.483  1.0266 -0.7979 -2.1325
  110OSM   C14F11403   4.407  -0.204   9.410  0.1696  0.4725  0.1040
  110OSM   H14F11404   4.411  -0.315   9.408 -0.2956  0.4708 -1.3447
  110OSM   H14G11405   4.501  -0.159   9.449 -1.7560  4.5371  0.6188
  110OSM   C15F11406   4.387  -0.139   9.269 -0.2657 -0.7267  0.0331
  110OSM   H15F11407   4.406  -0.029   9.274  0.6280 -0.8000 -1.2637
  110OSM   H15G11408   4.284  -0.164   9.238 -0.3005 -1.3979  0.6769
  110OSM   C16F11409   4.477  -0.204   9.165 -0.6947  0.0053  0.0702
  110OSM   H16F11410   4.476  -0.314   9.181  0.3371  0.1432  1.2112
  110OSM   H16G11411   4.578  -0.161   9.179  0.6365 -1.2050 -4.2609
  110OSM   C17F11412   4.426  -0.174   9.017  0.4708 -0.2708 -0.4468
  110OSM   H17F11413   4.391  -0.069   9.020  1.8022  0.1697  0.7235
  110OSM   H17G11414   4.341  -0.241   8.994 -0.1870  0.4296 -0.1050
  110OSM   C18F11415   4.543  -0.189   8.925 -0.5299  0.0723  0.3397
  110OSM   H18F11416   4.636  -0.137   8.955  1.9724 -1.8022 -3.4407
  110OSM   H18G11417   4.505  -0.168   8.823 -1.3855 -0.5318  0.5207
  110OSM   H18H11418   4.567  -0.297   8.916 -0.1677 -0.0289  2.1045
  111OSM      N11419   5.521   5.270  10.908  0.1712  0.0104 -0.6124
  111OSM    C1511420   5.422   5.175  10.963  0.2844 -0.1228 -0.0731
  111OSM   H15A11421   5.456   5.073  10.956 -1.5832 -0.8442  0.6725
  111OSM   H15B11422   5.323   5.174  10.922 -0.5999  1.7371  1.8287
  111OSM   H15C11423   5.418   5.192  11.070  1.4415 -0.2595  0.0121
  111OSM    C1411424   5.466   5.408  10.943  0.1121 -0.3973  0.5808
  111OSM   H14A11425   5.521   5.482  10.887  0.2657 -1.4818 -0.7317
  111OSM   H14B11426   5.465   5.431  11.049 -1.5578  0.2903  0.4498
  111OSM   H14C11427   5.360   5.410  10.922  0.4419 -0.0779 -1.1804
  111OSM    C1311428   5.644   5.253  10.984 -0.3152 -0.3246  0.3221
  111OSM   H13A11429   5.705   5.342  10.977 -0.2296 -0.1343  2.7169
  111OSM   H13B11430   5.702   5.174  10.938  2.1977  1.6162 -0.0989
  111OSM   H13C11431   5.641   5.239  11.091  2.4006 -2.0609  0.2815
  111OSM    C1211432   5.533   5.263  10.755  0.2961  0.8300  0.4010
  111OSM   H12A11433   5.601   5.341  10.724  0.7869 -0.1186 -0.9988
  111OSM   H12B11434   5.438   5.286  10.709 -0.7819 -0.8371  1.6747
  111OSM    C1111435   5.582   5.127  10.693 -0.3717  0.4095 -0.3370
  111OSM   H11A11436   5.569   5.115  10.584 -1.8062  0.1666 -0.1513
  111OSM   H11B11437   5.520   5.043  10.731 -0.6741  0.8792  0.2385
  111OSM      P11438   5.841   5.203  10.674 -0.1640  0.2653  0.0926
  111OSM    O1311439   5.812   5.350  10.686  0.0298  0.5259  0.1432
  111OSM    O1411440   5.970   5.166  10.743 -0.1251 -0.1266 -0.4493
  111OSM    O1111441   5.866   5.160  10.523 -0.3911  0.7229  0.5566
  111OSM    O1211442   5.719   5.117  10.725 -0.3943 -0.2157 -0.0770
  111OSM    C1S11443   5.901   5.023  10.494 -0.1467  0.2978  0.1995
  111OSM    H1S11444   5.803   4.971  10.483 -0.7787  1.3369  0.7459
  111OSM    H1T11445   5.967   4.976  10.570  1.0430  1.3163 -0.1661
  111OSM     NF11446   5.985   4.888  10.306 -0.4434  0.1714 -0.7531
  111OSM    HNF11447   6.072   4.851  10.338  0.1618  1.4173 -0.9401
  111OSM    C2S11448   5.964   5.027  10.348 -0.1075  0.0626 -0.1004
  111OSM    H2S11449   5.891   5.066  10.274 -0.6741 -0.6969  0.0407
  111OSM    C3S11450   6.095   5.116  10.345 -0.1611 -0.0965  0.5240
  111OSM    H3S11451   6.163   5.077  10.423  0.8942 -1.6633 -1.0851
  111OSM     O311452   6.069   5.251  10.379 -0.0480 -0.4470 -0.0197
  111OSM    HO311453   5.982   5.241  10.419 -0.5572  0.9275 -0.7164
  111OSM    C4S11454   6.171   5.111  10.219 -0.1635  0.6735  0.6334
  111OSM    H4S11455   6.256   5.041  10.216 -2.0119 -1.7394  1.0969
  111OSM    C5S11456   6.144   5.179  10.108 -0.2985  0.0802  0.3310
  111OSM    H5S11457   6.053   5.240  10.098  0.0504  1.2724  3.4409
  111OSM    C6S11458   6.224   5.170   9.980 -0.2620  0.0417  0.1230
  111OSM    H6S11459   6.305   5.245   9.989 -0.5216  0.1652  2.0018
  111OSM    H6T11460   6.171   5.192   9.885 -0.4142  2.1400  0.6358
  111OSM    C7S11461   6.296   5.032   9.961  0.0164  0.7832  0.1206
  111OSM    H7S11462   6.225   4.948   9.979 -0.1768  1.0748  0.7286
  111OSM    H7T11463   6.375   5.021  10.038  0.2580  0.6154 -0.1518
  111OSM    C8S11464   6.355   5.002   9.821  0.0444 -0.3790 -0.4334
  111OSM    H8S11465   6.271   5.014   9.749 -1.7740 -1.4004  1.3915
  111OSM    H8T11466   6.391   4.897   9.817  2.7329  0.4260  0.3235
  111OSM    C9S11467   6.484   5.086   9.803  0.0614  0.1151 -0.2877
  111OSM    H9S11468   6.553   5.045   9.880 -0.3226  0.2794  0.1519
  111OSM    H9T11469   6.472   5.191   9.839  0.2568 -0.4879  1.6975
  111OSM   C10S11470   6.535   5.078   9.654  0.2666  0.3366 -0.3100
  111OSM   H10S11471   6.460   5.137   9.598  1.2146  2.5943  0.6563
  111OSM   H10T11472   6.530   4.971   9.626  1.6643 -0.4653  2.1662
  111OSM   C11S11473   6.677   5.124   9.628  0.0160  0.0683 -0.1669
  111OSM   H11S11474   6.744   5.057   9.687 -1.1964 -0.0674  1.1207
  111OSM   H11T11475   6.684   5.234   9.644  1.3142 -0.0661  0.3832
  111OSM   C12S11476   6.730   5.091   9.481  0.3113 -0.5069 -0.5101
  111OSM   H12S11477   6.674   5.158   9.411 -0.4817  0.9008  1.3667
  111OSM   H12T11478   6.694   4.987   9.472  1.3650 -0.8231 -1.2095
  111OSM   C13S11479   6.884   5.121   9.474 -0.2714 -0.4778 -0.5019
  111OSM   H13S11480   6.933   5.061   9.554  0.5101 -1.3961 -1.6308
  111OSM   H13T11481   6.893   5.229   9.498 -0.2475 -0.3680 -1.0005
  111OSM   C14S11482   6.945   5.094   9.344 -0.1643 -0.6004  0.2684
  111OSM   H14S11483   6.924   4.991   9.308 -2.2063 -1.2688  3.0807
  111OSM   H14T11484   7.056   5.101   9.347 -0.1238 -1.4135  2.3842
  111OSM   C15S11485   6.896   5.203   9.240  0.1827 -0.4479 -0.2076
  111OSM   H15S11486   6.936   5.302   9.270 -1.3778 -0.0017  0.5522
  111OSM   H15T11487   6.786   5.217   9.237 -0.0926 -1.8557  1.3908
  111OSM   C16S11488   6.942   5.171   9.093 -1.0062 -0.4085  1.1679
  111OSM   H16S11489   7.052   5.178   9.081 -1.1222  1.2656  0.9112
  111OSM   H16T11490   6.903   5.245   9.020  2.6716  0.3146 -0.2828
  111OSM   C17S11491   6.908   5.025   9.056  0.0266 -0.2415 -1.4066
  111OSM   H17S11492   6.812   4.993   9.102 -0.6233  1.3990 -1.5386
  111OSM   H17T11493   6.985   4.959   9.100  0.5576  1.0312 -0.3821
  111OSM   C18S11494   6.889   4.999   8.907 -0.1553 -0.3902 -0.0442
  111OSM   H18S11495   6.808   5.066   8.870 -0.8779 -1.2906 -0.1156
  111OSM   H18T11496   6.861   4.896   8.876 -1.6632 -0.1317  0.3910
  111OSM   H18U11497   6.988   5.014   8.859  0.8756 -2.8644  1.1524
  111OSM    C1F11498   5.888   4.810  10.277  0.7733  0.4842  0.8325
  111OSM     OF11499   5.776   4.854  10.260 -0.1852 -0.5133 -0.3045
  111OSM    C2F11500   5.905   4.662  10.274 -0.2576  0.1118  1.0025
  111OSM    H2F11501   5.812   4.621  10.320 -0.4496  0.2125  0.7109
  111OSM    H2G11502   5.998   4.633  10.326  1.5320  0.0866 -1.9999
  111OSM    C3F11503   5.907   4.613  10.122  0.5774 -0.2101  0.5215
  111OSM    H3F11504   5.818   4.662  10.079  0.3532 -0.7307  0.3877
  111OSM    H3G11505   5.905   4.504  10.142  3.3500 -0.0613  2.2695
  111OSM    C4F11506   6.032   4.655  10.040 -0.1934  0.6991 -0.4301
  111OSM    H4F11507   6.126   4.622  10.089  0.1059 -0.5018 -1.7367
  111OSM    H4G11508   6.034   4.766  10.039  0.1921  0.7072 -2.0999
  111OSM    C5F11509   6.022   4.606   9.902 -0.7203 -0.7200  0.0517
  111OSM    H5F11510   5.936   4.658   9.855 -0.9051  1.2308  2.3578
  111OSM    H5G11511   6.007   4.496   9.910  0.8396 -0.8874  1.1638
  111OSM    C6F11512   6.146   4.633   9.822  0.2427  0.3723  0.0319
  111OSM    H6F11513   6.231   4.583   9.874 -1.3487 -1.8232  0.6541
  111OSM    H6G11514   6.177   4.738   9.803  0.8126 -0.1090 -1.9554
  111OSM    C7F11515   6.150   4.567   9.679 -0.2489  0.1985  0.4524
  111OSM    H7F11516   6.085   4.609   9.600 -0.7297 -2.3075 -0.5939
  111OSM    H7G11517   6.106   4.468   9.704  2.4255 -1.3795 -0.5843
  111OSM    C8F11518   6.287   4.542   9.607  0.2372  0.1080 -0.2833
  111OSM    H8F11519   6.282   4.471   9.521 -0.0306 -0.9796  0.6102
  111OSM    H8G11520   6.356   4.489   9.676 -0.4675  0.1097  0.4358
  111OSM    C9F11521   6.349   4.676   9.575  0.1071 -0.3022  0.3441
  111OSM    H9F11522   6.312   4.763   9.631  0.3351 -0.9242  1.4783
  111OSM   C10F11523   6.440   4.713   9.476 -0.0096  0.2483 -0.2318
  111OSM   H10F11524   6.486   4.812   9.475  1.2068 -0.2642 -2.7808
  111OSM   C11F11525   6.513   4.613   9.389 -0.5744  0.0711 -0.5121
  111OSM   H11F11526   6.488   4.508   9.415 -3.6142  0.5163 -1.1892
  111OSM   H11G11527   6.622   4.629   9.399 -0.7080  1.3736 -0.8483
  111OSM   C12F11528   6.464   4.628   9.248  0.0381  0.9206  0.7629
  111OSM   H12F11529   6.353   4.627   9.246  0.0270 -1.1233  0.9259
  111OSM   H12G11530   6.493   4.543   9.183 -0.6642 -0.3422  2.0660
  111OSM   C13F11531   6.524   4.760   9.179  0.0618  0.0125 -0.0214
  111OSM   H13F11532   6.634   4.765   9.180  0.0156  2.1967  2.2934
  111OSM   H13G11533   6.478   4.840   9.241 -3.9802 -1.8483 -0.2267
  111OSM   C14F11534   6.464   4.787   9.042  0.2088 -0.1470 -0.0534
  111OSM   H14F11535   6.355   4.803   9.052  0.4348  0.5658  1.6266
  111OSM   H14G11536   6.502   4.706   8.976 -1.6280 -0.3890 -0.8584
  111OSM   C15F11537   6.519   4.924   8.996  0.2693  0.3793 -0.0631
  111OSM   H15F11538   6.462   4.947   8.903  0.5960 -1.0872 -0.6489
  111OSM   H15G11539   6.628   4.922   8.975  0.2152 -0.3869 -0.3109
  111OSM   C16F11540   6.488   5.037   9.091  0.0747 -0.3580 -0.2595
  111OSM   H16F11541   6.545   5.024   9.185  0.4258  0.0877 -0.4019
  111OSM   H16G11542   6.381   5.024   9.118  0.0777  0.5331  0.2421
  111OSM   C17F11543   6.498   5.181   9.037  0.1882 -0.8764  1.2978
  111OSM   H17F11544   6.598   5.195   8.992  0.7198 -1.0668  2.3911
  111OSM   H17G11545   6.490   5.257   9.118 -1.1739 -1.5519  1.8436
  111OSM   C18F11546   6.384   5.213   8.943  0.3226 -0.4964 -0.0280
  111OSM   H18F11547   6.285   5.187   8.986 -0.7134 -2.2547 -3.1646
  111OSM   H18G11548   6.387   5.151   8.851  1.0762  0.2635 -0.5335
  111OSM   H18H11549   6.384   5.318   8.907  0.0064 -1.3047 -2.5816
  112OSM      N11550   3.723   3.139  11.006 -0.1261  0.6501  0.5502
  112OSM    C1511551   3.751   3.023  11.091  0.2368  0.4314  0.2937
  112OSM   H15A11552   3.708   3.033  11.190  0.9854 -1.6599  0.8660
  112OSM   H15B11553   3.855   2.995  11.101 -0.2548 -2.6518 -1.8708
  112OSM   H15C11554   3.703   2.938  11.046  1.0203  1.2817 -2.3296
  112OSM    C1411555   3.576   3.161  11.001 -0.0400  0.1912  0.2969
  112OSM   H14A11556   3.548   3.202  11.097  0.0021 -0.1996  0.4794
  112OSM   H14B11557   3.510   3.076  10.989 -2.4410  2.1312 -1.4063
  112OSM   H14C11558   3.564   3.232  10.920  2.2878 -0.2497 -0.5125
  112OSM    C1311559   3.779   3.266  11.069  0.1632 -0.1751  0.2132
  112OSM   H13A11560   3.764   3.268  11.176 -0.9866 -0.9533  0.0757
  112OSM   H13B11561   3.719   3.342  11.020  0.6517 -0.3872 -0.7393
  112OSM   H13C11562   3.882   3.279  11.039  0.1933  1.0965  0.7950
  112OSM    C1211563   3.785   3.127  10.865  0.5226 -0.5690  0.2434
  112OSM   H12A11564   3.893   3.132  10.873  0.6783  2.2053 -2.1200
  112OSM   H12B11565   3.775   3.216  10.805 -1.7567  0.0120  1.3608
  112OSM    C1111566   3.745   3.009  10.773  0.1966 -0.5980  0.2333
  112OSM   H11A11567   3.789   3.026  10.672  1.2488  1.3494  0.9676
  112OSM   H11B11568   3.634   3.016  10.769  0.0889  0.0461  2.8038
  112OSM      P11569   3.917   2.818  10.804  0.1386  0.2035 -0.0951
  112OSM    O1311570   4.012   2.873  10.902 -0.1570  0.3714  0.1043
  112OSM    O1411571   3.896   2.674  10.806  0.1803 -0.0534 -0.6224
  112OSM    O1111572   3.955   2.871  10.664  0.2868 -0.2277  0.5463
  112OSM    O1211573   3.782   2.885  10.828  0.5464  0.0163  0.2607
  112OSM    C1S11574   3.953   2.783  10.555  0.2727 -0.5250  0.5368
  112OSM    H1S11575   3.857   2.811  10.505 -0.4487 -0.4139  1.9410
  112OSM    H1T11576   3.950   2.676  10.585 -0.2427 -0.7380 -0.2297
  112OSM     NF11577   4.061   2.717  10.342 -0.6120 -0.6798 -0.0765
  112OSM    HNF11578   4.109   2.631  10.335 -1.4391 -1.3614  1.8385
  112OSM    C2S11579   4.078   2.794  10.461  0.7660 -0.5766 -0.2105
  112OSM    H2S11580   4.095   2.901  10.434 -1.2213  0.4990  2.4040
  112OSM    C3S11581   4.210   2.755  10.542 -0.5898 -0.6308 -0.3911
  112OSM    H3S11582   4.185   2.656  10.584 -2.2607  0.4782  1.4320
  112OSM     O311583   4.242   2.841  10.657 -0.3960  0.6444 -0.0055
  112OSM    HO311584   4.159   2.885  10.679 -0.0178  1.2246  0.2972
  112OSM    C4S11585   4.329   2.738  10.445  0.1189 -0.5147  0.3541
  112OSM    H4S11586   4.359   2.633  10.430  0.5637 -0.4750  0.9513
  112OSM    C5S11587   4.390   2.829  10.363 -1.0335 -0.4509 -0.0961
  112OSM    H5S11588   4.365   2.936  10.370  1.2455  0.1430 -0.2656
  112OSM    C6S11589   4.490   2.774  10.261  0.0916 -0.1720  0.6953
  112OSM    H6S11590   4.577   2.743  10.323  0.0789  0.8450  1.2467
  112OSM    H6T11591   4.546   2.861  10.219  4.0265 -2.1780  1.3463
  112OSM    C7S11592   4.442   2.669  10.163 -0.1588 -0.2532 -0.0108
  112OSM    H7S11593   4.413   2.574  10.211 -0.3123  0.0065  0.4216
  112OSM    H7T11594   4.520   2.642  10.088  0.0547  1.8210 -0.6128
  112OSM    C8S11595   4.329   2.719  10.072 -0.0651 -0.8495 -0.3532
  112OSM    H8S11596   4.360   2.814  10.024 -2.5159 -0.2388 -0.8651
  112OSM    H8T11597   4.249   2.739  10.146 -1.0449  0.2240 -1.6497
  112OSM    C9S11598   4.293   2.612   9.971 -0.0563  0.2878  0.2022
  112OSM    H9S11599   4.195   2.642   9.928  1.5007  1.3645 -2.9344
  112OSM    H9T11600   4.272   2.509  10.008  0.1252 -0.4454 -1.6173
  112OSM   C10S11601   4.378   2.603   9.845 -0.0260  0.8627 -0.0586
  112OSM   H10S11602   4.475   2.571   9.888 -0.5371  0.4708  0.8539
  112OSM   H10T11603   4.388   2.702   9.795  2.2079  0.0249 -1.3908
  112OSM   C11S11604   4.337   2.512   9.733  0.0526 -0.7224 -0.2361
  112OSM   H11S11605   4.228   2.525   9.715  0.2173  0.0593 -0.7422
  112OSM   H11T11606   4.357   2.411   9.774  2.4844 -1.2035 -2.3193
  112OSM   C12S11607   4.422   2.529   9.609  0.1963 -0.7722  0.2747
  112OSM   H12S11608   4.409   2.433   9.554 -1.4771  0.3241 -1.3642
  112OSM   H12T11609   4.528   2.553   9.630  0.2482  0.4494 -1.2544
  112OSM   C13S11610   4.358   2.615   9.501 -0.4975 -0.2653 -0.2492
  112OSM   H13S11611   4.352   2.720   9.537 -2.0052 -0.4882  0.1915
  112OSM   H13T11612   4.253   2.581   9.497  0.0394 -1.9233 -1.1380
  112OSM   C14S11613   4.454   2.606   9.374  0.0149  0.1527  0.3857
  112OSM   H14S11614   4.479   2.501   9.349 -0.4126  0.0067  0.5603
  112OSM   H14T11615   4.553   2.656   9.382  0.3685 -0.7495  2.1802
  112OSM   C15S11616   4.384   2.662   9.250 -0.3964 -0.2187  0.6644
  112OSM   H15S11617   4.341   2.764   9.260  2.3057  1.2347 -1.2854
  112OSM   H15T11618   4.298   2.595   9.230 -0.4954 -0.2893  1.3192
  112OSM   C16S11619   4.472   2.645   9.123  0.5323 -0.0905 -0.8013
  112OSM   H16S11620   4.398   2.647   9.040  0.6610  0.9769 -0.9069
  112OSM   H16T11621   4.529   2.550   9.133  0.9732  0.0644 -1.7110
  112OSM   C17S11622   4.558   2.775   9.101 -0.3785  0.1330 -0.3139
  112OSM   H17S11623   4.614   2.787   9.196 -2.9848  2.3804  1.0895
  112OSM   H17T11624   4.500   2.869   9.087 -0.5430 -0.2077 -2.2684
  112OSM   C18S11625   4.656   2.755   8.985 -0.1787 -0.5486  0.2605
  112OSM   H18S11626   4.730   2.677   9.013  0.2028 -0.2186  0.1730
  112OSM   H18T11627   4.720   2.841   8.958  1.9190 -1.9551  0.5273
  112OSM   H18U11628   4.600   2.714   8.898  0.0842 -0.2200 -0.0682
  112OSM    C1F11629   3.970   2.740  10.252  1.0050  0.7103  0.6462
  112OSM     OF11630   3.922   2.851  10.236  0.0511  0.1684 -0.1423
  112OSM    C2F11631   3.907   2.624  10.186 -0.0447 -0.0790  1.2872
  112OSM    H2F11632   3.821   2.586  10.246 -0.9508  0.5565  0.4199
  112OSM    H2G11633   3.987   2.548  10.174 -0.1574 -0.1952  1.2752
  112OSM    C3F11634   3.847   2.670  10.047 -0.3083  0.0754 -0.5652
  112OSM    H3F11635   3.935   2.697   9.986  0.1434 -0.0731  0.0108
  112OSM    H3G11636   3.768   2.746  10.062 -0.3448 -0.2207  0.8987
  112OSM    C4F11637   3.796   2.539   9.986  0.8396 -0.8845 -0.6498
  112OSM    H4F11638   3.724   2.499  10.062  1.5101 -1.2963 -0.2178
  112OSM    H4G11639   3.868   2.454   9.988  2.1003  0.1308  1.9767
  112OSM    C5F11640   3.722   2.568   9.853  0.3100  0.0220  0.1507
  112OSM    H5F11641   3.672   2.668   9.848 -1.2416 -0.7666 -2.8331
  112OSM    H5G11642   3.658   2.484   9.821 -0.6977  0.9957 -0.4901
  112OSM    C6F11643   3.824   2.582   9.737  0.8508  0.2029 -0.2648
  112OSM    H6F11644   3.883   2.488   9.736  0.6821  0.0910 -0.9215
  112OSM    H6G11645   3.904   2.654   9.764  1.5646  0.2611 -2.2940
  112OSM    C7F11646   3.760   2.606   9.602  0.2798 -0.4711 -0.0742
  112OSM    H7F11647   3.707   2.704   9.606  1.0066  0.0068 -1.6578
  112OSM    H7G11648   3.694   2.520   9.578  0.1880 -0.3817 -0.1446
  112OSM    C8F11649   3.864   2.624   9.491  0.0855 -0.2824 -0.0224
  112OSM    H8F11650   3.930   2.536   9.501  0.6166  0.2526  1.7050
  112OSM    H8G11651   3.933   2.709   9.514 -0.1828  0.1992 -0.9580
  112OSM    C9F11652   3.815   2.645   9.357 -0.1286  0.2837 -0.1298
  112OSM    H9F11653   3.790   2.750   9.336 -2.4581 -0.1715 -0.0127
  112OSM   C10F11654   3.804   2.553   9.256 -0.2520 -0.1722  0.5356
  112OSM   H10F11655   3.779   2.593   9.157 -2.9590 -1.4165  0.6485
  112OSM   C11F11656   3.844   2.404   9.262  0.2715  0.1017 -0.6442
  112OSM   H11F11657   3.765   2.338   9.218  0.0073  0.1485 -0.2434
  112OSM   H11G11658   3.849   2.377   9.370 -0.2884 -1.1752 -0.9092
  112OSM   C12F11659   3.983   2.370   9.207  0.1646  0.3607  0.0294
  112OSM   H12F11660   3.980   2.259   9.206 -1.8968  0.3894 -1.0980
  112OSM   H12G11661   4.064   2.404   9.275 -0.5903 -0.2276  1.2537
  112OSM   C13F11662   4.015   2.420   9.069  0.3787  0.4702  0.0592
  112OSM   H13F11663   4.009   2.529   9.048 -1.1308  0.3012 -0.4733
  112OSM   H13G11664   3.939   2.370   9.005  1.0063 -3.0749  1.8505
  112OSM   C14F11665   4.152   2.365   9.017  0.0538  0.2782 -0.7515
  112OSM   H14F11666   4.166   2.258   9.046 -0.5607  0.1668 -0.8646
  112OSM   H14G11667   4.227   2.419   9.078  0.6996  0.4280 -1.6485
  112OSM   C15F11668   4.165   2.385   8.865  0.4424 -0.2575 -0.4796
  112OSM   H15F11669   4.112   2.477   8.835 -0.3132 -0.7083 -0.5486
  112OSM   H15G11670   4.113   2.304   8.810  0.9755 -0.3624 -0.8432
  112OSM   C16F11671   4.307   2.407   8.833 -0.3986  0.1833  0.4525
  112OSM   H16F11672   4.363   2.312   8.847  0.4016  0.3588 -1.2760
  112OSM   H16G11673   4.347   2.479   8.907  0.7278  1.3087 -1.1875
  112OSM   C17F11674   4.338   2.465   8.694 -0.8921 -0.8112  0.4612
  112OSM   H17F11675   4.300   2.569   8.685  1.4353  0.0376 -0.3444
  112OSM   H17G11676   4.296   2.410   8.607 -0.7306  0.4944 -0.4783
  112OSM   C18F11677   4.485   2.481   8.667  0.0361  0.1100 -0.1319
  112OSM   H18F11678   4.535   2.383   8.650 -0.2292  0.1370 -1.0910
  112OSM   H18G11679   4.534   2.522   8.758 -0.5835 -0.9722  0.7312
  112OSM   H18H11680   4.515   2.551   8.586  0.0812 -0.4535 -0.6102
  113OSM      N11681   4.065   1.955  11.227  0.6001  0.5378  0.6258
  113OSM    C1511682   4.080   2.065  11.326  0.0966  0.3037  0.0520
  113OSM   H15A11683   4.052   2.029  11.424  2.2750 -0.8427  0.3126
  113OSM   H15B11684   4.019   2.151  11.303 -1.4333 -0.4175  1.1765
  113OSM   H15C11685   4.182   2.098  11.332 -0.1158  1.2716 -1.1894
  113OSM    C1411686   4.114   1.834  11.295  0.1831  0.3533 -0.0818
  113OSM   H14A11687   4.221   1.824  11.289  0.1492  0.2578 -0.6990
  113OSM   H14B11688   4.067   1.746  11.252  2.3024 -0.4084 -0.9522
  113OSM   H14C11689   4.083   1.834  11.398  0.3199 -0.7213 -0.0258
  113OSM    C1311690   3.918   1.939  11.203  0.0291 -0.5899 -0.1007
  113OSM   H13A11691   3.858   1.930  11.293  1.1323  0.6988  0.8154
  113OSM   H13B11692   3.895   1.864  11.129  1.0524 -1.7246  0.6969
  113OSM   H13C11693   3.884   2.033  11.161  1.4969 -0.3877 -0.9192
  113OSM    C1211694   4.148   1.994  11.104  0.3334  1.4066 -0.0624
  113OSM   H12A11695   4.252   1.985  11.133 -0.2416 -1.4488  1.4266
  113OSM   H12B11696   4.138   2.098  11.075 -0.8271  0.9602 -1.3378
  113OSM    C1111697   4.132   1.913  10.972  0.7212 -0.2300 -0.6886
  113OSM   H11A11698   4.202   1.958  10.898  0.7478  0.4121 -0.2822
  113OSM   H11B11699   4.025   1.919  10.940  1.0568  1.3199 -1.6341
  113OSM      P11700   4.116   1.678  10.888  0.0986 -0.0480 -0.0864
  113OSM    O1311701   4.197   1.556  10.884 -0.4209  0.4639  0.2494
  113OSM    O1411702   3.972   1.648  10.918 -0.0373 -0.1002 -0.1035
  113OSM    O1111703   4.120   1.752  10.751 -0.3974 -0.1090  0.1401
  113OSM    O1211704   4.173   1.780  10.989 -0.3536 -0.2719  0.0439
  113OSM    C1S11705   4.195   1.720  10.641  0.1963 -0.1024 -0.1360
  113OSM    H1S11706   4.212   1.612  10.622 -0.9900 -0.2494 -0.4220
  113OSM    H1T11707   4.297   1.765  10.637 -0.2073  0.8233 -0.2929
  113OSM     NF11708   4.195   1.754  10.394  0.3040  0.4836 -0.3777
  113OSM    HNF11709   4.274   1.812  10.377  1.1351 -0.2290  0.8574
  113OSM    C2S11710   4.125   1.787  10.516 -0.2239 -0.4525 -0.2881
  113OSM    H2S11711   4.020   1.753  10.525 -0.9280  1.4497 -0.8443
  113OSM    C3S11712   4.118   1.941  10.543  0.6898 -0.2866 -0.4691
  113OSM    H3S11713   4.224   1.973  10.559  0.3646  0.8008 -0.3736
  113OSM     O311714   4.053   1.988  10.662 -0.3957  0.3745 -0.0405
  113OSM    HO311715   4.061   1.913  10.722 -1.7179  0.8995  0.8399
  113OSM    C4S11716   4.060   2.012  10.420  0.0202 -0.5902  0.0189
  113OSM    H4S11717   4.130   2.042  10.340 -0.5322 -2.3750 -1.2231
  113OSM    C5S11718   3.927   2.038  10.402  0.5269 -0.2993 -0.3613
  113OSM    H5S11719   3.854   1.997  10.473  2.7308 -0.9764  1.6002
  113OSM    C6S11720   3.862   2.098  10.270  0.0732  0.2067 -0.1391
  113OSM    H6S11721   3.822   2.200  10.291  1.7061  1.1929 -1.4680
  113OSM    H6T11722   3.770   2.045  10.240  0.7511 -1.8056  1.1265
  113OSM    C7S11723   3.965   2.087  10.155  0.0529  0.1138 -0.1960
  113OSM    H7S11724   3.980   1.978  10.162  0.8580  0.0611 -2.0985
  113OSM    H7T11725   4.062   2.140  10.167  1.1427 -1.7787 -0.3321
  113OSM    C8S11726   3.903   2.106  10.016  0.0669 -0.0217  0.5076
  113OSM    H8S11727   3.836   2.195  10.013  0.9340  0.7507  2.3240
  113OSM    H8T11728   3.829   2.029   9.987  1.2892 -0.4373 -1.8404
  113OSM    C9S11729   4.010   2.138   9.911 -0.1587 -0.2025  0.3219
  113OSM    H9S11730   4.059   2.042   9.886 -0.9007 -0.3450 -0.6687
  113OSM    H9T11731   4.077   2.213   9.957 -2.5071  2.3112 -0.0704
  113OSM   C10S11732   3.936   2.196   9.787 -0.0030 -0.0816 -0.8412
  113OSM   H10S11733   3.871   2.280   9.822 -1.8050 -1.0701 -1.6468
  113OSM   H10T11734   3.867   2.118   9.748 -0.2280  0.9287 -2.5592
  113OSM   C11S11735   4.036   2.244   9.677 -0.6841  0.6729  0.9631
  113OSM   H11S11736   4.099   2.323   9.723 -1.2532  2.4814 -1.1968
  113OSM   H11T11737   3.988   2.294   9.591  0.8268 -2.9374 -2.2586
  113OSM   C12S11738   4.110   2.127   9.608 -0.1591  0.4763 -0.3744
  113OSM   H12S11739   4.030   2.057   9.574 -1.6489  1.8657  0.1448
  113OSM   H12T11740   4.170   2.066   9.679  0.4262  1.0795 -0.3507
  113OSM   C13S11741   4.202   2.184   9.495  0.7246  0.2359  0.1669
  113OSM   H13S11742   4.261   2.271   9.530  0.8835 -0.4518  1.7150
  113OSM   H13T11743   4.142   2.222   9.410  1.2488 -0.1591 -0.3901
  113OSM   C14S11744   4.294   2.082   9.431  0.0720  0.5061 -0.0420
  113OSM   H14S11745   4.241   2.011   9.363  1.3566  1.3110 -1.9785
  113OSM   H14T11746   4.351   2.026   9.508 -1.0595  1.7550  1.7523
  113OSM   C15S11747   4.387   2.161   9.333 -0.2447  0.2391 -0.5301
  113OSM   H15S11748   4.438   2.234   9.400 -0.6977 -0.8024  1.0205
  113OSM   H15T11749   4.322   2.212   9.259 -2.3999 -0.5483  0.7355
  113OSM   C16S11750   4.495   2.078   9.256  0.8465  0.0572  0.2400
  113OSM   H16S11751   4.571   2.052   9.333  0.2616  2.7039  1.8329
  113OSM   H16T11752   4.542   2.149   9.185 -0.2622 -0.5699 -1.1754
  113OSM   C17S11753   4.443   1.946   9.188  0.4477 -0.6301 -0.1170
  113OSM   H17S11754   4.411   1.874   9.266 -0.7894  0.0706  0.0438
  113OSM   H17T11755   4.531   1.907   9.133  2.5754  1.0749  1.8677
  113OSM   C18S11756   4.332   1.974   9.082 -0.3536  0.1926 -0.1862
  113OSM   H18S11757   4.336   1.899   9.000 -0.7257 -1.0371  0.8860
  113OSM   H18T11758   4.338   2.076   9.038 -0.6327  0.4749  0.4124
  113OSM   H18U11759   4.241   1.968   9.145 -0.0558 -0.6866  0.1706
  113OSM    C1F11760   4.164   1.645  10.323 -0.6713 -0.0407 -0.0146
  113OSM     OF11761   4.075   1.574  10.359  0.3902 -0.6278 -0.0642
  113OSM    C2F11762   4.244   1.619  10.197  0.3169  0.3531  0.1488
  113OSM    H2F11763   4.324   1.696  10.194  0.0910  0.5985  0.3774
  113OSM    H2G11764   4.174   1.624  10.110  1.0399  1.1417 -0.4091
  113OSM    C3F11765   4.312   1.482  10.197 -0.8709  0.2378 -0.3187
  113OSM    H3F11766   4.240   1.397  10.204 -0.1597 -0.2661  1.7453
  113OSM    H3G11767   4.392   1.478  10.274 -2.2272 -0.1295  1.1297
  113OSM    C4F11768   4.393   1.459  10.069 -0.6887 -0.1471 -0.5131
  113OSM    H4F11769   4.439   1.358  10.073  1.7277  0.8304 -1.4831
  113OSM    H4G11770   4.484   1.521  10.054 -0.9805  0.1642 -1.0275
  113OSM    C5F11771   4.323   1.477   9.934  0.3926  0.3142 -0.0245
  113OSM    H5F11772   4.310   1.584   9.907 -2.4113  0.0678  0.0100
  113OSM    H5G11773   4.223   1.432   9.952 -0.1965  2.0385  1.2474
  113OSM    C6F11774   4.394   1.387   9.828 -0.1134 -0.2036 -1.0456
  113OSM    H6F11775   4.403   1.286   9.874 -0.5641  1.1851  2.3765
  113OSM    H6G11776   4.497   1.421   9.805 -0.2649 -0.2555 -1.8433
  113OSM    C7F11777   4.316   1.373   9.698  0.3702  0.7348 -0.3598
  113OSM    H7F11778   4.338   1.465   9.640 -0.2729  3.2486  3.0678
  113OSM    H7G11779   4.208   1.378   9.726 -0.0080 -4.0220 -0.0461
  113OSM    C8F11780   4.344   1.238   9.620  0.0159 -0.6652 -0.3321
  113OSM    H8F11781   4.290   1.243   9.523 -1.0449 -1.6554  0.1776
  113OSM    H8G11782   4.309   1.149   9.676 -0.6489  0.8230  1.7770
  113OSM    C9F11783   4.489   1.205   9.588 -0.2366 -0.2374 -0.0697
  113OSM    H9F11784   4.547   1.187   9.680 -0.9241  1.4241  0.7148
  113OSM   C10F11785   4.557   1.219   9.469  0.7400  0.2845  0.1083
  113OSM   H10F11786   4.664   1.192   9.470  0.7266  0.2308  0.3180
  113OSM   C11F11787   4.495   1.258   9.333 -0.1784  0.3320 -0.3995
  113OSM   H11F11788   4.392   1.219   9.316 -0.2645 -0.2840  1.3053
  113OSM   H11G11789   4.552   1.217   9.248 -2.2602 -0.4259 -1.5185
  113OSM   C12F11790   4.492   1.408   9.319  0.0413  0.0836  0.6206
  113OSM   H12F11791   4.597   1.442   9.334  0.8117 -0.3461 -2.8299
  113OSM   H12G11792   4.421   1.458   9.387 -0.3635 -2.2676  2.0430
  113OSM   C13F11793   4.467   1.449   9.177  0.1309 -0.4947  0.3573
  113OSM   H13F11794   4.524   1.384   9.108 -0.6710 -3.0776  1.9650
  113OSM   H13G11795   4.516   1.549   9.170  0.9949 -0.9148  0.2039
  113OSM   C14F11796   4.318   1.450   9.131  0.1842  0.7053  0.0034
  113OSM   H14F11797   4.253   1.526   9.180  0.8894  0.0531  2.0646
  113OSM   H14G11798   4.280   1.355   9.176 -0.1707  0.3692 -0.9892
  113OSM   C15F11799   4.297   1.428   8.979  0.6662 -0.0765  0.2302
  113OSM   H15F11800   4.200   1.379   8.961 -0.0823  1.6723 -0.6938
  113OSM   H15G11801   4.384   1.365   8.950  1.6601  1.0090  0.7566
  113OSM   C16F11802   4.320   1.558   8.907  0.3291 -0.0150 -0.4618
  113OSM   H16F11803   4.423   1.592   8.932  0.4898 -0.5014 -0.4566
  113OSM   H16G11804   4.245   1.633   8.942  2.4143  1.4503  1.1103
  113OSM   C17F11805   4.314   1.556   8.752  0.0814  0.5191 -0.3151
  113OSM   H17F11806   4.218   1.514   8.713 -0.1932  0.9061 -0.0639
  113OSM   H17G11807   4.395   1.484   8.728 -0.2909 -0.5928  1.5494
  113OSM   C18F11808   4.332   1.693   8.689 -0.2887 -0.3769  0.0283
  113OSM   H18F11809   4.312   1.692   8.579 -1.3500  0.6889  0.1936
  113OSM   H18G11810   4.437   1.726   8.702 -0.3850  0.3008 -0.8565
  113OSM   H18H11811   4.257   1.769   8.719 -0.1634  1.5176 -3.7658
  114OSM      N11812   0.114   0.550  11.583  0.7320  0.0427  0.1809
  114OSM    C1511813   0.146   0.694  11.598 -0.4463 -0.5673  0.3206
  114OSM   H15A11814   0.251   0.710  11.617 -0.0735 -0.2682 -1.7127
  114OSM   H15B11815   0.102   0.734  11.687  1.7605  2.1535  0.3059
  114OSM   H15C11816   0.137   0.755  11.510 -0.0466  1.0600  1.3693
  114OSM    C1411817   0.213   0.490  11.483 -0.2402 -0.0219 -0.2351
  114OSM   H14A11818   0.181   0.388  11.470 -0.8872 -0.3917  3.2576
  114OSM   H14B11819   0.312   0.475  11.522 -0.5223 -0.6885  0.2353
  114OSM   H14C11820   0.210   0.546  11.391 -0.0837 -0.3021 -0.4119
  114OSM    C1311821   0.139   0.482  11.706 -0.5844  0.2804 -0.6821
  114OSM   H13A11822   0.135   0.375  11.694  1.3181  0.0891  0.1240
  114OSM   H13B11823   0.078   0.516  11.788  1.4976  0.4300  0.8870
  114OSM   H13C11824   0.243   0.500  11.730 -0.2602  1.1397 -2.5602
  114OSM    C1211825  -0.029   0.533  11.541 -0.8814  0.4092  0.1029
  114OSM   H12A11826  -0.094   0.585  11.609 -0.4303 -0.4862  1.2354
  114OSM   H12B11827  -0.049   0.428  11.555 -1.3795  0.0050 -2.9068
  114OSM    C1111828  -0.072   0.574  11.398 -0.2964  0.4288 -0.5571
  114OSM   H11A11829  -0.181   0.563  11.379 -0.4636  0.6138  0.2505
  114OSM   H11B11830  -0.021   0.496  11.336 -0.0511  0.8726 -0.9207
  114OSM      P11831  -0.101   0.834  11.365 -0.1990 -0.0415  0.5375
  114OSM    O1311832  -0.219   0.813  11.451 -0.0928 -0.1923  0.1191
  114OSM    O1411833   0.001   0.933  11.400 -0.6206  0.3362  0.4914
  114OSM    O1111834  -0.143   0.859  11.218 -0.9419  0.3829  0.0112
  114OSM    O1211835  -0.023   0.704  11.354 -0.3420  0.1936 -0.4117
  114OSM    C1S11836  -0.114   0.763  11.109  0.3529 -0.7420 -0.0901
  114OSM    H1S11837  -0.154   0.662  11.130 -0.0398 -0.5754 -0.0289
  114OSM    H1T11838  -0.004   0.751  11.101  0.4604 -1.0003  1.4430
  114OSM     NF11839  -0.187   0.718  10.882  0.2462  0.3163  0.2032
  114OSM    HNF11840  -0.119   0.722  10.809 -1.8163  0.9303 -1.7915
  114OSM    C2S11841  -0.184   0.827  10.982 -0.0041  0.1324  0.0743
  114OSM    H2S11842  -0.290   0.842  11.009  0.0744 -1.3783  1.3659
  114OSM    C3S11843  -0.122   0.961  10.943 -0.4761  0.6098 -0.0102
  114OSM    H3S11844  -0.018   0.950  10.906 -0.4319  1.4957 -0.1852
  114OSM     O311845  -0.101   1.046  11.050  0.2304 -0.7656 -0.5819
  114OSM    HO311846  -0.118   0.999  11.133  0.6593  0.0606 -0.0063
  114OSM    C4S11847  -0.197   1.030  10.829 -0.0312  0.5873  0.1137
  114OSM    H4S11848  -0.162   0.994  10.731  0.3683  1.9157 -0.2483
  114OSM    C5S11849  -0.297   1.118  10.842  0.6106  0.7144 -0.0261
  114OSM    H5S11850  -0.348   1.125  10.939 -0.1505  0.1461 -0.3735
  114OSM    C6S11851  -0.381   1.185  10.731 -0.2235 -0.0438 -0.2003
  114OSM    H6S11852  -0.386   1.294  10.750 -0.1205 -0.3536  1.8519
  114OSM    H6T11853  -0.480   1.136  10.737 -0.1032 -0.2952 -0.2402
  114OSM    C7S11854  -0.321   1.168  10.593  0.1989  0.1949 -0.5619
  114OSM    H7S11855  -0.328   1.059  10.575 -3.0791 -0.0930  1.5519
  114OSM    H7T11856  -0.213   1.193  10.597  0.3472 -0.3494 -1.1562
  114OSM    C8S11857  -0.389   1.260  10.485  0.0136 -0.1300 -0.1166
  114OSM    H8S11858  -0.420   1.357  10.529  0.2243 -0.3579  0.5472
  114OSM    H8T11859  -0.484   1.207  10.464 -0.4227 -0.2664  1.9897
  114OSM    C9S11860  -0.311   1.260  10.355 -0.3216 -0.3223 -0.6002
  114OSM    H9S11861  -0.272   1.158  10.332  1.7275  0.0903  0.7793
  114OSM    H9T11862  -0.218   1.321  10.352 -0.5976  0.1223 -0.2285
  114OSM   C10S11863  -0.391   1.314  10.247 -0.2211 -0.3047  0.6863
  114OSM   H10S11864  -0.419   1.421  10.259  1.4694  0.0116  2.3280
  114OSM   H10T11865  -0.478   1.246  10.235  0.9042 -1.5549 -0.6492
  114OSM   C11S11866  -0.325   1.303  10.110 -0.0037 -0.3349  0.3727
  114OSM   H11S11867  -0.302   1.200  10.078 -0.7167  0.0561 -1.5188
  114OSM   H11T11868  -0.228   1.354  10.128 -0.6471  0.6168  1.3225
  114OSM   C12S11869  -0.404   1.379  10.002  0.1261  1.0338 -0.6516
  114OSM   H12S11870  -0.430   1.485  10.018  0.1170  1.6329 -3.8460
  114OSM   H12T11871  -0.500   1.322  10.001  0.5119  0.2478  1.4480
  114OSM   C13S11872  -0.348   1.380   9.858  0.2997 -0.1128 -0.1498
  114OSM   H13S11873  -0.244   1.420   9.857  0.3630 -0.2480  0.6220
  114OSM   H13T11874  -0.407   1.446   9.791 -0.7124 -0.4925  0.3518
  114OSM   C14S11875  -0.349   1.238   9.783  0.3556  0.7478  0.6929
  114OSM   H14S11876  -0.289   1.167   9.845  0.2374  0.1132  0.0954
  114OSM   H14T11877  -0.287   1.248   9.691  1.0851 -0.1714  1.0632
  114OSM   C15S11878  -0.483   1.182   9.728 -0.3326 -0.6933  0.4164
  114OSM   H15S11879  -0.537   1.264   9.677  2.0491 -0.1957 -1.5097
  114OSM   H15T11880  -0.545   1.153   9.815 -1.1077 -1.1311 -0.2659
  114OSM   C16S11881  -0.478   1.058   9.634 -0.0592  0.2440  0.6757
  114OSM   H16S11882  -0.570   1.005   9.604  0.7975 -2.3110  2.1992
  114OSM   H16T11883  -0.431   0.972   9.687  0.8442 -0.9511 -1.9128
  114OSM   C17S11884  -0.408   1.093   9.497 -0.9573  0.3438 -0.2095
  114OSM   H17S11885  -0.384   1.005   9.433 -0.8705  0.9716 -1.0572
  114OSM   H17T11886  -0.306   1.136   9.507 -1.5281  1.7445 -0.1751
  114OSM   C18S11887  -0.488   1.191   9.420 -0.2910 -0.1423 -0.3422
  114OSM   H18S11888  -0.491   1.290   9.470  3.3422  0.4596 -1.0809
  114OSM   H18T11889  -0.595   1.159   9.422 -1.1377  2.2494  3.1164
  114OSM   H18U11890  -0.469   1.209   9.312  2.4446 -0.1330  0.0909
  114OSM    C1F11891  -0.268   0.615  10.891  0.0084 -0.2364  0.2904
  114OSM     OF11892  -0.351   0.611  10.984 -0.1371 -0.1925  0.0652
  114OSM    C2F11893  -0.257   0.508  10.782 -0.0502  0.2867 -0.0209
  114OSM    H2F11894  -0.194   0.435  10.837 -1.0556 -0.1276  0.6120
  114OSM    H2G11895  -0.200   0.552  10.697  1.3710  1.3644  1.4103
  114OSM    C3F11896  -0.388   0.440  10.740  0.9819 -0.0772  0.0082
  114OSM    H3F11897  -0.447   0.410  10.828  0.5659  0.6856  0.0031
  114OSM    H3G11898  -0.357   0.351  10.682  0.9645  0.8328 -1.4670
  114OSM    C4F11899  -0.477   0.524  10.644  0.1326 -0.1548  0.3715
  114OSM    H4F11900  -0.535   0.595  10.706  1.8054  1.5530  0.0659
  114OSM    H4G11901  -0.542   0.445  10.601  0.5273 -3.3325  4.9057
  114OSM    C5F11902  -0.400   0.595  10.530 -0.1255 -0.5065 -0.7787
  114OSM    H5F11903  -0.339   0.517  10.479  0.6708 -1.6128  1.7007
  114OSM    H5G11904  -0.327   0.671  10.567 -2.0236  0.3042  1.5078
  114OSM    C6F11905  -0.494   0.670  10.434  0.1985  0.3536 -0.5626
  114OSM    H6F11906  -0.553   0.744  10.493  1.2432 -0.4764  1.6335
  114OSM    H6G11907  -0.565   0.600  10.385 -1.2268 -0.3873  2.2866
  114OSM    C7F11908  -0.424   0.754  10.323  0.8373  0.7506 -0.4105
  114OSM    H7F11909  -0.358   0.687  10.264  0.9244  2.3389 -2.2368
  114OSM    H7G11910  -0.362   0.831  10.373 -1.3749  1.5623  1.2263
  114OSM    C8F11911  -0.528   0.822  10.232 -0.4819  0.1256  0.4872
  114OSM    H8F11912  -0.586   0.886  10.302  1.1475  1.3346  0.7845
  114OSM    H8G11913  -0.594   0.744  10.189 -1.5136  1.5014 -0.5011
  114OSM    C9F11914  -0.463   0.900  10.124  0.4959 -0.1913 -0.1226
  114OSM    H9F11915  -0.398   0.983  10.154  0.0050  0.5792 -1.1340
  114OSM   C10F11916  -0.486   0.886   9.997  0.9405  0.9291  0.9914
  114OSM   H10F11917  -0.421   0.944   9.930  0.7665  0.0167  0.0067
  114OSM   C11F11918  -0.569   0.778   9.933 -0.7135 -0.4894 -0.2549
  114OSM   H11F11919  -0.585   0.799   9.825  0.1051 -1.4899 -0.5896
  114OSM   H11G11920  -0.662   0.779   9.994  1.1996 -0.4430  2.9020
  114OSM   C12F11921  -0.501   0.640   9.950  0.1983 -0.8626  0.5129
  114OSM   H12F11922  -0.492   0.621  10.059 -0.3496  0.0022  0.7155
  114OSM   H12G11923  -0.396   0.639   9.914  0.4640 -0.4487  1.2644
  114OSM   C13F11924  -0.581   0.519   9.891  0.0651 -0.6173 -0.3869
  114OSM   H13F11925  -0.683   0.497   9.930  0.2791  0.9998  1.1596
  114OSM   H13G11926  -0.517   0.428   9.900  1.4639  0.3862  0.0865
  114OSM   C14F11927  -0.599   0.534   9.737 -0.1364  0.6365  0.9783
  114OSM   H14F11928  -0.506   0.583   9.699 -0.2030 -1.5688 -2.5473
  114OSM   H14G11929  -0.679   0.608   9.714 -0.3430  0.2150  0.3076
  114OSM   C15F11930  -0.618   0.396   9.670 -0.1637 -0.4000 -0.3269
  114OSM   H15F11931  -0.666   0.339   9.752  2.2263 -3.3848 -0.8191
  114OSM   H15G11932  -0.523   0.342   9.649 -0.4486 -1.7002  1.4836
  114OSM   C16F11933  -0.713   0.393   9.550 -0.0659  0.4167  0.1815
  114OSM   H16F11934  -0.788   0.476   9.551 -0.2771  0.2247  1.0424
  114OSM   H16G11935  -0.756   0.291   9.550 -0.4365  0.5658  0.8165
  114OSM   C17F11936  -0.633   0.392   9.416 -0.1667  0.5815  0.4585
  114OSM   H17F11937  -0.694   0.387   9.324  0.5222 -0.3195  0.0406
  114OSM   H17G11938  -0.576   0.297   9.422  1.1298  1.3717  1.0741
  114OSM   C18F11939  -0.533   0.505   9.392  0.1252  0.1454  0.0281
  114OSM   H18F11940  -0.508   0.513   9.284  1.5935  0.3030  0.3609
  114OSM   H18G11941  -0.439   0.476   9.443 -0.0797 -1.4255 -0.4369
  114OSM   H18H11942  -0.561   0.605   9.433  1.7262  0.5239  0.2776
  115OSM      N11943   1.206   4.121   6.267  0.7486 -0.1963 -0.2857
  115OSM    C1511944   1.075   4.198   6.300  0.1983  0.1380 -0.3956
  115OSM   H15A11945   1.022   4.139   6.373  1.0854  0.4924  0.5559
  115OSM   H15B11946   1.022   4.214   6.207  1.2793 -0.6096 -1.1611
  115OSM   H15C11947   1.096   4.299   6.332 -0.1223 -0.2732  1.2023
  115OSM    C1411948   1.296   4.129   6.377  0.8195  0.1444 -0.0411
  115OSM   H14A11949   1.329   4.231   6.380  0.5610  0.3009 -1.6893
  115OSM   H14B11950   1.378   4.061   6.358  0.4037 -0.3171 -0.2256
  115OSM   H14C11951   1.251   4.089   6.467  2.6460 -0.7030  0.5500
  115OSM    C1311952   1.161   3.985   6.233 -0.0533  0.3196 -0.3664
  115OSM   H13A11953   1.119   3.936   6.320 -0.4003  2.1769  0.5500
  115OSM   H13B11954   1.247   3.927   6.205 -0.5432 -0.7456  0.2576
  115OSM   H13C11955   1.091   3.984   6.151  1.4258 -0.4958 -1.6704
  115OSM    C1211956   1.282   4.178   6.150 -0.3374 -0.5529 -0.5802
  115OSM   H12A11957   1.211   4.228   6.086 -1.2344 -2.0954 -0.8327
  115OSM   H12B11958   1.323   4.087   6.108  0.3263 -0.4357 -0.2049
  115OSM    C1111959   1.400   4.285   6.173  0.3634  0.5078 -0.2553
  115OSM   H11A11960   1.450   4.310   6.077 -0.1863 -0.8396 -0.9150
  115OSM   H11B11961   1.481   4.229   6.224 -0.4376 -2.1529 -1.7037
  115OSM      P11962   1.285   4.522   6.189 -0.2501  0.2566  0.1913
  115OSM    O1311963   1.376   4.577   6.082  0.1503  0.1200  0.0411
  115OSM    O1411964   1.144   4.505   6.154  0.2380  0.3047 -0.1074
  115OSM    O1111965   1.295   4.614   6.312  0.8403 -0.7645  0.5227
  115OSM    O1211966   1.353   4.393   6.252  0.3815  0.6653  0.1746
  115OSM    C1S11967   1.393   4.594   6.415  0.2320 -0.4500  0.1933
  115OSM    H1S11968   1.464   4.674   6.387 -1.3007  0.5589 -0.9841
  115OSM    H1T11969   1.449   4.498   6.403 -1.0860 -1.0228 -1.9057
  115OSM     NF11970   1.448   4.587   6.649  0.1730  0.2677  0.5698
  115OSM    HNF11971   1.476   4.498   6.684 -1.3159  0.8100  3.3807
  115OSM    C2S11972   1.334   4.591   6.561  0.3843 -0.2576 -0.4676
  115OSM    H2S11973   1.288   4.689   6.584  0.4793 -0.2819 -0.1705
  115OSM    C3S11974   1.237   4.466   6.582 -0.4203  0.3338  0.8010
  115OSM    H3S11975   1.288   4.370   6.559  0.8035  1.3090 -0.7839
  115OSM     O311976   1.128   4.464   6.491 -0.4794  0.1426 -0.2073
  115OSM    HO311977   1.151   4.544   6.444  0.9840 -0.0402  0.1610
  115OSM    C4S11978   1.184   4.480   6.717 -0.0174 -0.2005  0.2247
  115OSM    H4S11979   1.138   4.578   6.734 -5.3540 -2.1670 -1.0806
  115OSM    C5S11980   1.196   4.382   6.810 -0.2690 -0.2133  0.2473
  115OSM    H5S11981   1.242   4.286   6.782 -0.0899  0.0149 -0.2573
  115OSM    C6S11982   1.145   4.397   6.951 -0.4805 -0.7850  0.6247
  115OSM    H6S11983   1.233   4.417   7.017  0.1338  0.5520 -0.5417
  115OSM    H6T11984   1.095   4.306   6.991  1.4805 -1.3419  2.0031
  115OSM    C7S11985   1.043   4.507   6.981 -0.5120 -0.1908 -0.3618
  115OSM    H7S11986   0.956   4.494   6.913  0.3330 -0.8657 -1.3468
  115OSM    H7T11987   1.084   4.604   6.946  0.1064 -0.0580  0.7038
  115OSM    C8S11988   1.007   4.506   7.131 -0.6805  0.1442  0.4749
  115OSM    H8S11989   1.070   4.586   7.174  0.6614  1.0901 -2.9086
  115OSM    H8T11990   1.029   4.410   7.181  2.2834  0.2450 -0.4848
  115OSM    C9S11991   0.857   4.541   7.156  0.1746  0.3001  0.5177
  115OSM    H9S11992   0.784   4.491   7.089 -0.4056 -0.3744  1.6396
  115OSM    H9T11993   0.848   4.652   7.147 -2.3501  0.2948  2.0833
  115OSM   C10S11994   0.814   4.505   7.294  0.9135  0.3329  0.1169
  115OSM   H10S11995   0.721   4.564   7.312  1.1536  0.4811  0.9057
  115OSM   H10T11996   0.885   4.544   7.370 -0.8035  1.2544  1.3287
  115OSM   C11S11997   0.789   4.350   7.317 -0.1916  0.0942  0.0783
  115OSM   H11S11998   0.887   4.303   7.297  0.7949  2.0990 -0.1042
  115OSM   H11T11999   0.715   4.316   7.242  2.0742 -1.7879 -1.4252
  115OSM   C12S12000   0.725   4.320   7.451 -0.0083 -0.3816 -0.2479
  115OSM   H12S12001   0.625   4.368   7.461 -0.3006 -0.6120 -1.9197
  115OSM   H12T12002   0.789   4.359   7.533  1.0910 -0.6444 -0.9692
  115OSM   C13S12003   0.704   4.172   7.482  0.2638 -0.1326  0.0198
  115OSM   H13S12004   0.792   4.110   7.456  1.2664  0.5299  1.6459
  115OSM   H13T12005   0.619   4.133   7.421  0.6545 -1.5346  0.3374
  115OSM   C14S12006   0.660   4.151   7.631 -1.1930  0.5910 -0.0975
  115OSM   H14S12007   0.747   4.170   7.698  0.6836 -2.9200 -1.3080
  115OSM   H14T12008   0.637   4.043   7.642 -0.9803  0.3483 -1.7458
  115OSM   C15S12009   0.542   4.243   7.671  0.2580  0.1902 -0.7467
  115OSM   H15S12010   0.465   4.242   7.591 -0.9741  1.5061  0.3741
  115OSM   H15T12011   0.590   4.343   7.665  3.2016 -1.0892 -0.5189
  115OSM   C16S12012   0.468   4.215   7.802  0.1004  0.3365 -0.7595
  115OSM   H16S12013   0.416   4.118   7.793  3.8126 -1.8066 -1.1651
  115OSM   H16T12014   0.393   4.294   7.827 -2.4377 -1.5974 -1.8159
  115OSM   C17S12015   0.569   4.178   7.909 -1.1072  0.3947 -0.2726
  115OSM   H17S12016   0.643   4.257   7.932 -0.8140  0.1444 -0.3531
  115OSM   H17T12017   0.623   4.085   7.879 -0.4496  0.6559  0.0914
  115OSM   C18S12018   0.510   4.163   8.058  0.0662 -0.2113  0.2301
  115OSM   H18S12019   0.458   4.255   8.091  0.4888 -0.1812  0.8209
  115OSM   H18T12020   0.588   4.144   8.135  1.5864  3.4262 -0.2068
  115OSM   H18U12021   0.442   4.076   8.048 -0.5061  0.2251  0.3381
  115OSM    C1F12022   1.505   4.702   6.701  0.0750  0.3682 -0.0357
  115OSM     OF12023   1.471   4.811   6.669  0.4364  0.2884  0.0779
  115OSM    C2F12024   1.610   4.672   6.797 -0.0535  0.3039 -0.3096
  115OSM    H2F12025   1.683   4.755   6.801 -1.1409  1.2308  2.9938
  115OSM    H2G12026   1.664   4.576   6.781  2.1225  1.1988  1.2111
  115OSM    C3F12027   1.561   4.661   6.948  0.2793  0.7616  0.6517
  115OSM    H3F12028   1.492   4.746   6.964 -0.4905 -0.2255  2.9585
  115OSM    H3G12029   1.646   4.678   7.018  0.3558  0.0430  0.7481
  115OSM    C4F12030   1.495   4.527   6.984  0.2698  0.6359 -0.5332
  115OSM    H4F12031   1.565   4.441   6.969 -1.5336 -1.1641  0.7862
  115OSM    H4G12032   1.408   4.502   6.919 -0.1572 -1.2162  0.6626
  115OSM    C5F12033   1.461   4.524   7.138  0.2233 -0.7818 -0.1925
  115OSM    H5F12034   1.556   4.542   7.194 -0.2022 -2.0889  0.9919
  115OSM    H5G12035   1.420   4.425   7.166 -2.4640  0.3669  0.2614
  115OSM    C6F12036   1.363   4.630   7.182  0.0049 -0.6824 -0.0515
  115OSM    H6F12037   1.271   4.600   7.127 -0.5470  1.2432 -0.2570
  115OSM    H6G12038   1.394   4.731   7.146  1.2383  0.1388  3.0208
  115OSM    C7F12039   1.339   4.646   7.335 -0.0427  0.0369  0.0914
  115OSM    H7F12040   1.242   4.694   7.363 -1.0039 -2.2169  0.8665
  115OSM    H7G12041   1.419   4.711   7.377 -0.6751  1.4774 -0.8502
  115OSM    C8F12042   1.349   4.516   7.412  0.1563  0.6709  0.0646
  115OSM    H8F12043   1.458   4.493   7.410  0.3661  1.6629 -0.7433
  115OSM    H8G12044   1.286   4.434   7.373 -0.4937 -0.3049  2.9415
  115OSM    C9F12045   1.319   4.528   7.562 -0.7066  0.5740 -0.4061
  115OSM    H9F12046   1.404   4.572   7.616 -1.2198  0.9996  0.0660
  115OSM   C10F12047   1.206   4.483   7.620  0.2349  0.5528  0.7574
  115OSM   H10F12048   1.198   4.484   7.730  1.2096  1.0660  0.8378
  115OSM   C11F12049   1.087   4.424   7.539  0.6252  0.9870 -0.3882
  115OSM   H11F12050   1.087   4.442   7.429  0.6265  0.8931 -0.4034
  115OSM   H11G12051   0.991   4.470   7.571 -0.0628 -0.7779  0.2248
  115OSM   C12F12052   1.079   4.271   7.551 -0.1285  0.1258 -0.2632
  115OSM   H12F12053   1.182   4.247   7.518 -0.9912 -1.5784 -1.9262
  115OSM   H12G12054   1.005   4.226   7.481 -0.6225 -0.9401  0.9003
  115OSM   C13F12055   1.037   4.222   7.692 -1.1418 -0.0157  0.1368
  115OSM   H13F12056   0.944   4.272   7.728 -0.3265  1.7491 -0.1210
  115OSM   H13G12057   1.116   4.256   7.761 -2.1089  0.1053  1.2239
  115OSM   C14F12058   1.039   4.062   7.696 -0.0238  0.0369 -0.0456
  115OSM   H14F12059   1.146   4.033   7.690 -0.0575 -0.6559  2.0480
  115OSM   H14G12060   0.976   4.028   7.611  0.3724 -1.9996  0.4244
  115OSM   C15F12061   0.996   4.010   7.833 -0.6155  0.0717 -1.4683
  115OSM   H15F12062   1.028   3.904   7.839 -1.2230 -0.0184  1.1064
  115OSM   H15G12063   0.886   4.017   7.841 -0.6006  0.0834 -1.2817
  115OSM   C16F12064   1.061   4.080   7.957 -1.1364 -0.4060 -0.4217
  115OSM   H16F12065   1.036   4.189   7.956  2.2601  0.4962  0.0563
  115OSM   H16G12066   1.170   4.068   7.941 -1.1092 -0.4809 -0.1842
  115OSM   C17F12067   1.015   4.022   8.092 -0.0722  0.1265 -0.2002
  115OSM   H17F12068   1.088   4.026   8.175 -0.6790  1.3665  0.2998
  115OSM   H17G12069   1.004   3.913   8.078 -0.8387 -0.6952  4.7575
  115OSM   C18F12070   0.888   4.089   8.142  0.0529 -0.9557 -0.3279
  115OSM   H18F12071   0.916   4.180   8.200  0.3341 -0.5297 -1.1234
  115OSM   H18G12072   0.846   4.006   8.203 -0.1591  0.0911  1.0155
  115OSM   H18H12073   0.817   4.113   8.060  1.5274  0.1219 -1.3403
  116OSM      N12074   0.062   1.388   6.084  0.4520  0.0440  0.0086
  116OSM    C1512075   0.002   1.281   5.993  0.4274 -0.2295  0.5610
  116OSM   H15A12076   0.030   1.186   6.037  2.7580  0.2823  0.3091
  116OSM   H15B12077   0.038   1.293   5.892  2.6834 -0.9820  1.2170
  116OSM   H15C12078  -0.105   1.286   6.000  0.3624 -1.2295  0.4158
  116OSM    C1412079   0.215   1.393   6.067  0.6844  0.1551 -0.2060
  116OSM   H14A12080   0.233   1.449   5.977  0.3002 -0.7156 -0.8366
  116OSM   H14B12081   0.268   1.299   6.057  1.9958  0.6200  1.7491
  116OSM   H14C12082   0.258   1.449   6.149 -2.1060 -0.3214  1.7253
  116OSM    C1312083   0.014   1.526   6.037  0.0428 -0.1281 -0.1123
  116OSM   H13A12084   0.045   1.558   5.939 -0.3070  1.8766  0.3670
  116OSM   H13B12085   0.057   1.597   6.107  0.9330 -1.3338  0.5948
  116OSM   H13C12086  -0.092   1.533   6.059  0.1398  0.1167  0.2887
  116OSM    C1212087   0.003   1.362   6.221  0.3285 -0.4178  0.3014
  116OSM   H12A12088   0.030   1.451   6.277 -0.2780 -0.1928  0.2430
  116OSM   H12B12089   0.053   1.284   6.277 -0.9489 -1.5177 -0.0313
  116OSM    C1112090  -0.153   1.351   6.237 -0.0971 -0.2443  1.2981
  116OSM   H11A12091  -0.168   1.337   6.346 -0.4307  1.0294  1.4291
  116OSM   H11B12092  -0.184   1.266   6.172 -0.3789  1.4450 -0.9329
  116OSM      P12093  -0.287   1.570   6.292 -0.0169  0.0066 -0.0975
  116OSM    O1312094  -0.310   1.693   6.220 -0.4774 -0.1150  0.2863
  116OSM    O1412095  -0.420   1.522   6.344 -0.3273  0.3455 -0.5222
  116OSM    O1112096  -0.179   1.591   6.406  0.5587 -0.4318 -0.4463
  116OSM    O1212097  -0.234   1.461   6.188  0.0391 -0.2522 -0.1886
  116OSM    C1S12098  -0.194   1.544   6.536 -0.3800  0.4183  0.0364
  116OSM    H1S12099  -0.125   1.458   6.555  0.2666  1.1469  1.1641
  116OSM    H1T12100  -0.296   1.512   6.567  0.2531 -2.4037 -0.5028
  116OSM     NF12101  -0.121   1.580   6.764  0.3789 -0.2260  0.1359
  116OSM    HNF12102  -0.189   1.589   6.837 -1.2413  0.2534 -1.3688
  116OSM    C2S12103  -0.141   1.653   6.641 -0.3816  0.6113  1.0603
  116OSM    H2S12104  -0.046   1.692   6.598 -0.5222 -0.7821 -0.6385
  116OSM    C3S12105  -0.233   1.776   6.638 -0.1726 -0.2290  0.0291
  116OSM    H3S12106  -0.338   1.747   6.661  0.2581  0.4276  3.3669
  116OSM     O312107  -0.217   1.853   6.519 -0.3390 -0.3737 -0.5962
  116OSM    HO312108  -0.151   1.806   6.468  0.9960 -0.6105  1.2495
  116OSM    C4S12109  -0.200   1.872   6.750  0.1323 -0.2923  0.7985
  116OSM    H4S12110  -0.093   1.894   6.735  0.0929 -1.9886 -3.2954
  116OSM    C5S12111  -0.278   1.914   6.848  0.1014 -0.5459 -0.0393
  116OSM    H5S12112  -0.378   1.869   6.858  0.5011 -1.6099 -0.6107
  116OSM    C6S12113  -0.226   2.008   6.953 -0.2906 -0.1006 -0.1209
  116OSM    H6S12114  -0.280   2.105   6.947  0.8531  0.6145  0.8544
  116OSM    H6T12115  -0.119   2.036   6.939 -0.0594 -1.4398 -1.2343
  116OSM    C7S12116  -0.252   1.945   7.094  0.5375 -0.2853  0.5668
  116OSM    H7S12117  -0.173   1.868   7.108  1.1606  0.4304  1.0614
  116OSM    H7T12118  -0.353   1.899   7.091  0.4133 -0.1454 -3.7395
  116OSM    C8S12119  -0.241   2.048   7.209  0.7182  0.3104 -0.2431
  116OSM    H8S12120  -0.332   2.111   7.195  0.8873  0.9726  1.4797
  116OSM    H8T12121  -0.147   2.106   7.218  1.3305 -0.5702 -0.8120
  116OSM    C9S12122  -0.259   1.980   7.350  0.3299  1.1265  0.3928
  116OSM    H9S12123  -0.173   1.911   7.363 -0.7553 -0.2701  0.2816
  116OSM    H9T12124  -0.357   1.932   7.334  1.0664 -0.2411 -0.2263
  116OSM   C10S12125  -0.250   2.081   7.459  0.1731 -0.5782  0.2695
  116OSM   H10S12126  -0.336   2.147   7.437  2.1278  1.6113 -1.3242
  116OSM   H10T12127  -0.151   2.131   7.465 -1.1994  2.1950  2.2228
  116OSM   C11S12128  -0.282   2.036   7.602 -0.9013 -0.3098  0.6981
  116OSM   H11S12129  -0.198   1.968   7.628 -1.8323 -1.9339 -0.3846
  116OSM   H11T12130  -0.379   1.983   7.611 -1.6609  1.2502  2.3059
  116OSM   C12S12131  -0.293   2.150   7.703  0.1793  0.1236 -0.4232
  116OSM   H12S12132  -0.342   2.239   7.658  1.8171  2.1200  1.5600
  116OSM   H12T12133  -0.196   2.186   7.743  0.4723 -0.8966 -0.1719
  116OSM   C13S12134  -0.370   2.102   7.826  0.2498 -0.3051  0.5813
  116OSM   H13S12135  -0.313   2.027   7.887  0.1888  0.0876  1.1316
  116OSM   H13T12136  -0.463   2.047   7.800 -0.0088  0.8129 -0.9775
  116OSM   C14S12137  -0.402   2.221   7.913  1.0469  0.0993  0.3745
  116OSM   H14S12138  -0.480   2.292   7.877  0.2790  0.7675  3.1022
  116OSM   H14T12139  -0.316   2.290   7.924 -0.5533  2.1175  1.0379
  116OSM   C15S12140  -0.431   2.185   8.065  0.5609  0.8317  0.0553
  116OSM   H15S12141  -0.344   2.125   8.099 -0.4969  0.2710  1.9063
  116OSM   H15T12142  -0.520   2.119   8.072  0.5769  0.9897  2.2966
  116OSM   C16S12143  -0.450   2.320   8.138  0.0129  0.2587 -0.0901
  116OSM   H16S12144  -0.551   2.350   8.103  0.9271  3.3662 -0.3506
  116OSM   H16T12145  -0.366   2.387   8.111  0.9815 -2.0169 -3.3277
  116OSM   C17S12146  -0.465   2.300   8.291 -0.4605  0.7073  0.2229
  116OSM   H17S12147  -0.366   2.287   8.341 -0.3656  1.1465  0.1572
  116OSM   H17T12148  -0.540   2.222   8.317 -2.7391  2.9406  0.7329
  116OSM   C18S12149  -0.518   2.420   8.363  0.4208 -0.8232 -0.0323
  116OSM   H18S12150  -0.534   2.389   8.468  0.9934 -4.7814 -0.9603
  116OSM   H18T12151  -0.615   2.458   8.325 -0.0744  0.3323  2.2180
  116OSM   H18U12152  -0.452   2.510   8.360 -2.0100  1.0890  0.7580
  116OSM    C1F12153  -0.048   1.477   6.790 -0.8234  0.0235 -0.6712
  116OSM     OF12154   0.055   1.451   6.719 -0.1258 -0.1150 -0.8768
  116OSM    C2F12155  -0.089   1.394   6.912 -0.5956  0.2069  0.2207
  116OSM    H2F12156  -0.190   1.351   6.895 -0.0520 -0.9361 -0.2363
  116OSM    H2G12157  -0.085   1.457   7.003  0.9803 -0.9449  0.9807
  116OSM    C3F12158  -0.002   1.266   6.943  0.4436 -0.3535  1.2630
  116OSM    H3F12159   0.102   1.301   6.961 -0.1931  3.0963 -0.7326
  116OSM    H3G12160  -0.006   1.205   6.851 -0.1420  1.5013  0.0016
  116OSM    C4F12161  -0.070   1.172   7.041 -0.8805 -0.0174  0.3729
  116OSM    H4F12162  -0.022   1.075   7.018 -1.3144  0.1624 -1.3888
  116OSM    H4G12163  -0.176   1.161   7.010 -0.4391 -0.9111 -0.8886
  116OSM    C5F12164  -0.051   1.203   7.191 -0.3965 -0.3069  0.3307
  116OSM    H5F12165  -0.093   1.122   7.256 -2.0967  0.1906 -0.1039
  116OSM    H5G12166  -0.104   1.297   7.217 -0.1453  0.1089 -0.6278
  116OSM    C6F12167   0.099   1.218   7.214  0.5012 -0.0224  0.0448
  116OSM    H6F12168   0.153   1.313   7.193  0.0413  0.6413  1.6739
  116OSM    H6G12169   0.158   1.145   7.154  2.6688  3.2351 -2.1504
  116OSM    C7F12170   0.120   1.208   7.363 -0.7493  0.3472 -0.5585
  116OSM    H7F12171   0.227   1.193   7.390 -0.8229  1.5864  0.5120
  116OSM    H7G12172   0.082   1.110   7.398  3.2140 -1.3240 -0.3449
  116OSM    C8F12173   0.057   1.317   7.447  0.1732 -0.4539 -0.3232
  116OSM    H8F12174   0.043   1.283   7.551  0.2147  1.9317  0.5303
  116OSM    H8G12175  -0.048   1.341   7.419  0.6557  0.2472 -1.6666
  116OSM    C9F12176   0.130   1.450   7.437  0.2289  0.2611 -0.0996
  116OSM    H9F12177   0.152   1.479   7.333 -1.0894 -2.4181 -1.2167
  116OSM   C10F12178   0.166   1.519   7.549 -0.7618  0.2476  0.0972
  116OSM   H10F12179   0.238   1.602   7.544  1.6821 -1.7203  0.6496
  116OSM   C11F12180   0.150   1.477   7.695  0.1027 -0.0176  0.2403
  116OSM   H11F12181   0.221   1.393   7.715  1.4186  0.7906 -0.9506
  116OSM   H11G12182   0.049   1.432   7.709  0.2094  0.2744  2.3587
  116OSM   C12F12183   0.180   1.597   7.788  0.3579 -0.1373  0.9250
  116OSM   H12F12184   0.127   1.687   7.750  0.3728 -0.5454 -0.0868
  116OSM   H12G12185   0.290   1.610   7.795  0.3011  1.0894 -0.0850
  116OSM   C13F12186   0.124   1.554   7.929 -0.9181  0.4982 -0.6164
  116OSM   H13F12187   0.194   1.478   7.971 -0.7472  1.9092  1.8420
  116OSM   H13G12188   0.025   1.506   7.913 -1.9222  2.1315  0.4578
  116OSM   C14F12189   0.120   1.669   8.028  0.8689  0.0218 -0.2080
  116OSM   H14F12190   0.043   1.747   8.007  2.9283  1.9970 -0.7658
  116OSM   H14G12191   0.213   1.730   8.022  0.4824  0.5095 -2.2966
  116OSM   C15F12192   0.088   1.607   8.170 -0.1942 -0.5950  0.7525
  116OSM   H15F12193   0.173   1.548   8.213 -0.7115  0.1442  2.9409
  116OSM   H15G12194  -0.001   1.542   8.182 -0.0486 -0.5563  2.3079
  116OSM   C16F12195   0.058   1.706   8.276 -0.1249  0.2010  0.4266
  116OSM   H16F12196  -0.033   1.766   8.257 -0.0132  0.4224  0.5831
  116OSM   H16G12197   0.140   1.782   8.281  0.2654 -0.2574  1.2315
  116OSM   C17F12198   0.048   1.639   8.415 -0.3847  0.1068 -0.2092
  116OSM   H17F12199   0.146   1.607   8.455 -0.1868  2.1354  1.0648
  116OSM   H17G12200  -0.006   1.542   8.406  1.2684 -1.0449  1.4701
  116OSM   C18F12201  -0.033   1.712   8.522  0.2024 -0.9502 -0.0702
  116OSM   H18F12202  -0.139   1.729   8.494  0.2015  0.6810  0.8044
  116OSM   H18G12203  -0.010   1.820   8.536 -2.2069 -0.5166  0.9081
  116OSM   H18H12204  -0.022   1.657   8.618  0.7824 -0.4081  0.1852
  117OSM      N12205   0.179   4.960   6.127 -0.5276 -0.7891 -0.1468
  117OSM    C1512206   0.157   4.814   6.088  0.3013  0.0402  0.3513
  117OSM   H15A12207   0.249   4.769   6.054 -0.2384 -0.0882 -0.9968
  117OSM   H15B12208   0.086   4.795   6.009  0.8760 -0.4812 -0.0534
  117OSM   H15C12209   0.125   4.767   6.180 -2.0175  0.8226  0.0159
  117OSM    C1412210   0.309   4.972   6.208 -0.2269  0.2796 -0.3430
  117OSM   H14A12211   0.387   4.943   6.139  0.3402 -0.7325  0.6951
  117OSM   H14B12212   0.301   4.900   6.288  1.5701  1.5808  1.1164
  117OSM   H14C12213   0.321   5.076   6.233  0.6067 -0.1890  1.3658
  117OSM    C1312214   0.202   5.042   6.012 -0.2679 -0.0363 -0.0016
  117OSM   H13A12215   0.289   5.013   5.955 -1.4484 -0.5978 -1.5913
  117OSM   H13B12216   0.218   5.145   6.041 -0.6512 -0.2891  1.1576
  117OSM   H13C12217   0.112   5.045   5.951  0.0494  0.9931 -0.4507
  117OSM    C1212218   0.067   5.010   6.220 -0.3847 -0.1759  0.6414
  117OSM   H12A12219  -0.023   5.040   6.169 -0.0975  0.4092  0.4664
  117OSM   H12B12220   0.099   5.110   6.246  0.2370 -0.1204 -0.2674
  117OSM    C1112221   0.031   4.924   6.341  0.5051 -0.0603  0.8195
  117OSM   H11A12222  -0.024   4.980   6.420 -1.5894  0.7735 -1.0976
  117OSM   H11B12223   0.125   4.895   6.391  0.4722  0.9158  1.4842
  117OSM      P12224  -0.045   4.681   6.388 -0.3370  0.0655 -0.0907
  117OSM    O1312225  -0.154   4.585   6.344  0.0287 -0.3511 -0.3678
  117OSM    O1412226   0.097   4.639   6.380 -0.0242  0.0454  0.1823
  117OSM    O1112227  -0.078   4.729   6.541  0.6940 -0.3787  0.6177
  117OSM    O1212228  -0.062   4.817   6.312  0.4725  0.0794  0.2263
  117OSM    C1S12229  -0.207   4.778   6.568 -0.2203  0.1940 -0.0197
  117OSM    H1S12230  -0.289   4.703   6.564  0.2644 -0.3917  0.6094
  117OSM    H1T12231  -0.238   4.859   6.499  1.7859 -0.4018 -1.7079
  117OSM     NF12232  -0.358   4.855   6.748 -0.1853  0.5270  0.2073
  117OSM    HNF12233  -0.379   4.948   6.719 -0.8312 -0.0218 -1.1655
  117OSM    C2S12234  -0.217   4.827   6.721  0.3179  0.3719  0.0284
  117OSM    H2S12235  -0.189   4.740   6.785  0.5027  0.0171 -0.5268
  117OSM    C3S12236  -0.113   4.946   6.744  0.3224 -0.5226  0.0695
  117OSM    H3S12237  -0.134   5.030   6.674 -1.6538 -2.5290 -1.8817
  117OSM     O312238   0.028   4.917   6.727  0.3925 -0.1530 -0.1937
  117OSM    HO312239   0.024   4.846   6.662 -0.8255  0.2585 -0.5931
  117OSM    C4S12240  -0.134   5.003   6.887  0.3939 -0.2812  0.2822
  117OSM    H4S12241  -0.088   4.950   6.972 -2.9639 -0.6396  2.0604
  117OSM    C5S12242  -0.191   5.113   6.932 -0.0793  0.3435 -0.3080
  117OSM    H5S12243  -0.230   5.192   6.866  0.2181 -0.6061 -1.6449
  117OSM    C6S12244  -0.181   5.151   7.075  0.2762 -0.2150 -0.0167
  117OSM    H6S12245  -0.290   5.161   7.096 -0.2390  1.7819 -2.9783
  117OSM    H6T12246  -0.140   5.254   7.072  1.9845 -0.8138  1.1607
  117OSM    C7S12247  -0.125   5.067   7.185 -0.5072 -0.2622 -0.9636
  117OSM    H7S12248  -0.122   4.959   7.157 -2.6826 -1.4188  2.5753
  117OSM    H7T12249  -0.186   5.093   7.274 -0.7150  0.8074 -1.4004
  117OSM    C8S12250   0.012   5.110   7.235  0.6836  0.4293 -0.2987
  117OSM    H8S12251   0.086   5.115   7.152  0.5072  0.5882 -0.4473
  117OSM    H8T12252   0.057   5.043   7.311 -0.3929  0.9445  0.8242
  117OSM    C9S12253   0.005   5.247   7.306  0.1855 -0.2689 -0.1466
  117OSM    H9S12254  -0.058   5.317   7.248  2.4332  0.0557 -2.3794
  117OSM    H9T12255   0.107   5.289   7.295  1.2450 -2.2674  1.3848
  117OSM   C10S12256  -0.015   5.226   7.456  0.4638  0.2140 -0.2142
  117OSM   H10S12257   0.055   5.147   7.489  0.6003  1.4630  2.7635
  117OSM   H10T12258  -0.113   5.182   7.485 -0.1945  2.7383  1.8445
  117OSM   C11S12259   0.022   5.352   7.526 -0.7933  0.8207  0.0691
  117OSM   H11S12260  -0.058   5.428   7.510  0.5877  2.1985 -0.4502
  117OSM   H11T12261   0.117   5.389   7.484 -1.2059 -1.8370 -3.7214
  117OSM   C12S12262   0.032   5.334   7.684  1.0201 -0.1257  0.1063
  117OSM   H12S12263   0.122   5.273   7.708  0.7520  0.0197  1.5990
  117OSM   H12T12264  -0.061   5.277   7.707 -0.5493  1.8785 -0.9663
  117OSM   C13S12265   0.029   5.468   7.752  0.5277 -0.7539 -1.1975
  117OSM   H13S12266  -0.069   5.510   7.724 -0.1132 -0.1437  1.5875
  117OSM   H13T12267   0.103   5.545   7.721 -1.0942  0.7799 -1.3587
  117OSM   C14S12268   0.037   5.459   7.905  0.2393 -0.3130 -0.1166
  117OSM   H14S12269   0.048   5.560   7.950 -1.6529 -0.4569  0.7692
  117OSM   H14T12270   0.121   5.394   7.937 -0.2106 -0.5293  0.6698
  117OSM   C15S12271  -0.094   5.418   7.964  0.4485  0.1438 -0.1355
  117OSM   H15S12272  -0.134   5.344   7.892  3.1228 -1.4564 -0.1440
  117OSM   H15T12273  -0.160   5.507   7.971  0.3286 -0.0213  1.2650
  117OSM   C16S12274  -0.084   5.348   8.099 -0.2238 -0.3153  0.0502
  117OSM   H16S12275  -0.017   5.411   8.162 -2.8078  1.5301  1.1474
  117OSM   H16T12276  -0.024   5.254   8.097 -0.3039 -0.3548 -0.6785
  117OSM   C17S12277  -0.214   5.303   8.169  0.6056 -0.2592  0.5278
  117OSM   H17S12278  -0.188   5.302   8.277 -1.6275  0.6204  1.1195
  117OSM   H17T12279  -0.235   5.201   8.129 -0.4169  0.2301 -0.2319
  117OSM   C18S12280  -0.331   5.397   8.157 -0.2181  0.3573  0.1116
  117OSM   H18S12281  -0.308   5.484   8.222  1.5427  0.2151 -0.2663
  117OSM   H18T12282  -0.425   5.342   8.178  1.4352 -2.1664  1.4364
  117OSM   H18U12283  -0.345   5.438   8.055 -0.4897  1.0613  0.4256
  117OSM    C1F12284  -0.458   4.772   6.776  0.7151 -0.0504 -0.6680
  117OSM     OF12285  -0.439   4.649   6.772  0.6841 -0.4471  0.2137
  117OSM    C2F12286  -0.599   4.834   6.794  0.0270 -0.0485 -0.0477
  117OSM    H2F12287  -0.656   4.831   6.699  2.4046 -2.7942 -1.5696
  117OSM    H2G12288  -0.589   4.945   6.799  0.7723 -0.1109  0.0497
  117OSM    C3F12289  -0.682   4.758   6.908 -0.3946 -0.3919  0.1453
  117OSM    H3F12290  -0.695   4.652   6.879  1.3206 -1.1628  1.9842
  117OSM    H3G12291  -0.780   4.809   6.922 -0.3643 -0.1272 -0.5216
  117OSM    C4F12292  -0.613   4.766   7.048 -0.2429 -0.7773 -0.1175
  117OSM    H4F12293  -0.523   4.703   7.037  2.0284  2.5043 -2.1314
  117OSM    H4G12294  -0.680   4.723   7.126  0.1448  1.8720  1.8268
  117OSM    C5F12295  -0.574   4.909   7.105 -0.0230  0.2995  0.3243
  117OSM    H5F12296  -0.666   4.969   7.092  0.9502  1.4626 -1.8849
  117OSM    H5G12297  -0.493   4.955   7.043 -1.3926  0.8380 -1.1397
  117OSM    C6F12298  -0.520   4.907   7.252 -0.2100  0.4707 -0.2494
  117OSM    H6F12299  -0.426   4.848   7.256 -1.2104 -1.1502 -0.1380
  117OSM    H6G12300  -0.591   4.859   7.322  1.0316  0.5157  1.0858
  117OSM    C7F12301  -0.508   5.051   7.302 -0.7073 -0.0835  0.0309
  117OSM    H7F12302  -0.610   5.086   7.327 -0.7847  2.0303 -2.7748
  117OSM    H7G12303  -0.467   5.116   7.222 -1.1930 -0.3881 -0.4648
  117OSM    C8F12304  -0.420   5.067   7.433 -0.4645  0.2261  0.0961
  117OSM    H8F12305  -0.322   5.022   7.407  0.5266  3.0426 -1.4029
  117OSM    H8G12306  -0.467   4.997   7.506  0.3190 -1.3029 -0.8074
  117OSM    C9F12307  -0.395   5.203   7.487  0.3111  0.3475  0.3348
  117OSM    H9F12308  -0.323   5.264   7.431  2.2234  0.3699  2.6564
  117OSM   C10F12309  -0.440   5.267   7.594 -0.1744  0.4766 -0.3690
  117OSM   H10F12310  -0.414   5.373   7.602 -1.3281  0.8216 -1.0515
  117OSM   C11F12311  -0.541   5.208   7.692  0.2353  0.3254 -0.5399
  117OSM   H11F12312  -0.633   5.164   7.649  1.0831 -2.4426  0.2709
  117OSM   H11G12313  -0.573   5.292   7.758 -0.9168  1.0077 -1.9182
  117OSM   C12F12314  -0.474   5.103   7.778 -0.7268  0.1038  0.3577
  117OSM   H12F12315  -0.402   5.152   7.847 -0.4438  2.3797 -1.4069
  117OSM   H12G12316  -0.426   5.022   7.719  0.4329  0.5603  0.6566
  117OSM   C13F12317  -0.577   5.031   7.866 -0.2604 -0.6495 -0.3391
  117OSM   H13F12318  -0.537   4.932   7.895  2.3565  0.3535 -0.2507
  117OSM   H13G12319  -0.666   5.007   7.803 -2.4451 -0.4543  2.4772
  117OSM   C14F12320  -0.622   5.104   7.997 -0.6315  0.4092  0.5190
  117OSM   H14F12321  -0.652   5.205   7.961 -2.3322 -0.4078 -0.5064
  117OSM   H14G12322  -0.547   5.107   8.079  0.1560 -0.3422 -0.1639
  117OSM   C15F12323  -0.756   5.058   8.059  0.0483 -0.7473 -0.4838
  117OSM   H15F12324  -0.734   4.954   8.093 -0.1789  0.0111  2.2316
  117OSM   H15G12325  -0.830   5.052   7.976  0.6793 -0.5359 -1.0705
  117OSM   C16F12326  -0.788   5.146   8.183 -0.1531 -0.4621  0.1307
  117OSM   H16F12327  -0.827   5.241   8.140 -2.1933  0.5761  3.7902
  117OSM   H16G12328  -0.689   5.158   8.232  0.7282 -4.8077 -0.2491
  117OSM   C17F12329  -0.884   5.099   8.288  0.7689 -0.1085 -0.1890
  117OSM   H17F12330  -0.983   5.095   8.239 -0.3169 -2.2968  2.0054
  117OSM   H17G12331  -0.851   4.999   8.322  0.6017 -0.2107 -0.3304
  117OSM   C18F12332  -0.911   5.197   8.411  0.3173  0.6027 -0.0527
  117OSM   H18F12333  -0.985   5.149   8.479  2.5105 -1.1155  1.2408
  117OSM   H18G12334  -0.950   5.294   8.373  0.4354  1.6543  2.3120
  117OSM   H18H12335  -0.818   5.217   8.469 -0.4804  0.3651  1.3552
  118OSM      N12336   2.993   4.494   6.019 -0.6209  0.9141 -0.0871
  118OSM    C1512337   2.920   4.400   6.114  0.3314  0.2081 -0.0331
  118OSM   H15A12338   2.877   4.311   6.072 -1.3635  0.6163  0.7603
  118OSM   H15B12339   2.842   4.455   6.165  2.2781  3.5640 -0.3753
  118OSM   H15C12340   2.993   4.361   6.183  0.5678  0.1322 -0.3233
  118OSM    C1412341   3.118   4.424   5.963  0.2287 -0.4375 -0.0521
  118OSM   H14A12342   3.203   4.445   6.027 -0.1625 -2.5206  1.2182
  118OSM   H14B12343   3.139   4.468   5.867  0.0681  1.5209  0.7620
  118OSM   H14C12344   3.108   4.318   5.945 -0.6866 -0.2695 -0.5919
  118OSM    C1312345   2.902   4.519   5.908 -0.2137 -0.2556 -0.2580
  118OSM   H13A12346   2.895   4.438   5.837 -0.5479 -0.4707  0.0200
  118OSM   H13B12347   2.937   4.608   5.856  2.4624 -1.2077 -0.2366
  118OSM   H13C12348   2.804   4.535   5.951 -0.1032 -2.5307  1.0137
  118OSM    C1212349   3.033   4.619   6.091  0.0547 -0.3763  0.1801
  118OSM   H12A12350   2.942   4.674   6.111  0.6647 -0.3097  3.2166
  118OSM   H12B12351   3.085   4.678   6.018 -0.4715 -0.6691 -0.4428
  118OSM    C1112352   3.117   4.598   6.224  0.0152  0.7486 -0.3676
  118OSM   H11A12353   3.059   4.523   6.281 -1.4013  0.7012 -1.8021
  118OSM   H11B12354   3.131   4.687   6.290  2.5748 -0.6284  1.0840
  118OSM      P12355   3.320   4.430   6.253  0.3644  0.7101 -0.5588
  118OSM    O1312356   3.231   4.312   6.273  0.4049  0.4923 -0.7335
  118OSM    O1412357   3.441   4.401   6.171  0.0569 -0.4360 -0.4947
  118OSM    O1112358   3.367   4.477   6.395 -0.0369  0.1634  0.2825
  118OSM    O1212359   3.250   4.558   6.199 -0.0941  0.0130  0.0048
  118OSM    C1S12360   3.398   4.610   6.426 -0.5670  0.4279  0.0532
  118OSM    H1S12361   3.337   4.694   6.388  1.9767  1.8322 -1.1817
  118OSM    H1T12362   3.499   4.644   6.395 -1.3852  1.9787 -1.0591
  118OSM     NF12363   3.387   4.761   6.633 -0.2296 -0.5935  0.8908
  118OSM    HNF12364   3.467   4.814   6.658 -0.8862  1.3212 -0.7918
  118OSM    C2S12365   3.402   4.623   6.588  0.0414  1.0317  0.2670
  118OSM    H2S12366   3.316   4.562   6.622  0.0869  0.7886 -0.0545
  118OSM    C3S12367   3.529   4.545   6.635 -0.2044  0.0896 -0.6192
  118OSM    H3S12368   3.622   4.600   6.608 -0.6724  1.6280  0.7434
  118OSM     O312369   3.537   4.409   6.593 -0.6979  0.1049  0.0708
  118OSM    HO312370   3.477   4.401   6.518 -1.9598  1.9428  0.8231
  118OSM    C4S12371   3.528   4.549   6.784 -0.0043 -0.1015  0.1645
  118OSM    H4S12372   3.586   4.635   6.820 -0.6555  0.8357 -0.9466
  118OSM    C5S12373   3.462   4.466   6.868  0.1091  0.0021 -0.0223
  118OSM    H5S12374   3.393   4.391   6.827 -3.3428  2.1191  1.4877
  118OSM    C6S12375   3.443   4.475   7.016 -0.0648 -0.0970 -0.4598
  118OSM    H6S12376   3.517   4.414   7.073  1.7229  0.8877 -1.6461
  118OSM    H6T12377   3.338   4.444   7.039  0.3616 -0.2551  1.4714
  118OSM    C7S12378   3.449   4.621   7.070 -0.1215 -0.3521  0.0064
  118OSM    H7S12379   3.368   4.664   7.008  1.6054 -0.3758 -2.4183
  118OSM    H7T12380   3.544   4.672   7.041  0.5101 -1.0181  0.8612
  118OSM    C8S12381   3.423   4.612   7.220 -0.3654 -0.3841  0.1608
  118OSM    H8S12382   3.507   4.560   7.269 -0.7645 -3.2133 -1.9204
  118OSM    H8T12383   3.330   4.555   7.241 -1.7181  0.9056 -1.9055
  118OSM    C9S12384   3.409   4.754   7.285  0.1627 -0.0819 -0.4377
  118OSM    H9S12385   3.331   4.812   7.230 -0.6936 -1.3828 -0.6605
  118OSM    H9T12386   3.492   4.813   7.241 -0.5917  0.4864 -1.1488
  118OSM   C10S12387   3.376   4.772   7.430  0.3493  0.5348  0.2070
  118OSM   H10S12388   3.457   4.720   7.486  0.3919  0.8676  0.4617
  118OSM   H10T12389   3.278   4.729   7.456 -0.4676  0.7598 -2.2670
  118OSM   C11S12390   3.396   4.919   7.470  0.0939  0.0299 -1.2076
  118OSM   H11S12391   3.315   4.977   7.420  0.9559  1.6118 -0.8477
  118OSM   H11T12392   3.499   4.944   7.436  0.2509 -0.2478 -0.9326
  118OSM   C12S12393   3.374   4.962   7.620  0.3760  0.2053 -0.2308
  118OSM   H12S12394   3.378   5.073   7.624  0.6914  0.3451 -2.7993
  118OSM   H12T12395   3.457   4.924   7.683  0.7624  3.0872  1.2103
  118OSM   C13S12396   3.240   4.911   7.682  0.7002 -0.0792  0.5211
  118OSM   H13S12397   3.253   4.801   7.698 -0.9712 -0.0987  1.9861
  118OSM   H13T12398   3.156   4.925   7.611 -0.6938 -0.5864  2.0204
  118OSM   C14S12399   3.197   4.973   7.819  0.0792  0.3898  0.0190
  118OSM   H14S12400   3.108   4.918   7.857  1.1361 -0.9487  0.6751
  118OSM   H14T12401   3.185   5.082   7.803 -0.6044  0.3296  0.1178
  118OSM   C15S12402   3.306   4.950   7.931 -0.2452 -0.5767 -0.5930
  118OSM   H15S12403   3.271   5.002   8.022  0.8216 -0.6044 -0.1494
  118OSM   H15T12404   3.396   5.002   7.893 -1.4487  1.9901 -0.1465
  118OSM   C16S12405   3.346   4.798   7.962 -0.1487  0.0353  0.3133
  118OSM   H16S12406   3.442   4.798   8.018  0.6422 -2.1746 -0.9386
  118OSM   H16T12407   3.364   4.736   7.872  0.5879 -0.8718  1.0561
  118OSM   C17S12408   3.246   4.737   8.060 -0.4896  0.2568  0.5399
  118OSM   H17S12409   3.140   4.749   8.028 -0.2811  0.6654 -0.0013
  118OSM   H17T12410   3.247   4.800   8.151  0.5990  1.4950 -0.2902
  118OSM   C18S12411   3.275   4.594   8.099 -0.2189  0.1256 -0.3790
  118OSM   H18S12412   3.285   4.529   8.010  1.2204 -0.3287  0.0932
  118OSM   H18T12413   3.187   4.555   8.154  0.1300 -0.5272 -0.2706
  118OSM   H18U12414   3.372   4.576   8.150 -0.3895  0.3207  0.0259
  118OSM    C1F12415   3.275   4.829   6.616 -0.1252  1.3624 -0.6257
  118OSM     OF12416   3.173   4.773   6.588  0.2325  0.0368  0.1523
  118OSM    C2F12417   3.265   4.974   6.644 -0.2455 -0.3081  0.0657
  118OSM    H2F12418   3.228   5.022   6.551 -0.3082 -0.5566 -0.0392
  118OSM    H2G12419   3.363   5.011   6.680 -1.5969  2.3908  1.2534
  118OSM    C3F12420   3.167   5.004   6.760 -0.0037  0.4346 -0.4793
  118OSM    H3F12421   3.070   4.967   6.722 -0.0181  0.3824 -0.3916
  118OSM    H3G12422   3.153   5.112   6.782 -0.4575  0.3483 -0.3332
  118OSM    C4F12423   3.217   4.927   6.888  0.0613 -0.0645 -0.4595
  118OSM    H4F12424   3.242   4.824   6.856  0.4743  0.4604 -1.8653
  118OSM    H4G12425   3.130   4.919   6.958  0.1748 -0.1788 -0.3322
  118OSM    C5F12426   3.336   4.995   6.950 -0.5539  0.3805 -0.6787
  118OSM    H5F12427   3.410   5.024   6.873  1.1589 -1.0310  0.3498
  118OSM    H5G12428   3.396   4.927   7.014  1.1674  0.7541 -1.8183
  118OSM    C6F12429   3.306   5.129   7.032 -0.4511  0.4453  0.4721
  118OSM    H6F12430   3.262   5.104   7.131 -2.3300  1.1797 -0.1382
  118OSM    H6G12431   3.233   5.196   6.983 -1.1874 -1.0387 -0.5527
  118OSM    C7F12432   3.434   5.211   7.044  0.5086  0.5912  0.1099
  118OSM    H7F12433   3.416   5.289   7.121  0.8984 -2.2185  3.2874
  118OSM    H7G12434   3.453   5.260   6.947  1.9558  0.8334  0.4958
  118OSM    C8F12435   3.562   5.135   7.088  0.6273  0.0493 -0.1356
  118OSM    H8F12436   3.595   5.052   7.021  2.5417 -0.4814  1.3485
  118OSM    H8G12437   3.543   5.090   7.188  1.5386 -0.5096 -0.1949
  118OSM    C9F12438   3.686   5.226   7.104  0.2750 -0.1012 -0.7108
  118OSM    H9F12439   3.748   5.234   7.013 -0.9068 -0.4054 -1.5747
  118OSM   C10F12440   3.722   5.298   7.215 -0.2414 -0.3513  0.6574
  118OSM   H10F12441   3.807   5.368   7.211  0.1356 -0.8685 -1.1222
  118OSM   C11F12442   3.656   5.299   7.355  0.0515 -0.2675 -0.2290
  118OSM   H11F12443   3.733   5.317   7.433 -0.2008  0.6129 -0.1772
  118OSM   H11G12444   3.613   5.201   7.387 -0.1846 -0.0068  0.2672
  118OSM   C12F12445   3.565   5.421   7.380 -0.0716  0.5115 -0.3923
  118OSM   H12F12446   3.464   5.406   7.336 -0.0336 -1.7069  0.1550
  118OSM   H12G12447   3.600   5.506   7.319 -0.4778  0.0881 -1.2414
  118OSM   C13F12448   3.553   5.454   7.532 -0.9304  0.3062  0.1906
  118OSM   H13F12449   3.486   5.542   7.546 -0.3376  0.5869  1.4880
  118OSM   H13G12450   3.654   5.489   7.563 -1.6353  0.9998  1.8633
  118OSM   C14F12451   3.524   5.345   7.626 -0.1540  0.4600  0.1707
  118OSM   H14F12452   3.581   5.252   7.603 -0.1046 -0.2005  2.7391
  118OSM   H14G12453   3.416   5.319   7.621  0.2191 -1.3332  0.5858
  118OSM   C15F12454   3.555   5.386   7.770 -0.2240  0.0482 -0.7499
  118OSM   H15F12455   3.647   5.449   7.770 -0.7416  0.8514  1.1356
  118OSM   H15G12456   3.578   5.300   7.837  1.3581  0.5662 -0.5808
  118OSM   C16F12457   3.425   5.452   7.834 -0.0735 -0.2807  0.8451
  118OSM   H16F12458   3.334   5.396   7.804 -0.4058  2.0171 -3.1235
  118OSM   H16G12459   3.406   5.552   7.789  0.7788  0.0066  1.1044
  118OSM   C17F12460   3.436   5.472   7.984  0.2360  0.2398  0.6841
  118OSM   H17F12461   3.544   5.484   8.009 -0.0292  0.6692  1.6376
  118OSM   H17G12462   3.407   5.371   8.019  0.2153 -0.3523 -0.9257
  118OSM   C18F12463   3.347   5.581   8.044 -0.1629  0.0555  1.2626
  118OSM   H18F12464   3.398   5.679   8.029 -0.9967  0.2557 -0.5248
  118OSM   H18G12465   3.340   5.566   8.154 -3.1895 -2.8304  0.8195
  118OSM   H18H12466   3.243   5.575   8.007 -0.0912  1.4279  0.7663
  119OSM      N12467   4.028   5.690   5.673 -0.2191  0.1878  0.1257
  119OSM    C1512468   4.052   5.725   5.527  0.5906  0.2139  0.6613
  119OSM   H15A12469   3.969   5.678   5.475  1.7645  0.0617 -1.1539
  119OSM   H15B12470   4.145   5.684   5.491  1.7977  0.6695  3.0704
  119OSM   H15C12471   4.049   5.832   5.509  2.0356  0.1309 -0.1863
  119OSM    C1412472   4.036   5.538   5.685  0.2281 -0.3545  0.4225
  119OSM   H14A12473   4.023   5.508   5.788 -0.5678  0.2912  0.5273
  119OSM   H14B12474   4.127   5.505   5.639 -1.1259 -1.3147 -1.7057
  119OSM   H14C12475   3.955   5.502   5.623  2.2550 -1.2010 -1.8752
  119OSM    C1312476   4.127   5.758   5.762  0.6343  0.3721 -0.2494
  119OSM   H13A12477   4.116   5.726   5.865 -1.8153  0.5785 -0.3766
  119OSM   H13B12478   4.119   5.865   5.753  1.7549  0.6893  1.9237
  119OSM   H13C12479   4.228   5.728   5.738  0.8332 -1.7863  2.6595
  119OSM    C1212480   3.881   5.736   5.705 -0.0769 -0.2373  0.0857
  119OSM   H12A12481   3.807   5.699   5.636  1.2586  0.5246 -1.8595
  119OSM   H12B12482   3.888   5.843   5.699  1.5272 -0.1579  2.0926
  119OSM    C1112483   3.829   5.710   5.852 -0.2572  0.6201 -0.5646
  119OSM   H11A12484   3.784   5.802   5.895  3.2286  2.8806 -1.3242
  119OSM   H11B12485   3.917   5.679   5.912 -0.8389  0.5143  0.2426
  119OSM      P12486   3.752   5.454   5.915  0.2995  0.0197  0.3720
  119OSM    O1312487   3.625   5.379   5.889 -0.0887 -0.3314  0.2229
  119OSM    O1412488   3.884   5.395   5.881 -0.1268 -0.4320 -0.3505
  119OSM    O1112489   3.744   5.499   6.070  0.5429 -0.5068 -0.1497
  119OSM    O1212490   3.734   5.598   5.851 -0.3350 -0.3550  0.1942
  119OSM    C1S12491   3.625   5.578   6.111 -0.0304  0.9290  0.7188
  119OSM    H1S12492   3.536   5.513   6.093  1.3767 -0.9849  0.3931
  119OSM    H1T12493   3.623   5.674   6.056 -0.0239 -0.0267 -0.9961
  119OSM     NF12494   3.497   5.659   6.310  0.1918 -0.2727 -0.3680
  119OSM    HNF12495   3.488   5.758   6.316 -0.0468 -0.3131 -0.0157
  119OSM    C2S12496   3.624   5.610   6.267  0.3978 -0.0857  0.3398
  119OSM    H2S12497   3.635   5.509   6.312 -1.2249  0.6512  2.5693
  119OSM    C3S12498   3.748   5.699   6.300 -0.2693  0.3954  0.4511
  119OSM    H3S12499   3.730   5.793   6.243  2.0417 -0.9761 -2.8719
  119OSM     O312500   3.874   5.641   6.250 -0.0874 -0.3464  0.0641
  119OSM    HO312501   3.849   5.569   6.192 -0.0066 -0.7584  0.5297
  119OSM    C4S12502   3.752   5.725   6.444 -0.3244 -0.3420 -0.3758
  119OSM    H4S12503   3.688   5.813   6.463 -0.3009 -0.1413 -1.1622
  119OSM    C5S12504   3.816   5.666   6.543  0.1817  0.3946  0.3127
  119OSM    H5S12505   3.870   5.572   6.524  0.8507  0.8771 -0.2850
  119OSM    C6S12506   3.796   5.720   6.687 -0.2278  0.0791  0.0672
  119OSM    H6S12507   3.690   5.699   6.713 -0.8348  1.6785 -0.9860
  119OSM    H6T12508   3.812   5.829   6.697 -1.6356  0.4496 -1.2648
  119OSM    C7S12509   3.876   5.655   6.801 -0.5667  0.1542 -0.0779
  119OSM    H7S12510   3.984   5.659   6.775 -0.3760 -1.2266  0.4562
  119OSM    H7T12511   3.845   5.549   6.804 -0.2104  0.0164 -1.0953
  119OSM    C8S12512   3.845   5.708   6.936 -0.6297 -0.9479 -0.4231
  119OSM    H8S12513   3.745   5.669   6.967 -0.8160  1.4390  2.5308
  119OSM    H8T12514   3.837   5.819   6.937  0.4221 -0.8707  0.1390
  119OSM    C9S12515   3.940   5.656   7.048 -0.0867 -0.4771  0.9071
  119OSM    H9S12516   4.035   5.712   7.035 -0.2561 -0.1649  1.0313
  119OSM    H9T12517   3.963   5.552   7.013  1.1965 -0.1908  0.8513
  119OSM   C10S12518   3.869   5.662   7.182  0.6685 -0.5133  0.6462
  119OSM   H10S12519   3.777   5.600   7.181 -0.0261  0.4717 -0.7889
  119OSM   H10T12520   3.845   5.769   7.201 -0.2876 -0.7233  0.6644
  119OSM   C11S12521   3.953   5.608   7.302 -0.2697 -0.1958  0.1974
  119OSM   H11S12522   4.057   5.641   7.280  0.0640 -1.1829  0.2274
  119OSM   H11T12523   3.960   5.497   7.293  1.8894  0.0982 -3.5758
  119OSM   C12S12524   3.908   5.645   7.433 -0.0866 -0.2441 -0.3907
  119OSM   H12S12525   3.804   5.618   7.462 -0.3466  2.0340  1.1281
  119OSM   H12T12526   3.910   5.756   7.435 -2.5215 -0.1593  0.0827
  119OSM   C13S12527   3.993   5.568   7.540 -0.5754 -0.2501  0.4466
  119OSM   H13S12528   4.101   5.569   7.513 -0.0092 -0.7156  2.5140
  119OSM   H13T12529   3.952   5.465   7.534  0.7975 -0.7365 -2.6767
  119OSM   C14S12530   3.978   5.626   7.679  0.5026  0.5197 -0.5629
  119OSM   H14S12531   3.875   5.666   7.685  0.8229  1.7221 -2.2790
  119OSM   H14T12532   4.036   5.721   7.681 -0.2399  0.9895 -0.9420
  119OSM   C15S12533   4.038   5.528   7.782  0.1253 -0.9512 -0.0170
  119OSM   H15S12534   4.149   5.531   7.768 -0.0469 -0.5748 -1.4491
  119OSM   H15T12535   4.009   5.420   7.783 -0.6139 -0.8348 -2.5360
  119OSM   C16S12536   4.009   5.578   7.920  0.8153 -0.3860 -0.7650
  119OSM   H16S12537   3.900   5.583   7.941  0.8101  1.2850 -1.0287
  119OSM   H16T12538   4.046   5.683   7.917  0.1463 -0.0323  1.6714
  119OSM   C17S12539   4.055   5.481   8.035 -0.3082 -0.3698  0.1204
  119OSM   H17S12540   4.161   5.454   8.015  0.6269  1.9101  1.6343
  119OSM   H17T12541   3.988   5.393   8.035 -1.6508  0.5807  2.3225
  119OSM   C18S12542   4.063   5.556   8.167  0.1285  0.3152 -1.0031
  119OSM   H18S12543   4.160   5.540   8.217  0.3836  2.2840 -0.8014
  119OSM   H18T12544   3.972   5.536   8.229 -0.5070  2.9377 -0.9800
  119OSM   H18U12545   4.051   5.664   8.145  0.2520  0.4515 -0.4106
  119OSM    C1F12546   3.394   5.575   6.328 -0.4172 -0.6880  0.4026
  119OSM     OF12547   3.402   5.456   6.302 -0.1144 -0.3688  0.0358
  119OSM    C2F12548   3.267   5.624   6.383 -0.4231 -0.4584  0.4926
  119OSM    H2F12549   3.184   5.599   6.313 -0.0940  0.2947 -0.1707
  119OSM    H2G12550   3.281   5.734   6.375  0.9051 -0.7552 -2.6607
  119OSM    C3F12551   3.245   5.581   6.530  0.1631  0.3913 -0.4870
  119OSM    H3F12552   3.250   5.470   6.528 -0.0325  0.3835 -2.0335
  119OSM    H3G12553   3.143   5.624   6.544  0.5146  1.2634 -0.5731
  119OSM    C4F12554   3.344   5.646   6.630 -0.4487 -0.7920  0.1906
  119OSM    H4F12555   3.366   5.749   6.593 -0.2572 -1.1565 -0.7303
  119OSM    H4G12556   3.445   5.601   6.623  0.3455  0.9191  0.0437
  119OSM    C5F12557   3.285   5.658   6.764 -0.6384 -0.5357 -0.5890
  119OSM    H5F12558   3.242   5.563   6.800 -0.2443 -0.5507 -0.1409
  119OSM    H5G12559   3.205   5.735   6.756 -0.1739  0.1298  0.7262
  119OSM    C6F12560   3.383   5.712   6.867 -0.7022 -0.9924 -0.2411
  119OSM    H6F12561   3.422   5.815   6.849  0.3678 -1.2047  0.7607
  119OSM    H6G12562   3.474   5.649   6.868  1.8353  2.3243 -1.2189
  119OSM    C7F12563   3.329   5.713   7.016 -0.0181 -0.2238 -0.2430
  119OSM    H7F12564   3.274   5.616   7.028  0.8956 -0.7225  0.0144
  119OSM    H7G12565   3.261   5.800   7.023  0.3786  0.0416  0.4241
  119OSM    C8F12566   3.438   5.712   7.127  0.4652 -0.0736 -0.0965
  119OSM    H8F12567   3.521   5.641   7.113 -0.4919 -1.6100  1.5792
  119OSM    H8G12568   3.376   5.686   7.216 -0.5931  2.0997 -0.1175
  119OSM    C9F12569   3.504   5.849   7.133  0.1212 -0.1917  0.2625
  119OSM    H9F12570   3.497   5.903   7.037 -1.1190 -1.0511 -0.1536
  119OSM   C10F12571   3.547   5.903   7.252  0.2274 -0.3255 -0.3507
  119OSM   H10F12572   3.611   5.993   7.259 -0.3130  0.0683 -0.4059
  119OSM   C11F12573   3.538   5.842   7.389  0.1821 -0.3437 -0.3103
  119OSM   H11F12574   3.627   5.777   7.401  0.4486 -0.2075 -1.3861
  119OSM   H11G12575   3.452   5.773   7.401  1.0196 -1.4536 -0.5815
  119OSM   C12F12576   3.557   5.933   7.516  0.3993  0.0620 -0.5885
  119OSM   H12F12577   3.467   5.997   7.517 -0.4443 -1.0660 -1.2316
  119OSM   H12G12578   3.645   6.001   7.516  0.7094 -0.2137  2.0906
  119OSM   C13F12579   3.573   5.851   7.641  0.5058 -0.1093 -0.4729
  119OSM   H13F12580   3.648   5.771   7.628 -1.8519 -2.7108  0.7841
  119OSM   H13G12581   3.480   5.805   7.682  0.1543  1.3154  0.4289
  119OSM   C14F12582   3.618   5.940   7.758 -0.0695 -0.0025  0.8952
  119OSM   H14F12583   3.548   6.024   7.777  0.5877  1.3451 -2.0328
  119OSM   H14G12584   3.712   5.990   7.725 -1.6508  0.4567 -3.5910
  119OSM   C15F12585   3.635   5.859   7.887 -0.1497 -0.4487 -0.4202
  119OSM   H15F12586   3.700   5.770   7.871 -1.1704 -1.2645 -0.1469
  119OSM   H15G12587   3.542   5.810   7.923  0.5025  1.0303  3.9448
  119OSM   C16F12588   3.694   5.937   8.006 -0.0220 -0.1708 -0.5151
  119OSM   H16F12589   3.643   6.036   8.014  1.2215  0.4215  0.4847
  119OSM   H16G12590   3.797   5.969   7.979  0.1026  0.1752  0.3416
  119OSM   C17F12591   3.680   5.854   8.134 -0.1262 -0.1191 -0.3681
  119OSM   H17F12592   3.694   5.746   8.111 -0.9842  0.0662 -1.8641
  119OSM   H17G12593   3.572   5.867   8.155 -0.0866 -2.2387  1.5266
  119OSM   C18F12594   3.752   5.906   8.263  0.2259 -0.4336  0.3575
  119OSM   H18F12595   3.698   5.871   8.354  0.8744 -1.2099  0.4541
  119OSM   H18G12596   3.749   6.017   8.264 -1.3264 -0.4529  1.3204
  119OSM   H18H12597   3.858   5.873   8.259 -0.1514 -1.6327 -0.1960
  120OSM      N12598   0.778   2.192   6.212  0.6681  0.1765 -0.0253
  120OSM    C1512599   0.902   2.218   6.136 -0.6121 -0.2019 -0.0335
  120OSM   H15A12600   0.910   2.150   6.053 -1.3346  0.4542 -0.6659
  120OSM   H15B12601   0.996   2.215   6.188 -0.3336 -0.5225 -0.5607
  120OSM   H15C12602   0.883   2.317   6.097 -3.7287  0.0584  1.8127
  120OSM    C1412603   0.758   2.300   6.310 -0.2136  0.4153  0.6494
  120OSM   H14A12604   0.755   2.397   6.261 -2.8757  0.1959  0.2256
  120OSM   H14B12605   0.829   2.303   6.391  1.5441  0.3104 -0.8239
  120OSM   H14C12606   0.663   2.285   6.358 -0.2822 -1.7729 -0.0508
  120OSM    C1312607   0.660   2.203   6.120 -0.3367 -0.3616  0.3739
  120OSM   H13A12608   0.568   2.174   6.168 -1.5000  1.0466 -0.9080
  120OSM   H13B12609   0.683   2.140   6.035  0.3251 -1.0893  1.0716
  120OSM   H13C12610   0.653   2.298   6.069 -1.9622 -0.1193  0.9824
  120OSM    C1212611   0.788   2.048   6.263 -0.8125  0.2423 -0.0226
  120OSM   H12A12612   0.881   2.026   6.313 -1.1524 -2.0492 -0.2682
  120OSM   H12B12613   0.792   1.986   6.175  0.2918 -0.5247  0.5451
  120OSM    C1112614   0.678   1.995   6.352  0.4042  0.9285  0.1417
  120OSM   H11A12615   0.658   2.077   6.425 -0.6553  1.4891 -0.7526
  120OSM   H11B12616   0.702   1.896   6.395 -0.1965  0.7562  0.0942
  120OSM      P12617   0.447   1.875   6.312 -0.0496  0.2809 -0.0893
  120OSM    O1312618   0.352   1.880   6.205  0.8142  0.7232  0.4435
  120OSM    O1412619   0.502   1.747   6.348 -0.8872  0.2198 -0.5550
  120OSM    O1112620   0.381   1.942   6.445 -0.4499  0.1242 -0.5137
  120OSM    O1212621   0.562   1.978   6.271  0.0088  0.5458 -0.3510
  120OSM    C1S12622   0.452   1.966   6.568  0.4612  1.3824  0.2651
  120OSM    H1S12623   0.481   2.073   6.557  0.4074  1.2954 -0.8386
  120OSM    H1T12624   0.541   1.900   6.580 -1.1341 -0.5356  2.2787
  120OSM     NF12625   0.449   1.963   6.822 -0.2375  0.2643  0.4261
  120OSM    HNF12626   0.471   1.877   6.868  0.8587  0.6184  0.6068
  120OSM    C2S12627   0.367   1.943   6.704 -0.2600  0.0513  0.2433
  120OSM    H2S12628   0.283   2.016   6.704  1.3229  1.9802 -0.3559
  120OSM    C3S12629   0.303   1.798   6.692  0.5754  0.2984 -0.4837
  120OSM    H3S12630   0.388   1.728   6.706 -0.8165 -1.3406  0.2138
  120OSM     O312631   0.227   1.769   6.571  0.1008  0.5326 -0.0406
  120OSM    HO312632   0.254   1.835   6.507  1.5397 -0.1607 -0.1718
  120OSM    C4S12633   0.210   1.774   6.807 -0.5262 -0.4901 -0.4245
  120OSM    H4S12634   0.117   1.831   6.799 -0.8821 -0.8232  1.0659
  120OSM    C5S12635   0.227   1.687   6.912  0.3567 -0.1042  0.2767
  120OSM    H5S12636   0.311   1.617   6.921 -0.5404 -1.2400  0.0464
  120OSM    C6S12637   0.118   1.665   7.016  1.0287 -0.0171  0.1569
  120OSM    H6S12638   0.109   1.554   7.015  1.0533 -0.0328  0.9297
  120OSM    H6T12639   0.023   1.719   6.997  0.8005 -0.2395  0.6648
  120OSM    C7S12640   0.171   1.699   7.158  0.1135  0.6756  0.2942
  120OSM    H7S12641   0.267   1.645   7.171 -0.9162 -1.2976  0.1995
  120OSM    H7T12642   0.097   1.660   7.232 -1.0563  2.2519  0.0023
  120OSM    C8S12643   0.175   1.853   7.184  0.0617 -0.1419 -0.1715
  120OSM    H8S12644   0.068   1.883   7.195 -0.7025 -2.4232 -0.7757
  120OSM    H8T12645   0.217   1.907   7.097 -1.0173  0.5409 -0.2894
  120OSM    C9S12646   0.253   1.889   7.311  0.1760  0.4857 -0.7296
  120OSM    H9S12647   0.307   1.984   7.291 -0.9738  1.6482  1.3787
  120OSM    H9T12648   0.326   1.812   7.345 -0.7181  0.0729  0.3096
  120OSM   C10S12649   0.159   1.919   7.429 -0.3310  0.5734 -0.6939
  120OSM   H10S12650   0.102   1.833   7.471  0.6742  0.0486 -0.3752
  120OSM   H10T12651   0.085   1.997   7.401 -0.2832  0.8460 -0.0743
  120OSM   C11S12652   0.238   1.974   7.547 -0.4090 -0.3446  0.2024
  120OSM   H11S12653   0.285   2.069   7.514 -1.7239 -0.1833 -1.3239
  120OSM   H11T12654   0.317   1.899   7.570 -0.2532 -0.7196 -1.4408
  120OSM   C12S12655   0.149   1.991   7.667 -0.3760 -0.5204 -0.4611
  120OSM   H12S12656   0.105   1.893   7.696  0.2586 -1.3383 -2.1707
  120OSM   H12T12657   0.070   2.067   7.650  0.4917  1.1348  2.2167
  120OSM   C13S12658   0.223   2.042   7.790 -0.1114  0.2014 -0.1555
  120OSM   H13S12659   0.255   2.147   7.778  0.7970 -0.1973 -1.5194
  120OSM   H13T12660   0.310   1.975   7.807 -1.3056 -2.1032 -2.4677
  120OSM   C14S12661   0.140   2.028   7.918 -0.1215 -0.4827 -0.1398
  120OSM   H14S12662   0.222   2.017   7.993  0.4768  0.7791 -0.5900
  120OSM   H14T12663   0.068   1.943   7.921 -0.9646  0.2237  0.1837
  120OSM   C15S12664   0.047   2.158   7.941 -0.5986  0.3136 -0.0032
  120OSM   H15S12665  -0.016   2.185   7.854  0.2074  0.4098 -0.5713
  120OSM   H15T12666   0.117   2.244   7.937 -1.1684  0.7530 -0.9134
  120OSM   C16S12667  -0.029   2.151   8.066  0.1273 -1.1227  0.1421
  120OSM   H16S12668  -0.083   2.055   8.052  0.2414 -0.8895 -2.2425
  120OSM   H16T12669  -0.099   2.237   8.076  2.0933  0.5603  0.1241
  120OSM   C17S12670   0.060   2.155   8.194 -0.4327  0.2366 -0.2624
  120OSM   H17S12671   0.134   2.239   8.190 -2.1287  1.8174  0.3717
  120OSM   H17T12672   0.127   2.066   8.194  1.8052  1.8078 -0.8564
  120OSM   C18S12673  -0.007   2.159   8.330 -0.4157  0.5230 -0.5082
  120OSM   H18S12674  -0.024   2.264   8.360  2.8905 -0.0121  4.5804
  120OSM   H18T12675   0.067   2.130   8.408  0.5331  1.6392 -0.9675
  120OSM   H18U12676  -0.101   2.102   8.347 -0.7207  1.8554  3.5391
  120OSM    C1F12677   0.499   2.081   6.861  0.0173  0.0325 -1.0409
  120OSM     OF12678   0.469   2.179   6.803  0.3895 -0.3252  0.0405
  120OSM    C2F12679   0.601   2.085   6.973 -0.1512  0.1468 -0.4701
  120OSM    H2F12680   0.691   2.021   6.962  0.9685  1.6881 -0.5437
  120OSM    H2G12681   0.545   2.049   7.062  0.1105  1.0324  0.0640
  120OSM    C3F12682   0.645   2.230   6.995 -0.0227 -0.2913  0.6231
  120OSM    H3F12683   0.557   2.295   7.013 -0.4025  0.0532 -2.0637
  120OSM    H3G12684   0.706   2.255   6.906  1.1184 -1.6072  0.9920
  120OSM    C4F12685   0.731   2.246   7.126  0.3764  0.2924  0.1652
  120OSM    H4F12686   0.799   2.333   7.121  0.6479  0.2267  2.0168
  120OSM    H4G12687   0.804   2.162   7.132  2.1961  1.8509  0.7062
  120OSM    C5F12688   0.642   2.255   7.260  0.1397 -0.0107 -0.3394
  120OSM    H5F12689   0.604   2.152   7.279 -0.5604  0.7165  2.6799
  120OSM    H5G12690   0.558   2.321   7.230  0.7615 -0.6578 -3.9986
  120OSM    C6F12691   0.714   2.304   7.388 -0.5444 -0.2735 -0.0986
  120OSM    H6F12692   0.648   2.338   7.470  1.2703  1.8368  0.5761
  120OSM    H6G12693   0.786   2.384   7.360  0.0867 -1.1139 -0.9200
  120OSM    C7F12694   0.807   2.188   7.450  0.3627  0.0972 -0.8348
  120OSM    H7F12695   0.783   2.099   7.388 -0.2015  0.3922 -1.0455
  120OSM    H7G12696   0.787   2.163   7.556  2.1196 -0.1587 -0.5361
  120OSM    C8F12697   0.955   2.212   7.428  0.4489 -0.0325 -0.2540
  120OSM    H8F12698   0.959   2.238   7.320 -0.5864 -0.8364 -0.4988
  120OSM    H8G12699   1.015   2.119   7.441  1.2756  0.4909 -0.2322
  120OSM    C9F12700   1.010   2.316   7.524 -0.6313 -0.1472 -0.0196
  120OSM    H9F12701   1.018   2.417   7.482  1.0277  0.1965  1.0248
  120OSM   C10F12702   1.059   2.289   7.647  0.3733 -0.1968  0.0273
  120OSM   H10F12703   1.072   2.369   7.722  1.0484 -0.8461  0.6292
  120OSM   C11F12704   1.060   2.152   7.701 -0.4964 -0.7541 -0.8329
  120OSM   H11F12705   1.141   2.087   7.660 -0.3145 -1.5977  0.8100
  120OSM   H11G12706   0.958   2.108   7.689 -0.3400 -1.8349  1.3613
  120OSM   C12F12707   1.099   2.141   7.856 -0.4469 -0.1873 -0.4970
  120OSM   H12F12708   1.090   2.033   7.879  1.7614 -0.3198 -0.1223
  120OSM   H12G12709   1.037   2.202   7.925  0.0073  1.8405 -1.7902
  120OSM   C13F12710   1.245   2.172   7.886  0.9657  0.4782  0.1979
  120OSM   H13F12711   1.264   2.276   7.853  0.5921  0.7992  0.9795
  120OSM   H13G12712   1.312   2.110   7.822 -1.6582 -2.4856  0.0535
  120OSM   C14F12713   1.278   2.152   8.033  0.0935 -0.4832 -0.3797
  120OSM   H14F12714   1.215   2.211   8.103  0.6503 -1.4524  0.9876
  120OSM   H14G12715   1.385   2.179   8.046  0.2519 -1.1557 -0.2428
  120OSM   C15F12716   1.279   2.003   8.062 -0.2367  0.4238 -0.2848
  120OSM   H15F12717   1.342   1.944   7.993 -1.3574 -2.0831  0.6944
  120OSM   H15G12718   1.176   1.961   8.069 -1.2939  2.8846  0.1417
  120OSM   C16F12719   1.342   1.961   8.201 -0.1170  0.0400 -0.0297
  120OSM   H16F12720   1.285   2.013   8.280 -1.6786 -0.4715 -0.7828
  120OSM   H16G12721   1.440   2.013   8.201  0.0799 -0.3257 -0.0988
  120OSM   C17F12722   1.373   1.813   8.226  0.4565 -0.3559 -0.4654
  120OSM   H17F12723   1.419   1.796   8.326 -1.5411 -1.7425  0.2812
  120OSM   H17G12724   1.439   1.779   8.143  0.1584 -0.1492 -0.7831
  120OSM   C18F12725   1.252   1.714   8.223 -0.5641  0.7581  0.0204
  120OSM   H18F12726   1.196   1.707   8.127  1.2517 -0.4808 -1.0174
  120OSM   H18G12727   1.174   1.750   8.293 -2.0583  1.4728 -1.9183
  120OSM   H18H12728   1.278   1.608   8.244 -3.8676 -0.4412 -1.1436
  121OSM      N12729   2.641   5.682   5.791 -0.4046  0.3721  0.5891
  121OSM    C1512730   2.689   5.811   5.851 -0.7678 -0.1446 -0.2420
  121OSM   H15A12731   2.692   5.800   5.959 -1.7184  1.8980  0.0460
  121OSM   H15B12732   2.619   5.888   5.820 -1.1386  0.3186  1.6069
  121OSM   H15C12733   2.790   5.842   5.830 -0.2903 -1.4286  0.0521
  121OSM    C1412734   2.495   5.665   5.816  0.1080  0.4016 -0.4395
  121OSM   H14A12735   2.475   5.676   5.922 -2.9264 -0.7776 -0.7966
  121OSM   H14B12736   2.465   5.569   5.778  1.9285 -0.4959  0.2555
  121OSM   H14C12737   2.439   5.748   5.774  1.2998  1.3856 -0.1521
  121OSM    C1312738   2.667   5.686   5.640 -0.0722 -0.3704  0.0235
  121OSM   H13A12739   2.605   5.612   5.591 -1.3769  1.8276 -1.7942
  121OSM   H13B12740   2.767   5.673   5.602  0.0718  2.7821 -0.9013
  121OSM   H13C12741   2.641   5.780   5.594  3.3528  0.3599 -0.6743
  121OSM    C1212742   2.713   5.567   5.854  0.7331 -0.1429 -0.4882
  121OSM   H12A12743   2.814   5.564   5.817  1.1317 -1.2903  0.6202
  121OSM   H12B12744   2.662   5.479   5.816  3.0815 -2.1070  0.6619
  121OSM    C1112745   2.720   5.549   6.008 -0.0817  0.0685  0.1520
  121OSM   H11A12746   2.753   5.443   6.018  1.7747  0.5202 -0.8160
  121OSM   H11B12747   2.617   5.554   6.050  0.1394  1.6124  0.5587
  121OSM      P12748   2.950   5.618   6.070 -0.6679 -0.5729 -0.4828
  121OSM    O1312749   2.990   5.550   5.947 -0.2884 -0.3019 -0.6337
  121OSM    O1412750   3.027   5.734   6.119 -0.9077 -0.4171 -0.0226
  121OSM    O1112751   2.947   5.512   6.188 -0.1984 -0.5589 -0.3474
  121OSM    O1212752   2.802   5.654   6.057  0.0352 -0.0707 -0.2099
  121OSM    C1S12753   2.922   5.565   6.322 -0.5155 -0.3996 -0.2506
  121OSM    H1S12754   2.949   5.671   6.345 -1.3130 -0.4878  1.1881
  121OSM    H1T12755   2.982   5.506   6.394 -0.5969 -0.8420 -0.5405
  121OSM     NF12756   2.760   5.575   6.508 -0.5484 -0.2370 -0.7818
  121OSM    HNF12757   2.757   5.502   6.576  0.7854 -0.1876 -0.6551
  121OSM    C2S12758   2.780   5.540   6.374  0.1155  0.7692 -0.0122
  121OSM    H2S12759   2.709   5.601   6.315 -1.9772  1.1770  2.7582
  121OSM    C3S12760   2.734   5.389   6.354 -0.0942  0.0287  0.0365
  121OSM    H3S12761   2.789   5.323   6.425  1.1668 -0.5329 -1.4198
  121OSM     O312762   2.772   5.331   6.233 -0.1646 -0.3321  0.8094
  121OSM    HO312763   2.827   5.403   6.201 -1.0749  0.3137  0.6508
  121OSM    C4S12764   2.587   5.366   6.362 -0.1098 -0.1192  0.2819
  121OSM    H4S12765   2.526   5.456   6.342 -1.2638 -0.7712  0.7961
  121OSM    C5S12766   2.524   5.252   6.416  0.0744  0.6995 -0.6275
  121OSM    H5S12767   2.587   5.169   6.450 -0.7032 -0.0191 -0.9164
  121OSM    C6S12768   2.380   5.219   6.430 -0.1341 -0.1810  0.0462
  121OSM    H6S12769   2.369   5.115   6.392 -0.7415 -0.2427  0.3715
  121OSM    H6T12770   2.309   5.276   6.366 -0.9211 -0.1503  0.9160
  121OSM    C7S12771   2.323   5.235   6.572 -0.1659 -0.0226  0.5527
  121OSM    H7S12772   2.212   5.235   6.573 -0.1817 -1.6653  1.5005
  121OSM    H7T12773   2.354   5.336   6.606 -1.4076 -0.7226  4.2002
  121OSM    C8S12774   2.374   5.136   6.677  0.2792  0.0390  0.5383
  121OSM    H8S12775   2.484   5.150   6.672  0.2490  0.1297  0.1154
  121OSM    H8T12776   2.345   5.034   6.643  2.6477 -0.3900 -0.3806
  121OSM    C9S12777   2.317   5.167   6.814 -0.5342 -0.3372  0.1232
  121OSM    H9S12778   2.207   5.173   6.808 -0.5356  2.3147  1.5222
  121OSM    H9T12779   2.354   5.268   6.839  1.2435 -1.1484  0.9742
  121OSM   C10S12780   2.365   5.068   6.925 -0.1426 -0.0634  0.1750
  121OSM   H10S12781   2.476   5.077   6.929 -0.1226 -0.6472  1.1043
  121OSM   H10T12782   2.331   4.963   6.913 -0.8557  0.1232  0.5213
  121OSM   C11S12783   2.304   5.106   7.060  0.6694  0.2926  0.0032
  121OSM   H11S12784   2.194   5.099   7.051  0.7414 -0.2348 -0.5650
  121OSM   H11T12785   2.301   5.216   7.076  0.3475  0.1664  0.8532
  121OSM   C12S12786   2.355   5.047   7.193 -0.1139 -0.5564  0.5421
  121OSM   H12S12787   2.461   5.076   7.208  1.4366 -5.0003 -0.2679
  121OSM   H12T12788   2.354   4.936   7.195  1.9888 -0.6174  0.2180
  121OSM   C13S12789   2.278   5.114   7.304 -0.4164 -0.3016 -0.1982
  121OSM   H13S12790   2.172   5.084   7.292 -0.0583 -1.5011 -0.4534
  121OSM   H13T12791   2.294   5.223   7.295 -0.1588 -0.4046 -1.0651
  121OSM   C14S12792   2.327   5.071   7.441 -0.4249 -0.7152 -0.0718
  121OSM   H14S12793   2.436   5.092   7.453 -0.8930  1.7798  0.1829
  121OSM   H14T12794   2.312   4.962   7.460  1.5223 -0.8413  0.9671
  121OSM   C15S12795   2.260   5.147   7.550 -0.2758 -1.0103 -0.0712
  121OSM   H15S12796   2.156   5.109   7.544 -0.2779 -1.5105  2.2300
  121OSM   H15T12797   2.258   5.255   7.526 -0.4337 -1.2453 -1.1794
  121OSM   C16S12798   2.324   5.114   7.688  0.5974  0.2103  0.1460
  121OSM   H16S12799   2.434   5.131   7.679  0.3613  1.5609 -0.3463
  121OSM   H16T12800   2.311   5.004   7.702  0.7508  0.2530  0.6136
  121OSM   C17S12801   2.269   5.190   7.806 -0.1116 -0.1407 -0.2840
  121OSM   H17S12802   2.158   5.197   7.808 -0.1192 -0.3432  0.6899
  121OSM   H17T12803   2.319   5.288   7.791  2.2310 -0.4676  3.8864
  121OSM   C18S12804   2.318   5.132   7.937 -0.3052 -0.5730 -0.4311
  121OSM   H18S12805   2.288   5.197   8.022 -0.1712 -1.6089  0.4350
  121OSM   H18T12806   2.429   5.131   7.937 -0.0680  3.0758  2.0356
  121OSM   H18U12807   2.276   5.032   7.959 -2.7863  0.6926  1.0626
  121OSM    C1F12808   2.766   5.702   6.549  0.0952  0.0827  0.2368
  121OSM     OF12809   2.765   5.790   6.464 -0.7083 -0.3188 -0.5674
  121OSM    C2F12810   2.793   5.735   6.694  0.2212 -0.1553  0.4045
  121OSM    H2F12811   2.864   5.658   6.732 -0.1416 -1.3885 -1.3348
  121OSM    H2G12812   2.695   5.735   6.747  1.0089  0.5131  1.9463
  121OSM    C3F12813   2.869   5.869   6.715 -0.5177 -0.3300  0.0320
  121OSM    H3F12814   2.819   5.954   6.666 -0.5766  1.2867  2.7043
  121OSM    H3G12815   2.971   5.855   6.672 -0.7636 -0.5149 -0.4914
  121OSM    C4F12816   2.878   5.902   6.866  0.2737 -0.1623 -0.9247
  121OSM    H4F12817   2.773   5.927   6.895  0.4461 -2.1748  1.8405
  121OSM    H4G12818   2.932   5.998   6.875 -1.3878  0.6509  1.1029
  121OSM    C5F12819   2.928   5.800   6.961  0.5766  0.1640  0.3437
  121OSM    H5F12820   3.035   5.786   6.935  0.3625 -0.0742 -0.4252
  121OSM    H5G12821   2.867   5.709   6.942 -1.1030  1.6114 -1.6250
  121OSM    C6F12822   2.914   5.841   7.105  0.3033  0.0848  0.3721
  121OSM    H6F12823   2.804   5.830   7.116  0.6378 -3.0379  1.5982
  121OSM    H6G12824   2.947   5.946   7.121  2.1228 -0.2117 -1.1243
  121OSM    C7F12825   2.988   5.743   7.203  0.3618  0.0667  0.2848
  121OSM    H7F12826   3.099   5.756   7.203  0.4731 -0.8270  0.9398
  121OSM    H7G12827   2.972   5.637   7.174  0.7479 -0.3105  1.4101
  121OSM    C8F12828   2.928   5.757   7.349 -0.0064 -0.0619  0.2456
  121OSM    H8F12829   2.987   5.678   7.401 -1.3477 -1.2483  0.0081
  121OSM    H8G12830   2.823   5.721   7.344  0.9648 -3.0600 -2.5812
  121OSM    C9F12831   2.951   5.894   7.413  1.0078  1.0262  0.3902
  121OSM    H9F12832   2.892   5.975   7.369  1.0923  2.2268  2.3582
  121OSM   C10F12833   3.029   5.924   7.518 -0.5766 -0.2435 -0.6340
  121OSM   H10F12834   3.040   6.031   7.542  2.0365 -0.3334 -1.1138
  121OSM   C11F12835   3.116   5.830   7.588  0.1930  0.8699  0.8445
  121OSM   H11F12836   3.217   5.873   7.572 -0.3209  1.7769 -0.0538
  121OSM   H11G12837   3.142   5.735   7.535 -0.5926 -0.1334  2.2001
  121OSM   C12F12838   3.097   5.791   7.739  0.2296 -0.1471  0.2214
  121OSM   H12F12839   3.193   5.754   7.781  1.3960  2.0690 -0.3178
  121OSM   H12G12840   3.025   5.706   7.743  1.7267 -1.5964 -1.3682
  121OSM   C13F12841   3.045   5.906   7.821 -0.0379  0.1879 -0.1098
  121OSM   H13F12842   2.944   5.943   7.793 -0.3409  0.7685  1.6341
  121OSM   H13G12843   3.110   5.995   7.806  0.4222  0.0313  0.8874
  121OSM   C14F12844   3.034   5.881   7.977  0.2999 -0.1732 -0.9561
  121OSM   H14F12845   3.126   5.845   8.027 -1.4861 -0.2287  2.5847
  121OSM   H14G12846   2.954   5.805   7.991  0.4538 -0.0368  0.9601
  121OSM   C15F12847   2.994   6.014   8.059  0.8430  0.6322  0.7242
  121OSM   H15F12848   3.090   6.070   8.067  1.2988 -0.1801  1.0624
  121OSM   H15G12849   2.965   5.982   8.161  0.9815  3.1461  1.6103
  121OSM   C16F12850   2.888   6.105   7.999  0.4985 -0.3539 -0.0163
  121OSM   H16F12851   2.796   6.046   7.981 -0.8269  1.0818  1.7145
  121OSM   H16G12852   2.918   6.146   7.900  2.1175  1.6340  1.2370
  121OSM   C17F12853   2.827   6.218   8.094 -0.4968 -0.2982 -0.3796
  121OSM   H17F12854   2.773   6.163   8.174 -4.1950  2.6336 -0.5934
  121OSM   H17G12855   2.744   6.262   8.035 -0.9404 -1.0223 -0.3078
  121OSM   C18F12856   2.917   6.325   8.159  0.3627  0.7989  0.7513
  121OSM   H18F12857   2.860   6.405   8.209 -0.4796  2.1298 -2.1594
  121OSM   H18G12858   2.983   6.381   8.090  1.3288  1.4377  2.1440
  121OSM   H18H12859   2.985   6.266   8.226  1.0480 -1.0317 -1.4318
  122OSM      N12860   2.015   5.761   5.711 -0.4050  0.1666 -0.8581
  122OSM    C1512861   1.946   5.658   5.792 -0.3269  1.2652  0.1123
  122OSM   H15A12862   1.936   5.692   5.894  1.5757 -2.3756  1.7154
  122OSM   H15B12863   2.011   5.574   5.813  1.0037  2.1389 -0.3980
  122OSM   H15C12864   1.855   5.625   5.746 -1.5268  4.1860  0.2343
  122OSM    C1412865   2.046   5.689   5.583  0.0689 -0.6251  0.7878
  122OSM   H14A12866   2.111   5.603   5.597  2.0089  0.4311 -1.1931
  122OSM   H14B12867   2.075   5.763   5.510 -0.8195 -1.3825 -0.3679
  122OSM   H14C12868   1.956   5.648   5.540  0.1542 -1.2909  1.2260
  122OSM    C1312869   1.916   5.866   5.698 -0.0109  0.3491  0.2104
  122OSM   H13A12870   1.856   5.896   5.782 -1.1866  2.3127 -1.2455
  122OSM   H13B12871   1.850   5.831   5.619 -0.4890 -1.0136  1.1764
  122OSM   H13C12872   1.954   5.962   5.667  1.2661  0.6158  2.4091
  122OSM    C1212873   2.145   5.808   5.779  0.3813 -0.1944 -0.7702
  122OSM   H12A12874   2.199   5.735   5.837 -0.0971 -0.6797 -0.9326
  122OSM   H12B12875   2.113   5.879   5.854 -1.0165 -0.9073 -0.6599
  122OSM    C1112876   2.244   5.891   5.694 -0.5567  0.6534  0.1795
  122OSM   H11A12877   2.203   5.984   5.649 -0.5090  1.6168  2.0401
  122OSM   H11B12878   2.279   5.827   5.611  1.1745  0.4203  1.0516
  122OSM      P12879   2.368   6.047   5.863 -0.0441 -0.1622 -0.1229
  122OSM    O1312880   2.504   6.095   5.848  0.0564  0.3909  0.2331
  122OSM    O1412881   2.257   6.143   5.846 -0.3712 -0.4194  0.0147
  122OSM    O1112882   2.350   5.990   6.019 -0.0435 -0.2030 -0.1347
  122OSM    O1212883   2.349   5.918   5.781  0.4252  0.5819  0.2900
  122OSM    C1S12884   2.465   5.990   6.105  0.4812 -0.9367 -0.2743
  122OSM    H1S12885   2.507   6.091   6.126  2.6031 -1.8034 -0.0960
  122OSM    H1T12886   2.552   5.944   6.052  1.3115  3.4399 -3.2787
  122OSM     NF12887   2.536   5.969   6.344 -0.3137 -0.3613  0.4086
  122OSM    HNF12888   2.597   5.908   6.392 -1.5466 -2.5725 -0.6782
  122OSM    C2S12889   2.442   5.920   6.243  0.5385 -0.5121 -0.3995
  122OSM    H2S12890   2.341   5.953   6.276 -0.1347  1.0239 -3.5856
  122OSM    C3S12891   2.435   5.772   6.227 -0.2120 -0.4748 -0.3549
  122OSM    H3S12892   2.536   5.739   6.195 -0.0826  0.4902 -0.9742
  122OSM     O312893   2.336   5.734   6.129 -0.1971 -0.4992  0.3161
  122OSM    HO312894   2.297   5.815   6.094  1.1988 -0.2745 -0.7865
  122OSM    C4S12895   2.414   5.716   6.364 -0.3380  0.1266 -0.1514
  122OSM    H4S12896   2.510   5.706   6.418 -0.2124  0.5834 -0.2883
  122OSM    C5S12897   2.299   5.691   6.426 -0.6013 -0.1158 -0.6274
  122OSM    H5S12898   2.205   5.717   6.375  0.2950  3.5491 -0.7059
  122OSM    C6S12899   2.282   5.632   6.562  0.3469  0.1026  0.1854
  122OSM    H6S12900   2.240   5.530   6.546  0.3488 -0.0425  1.0789
  122OSM    H6T12901   2.209   5.697   6.614  1.5722  1.9589 -0.3468
  122OSM    C7S12902   2.410   5.620   6.648 -0.5137 -0.6340  0.5007
  122OSM    H7S12903   2.455   5.721   6.639 -0.9106 -0.4874  0.1001
  122OSM    H7T12904   2.475   5.550   6.591 -0.4788  1.6874 -2.5163
  122OSM    C8S12905   2.376   5.584   6.787 -0.9107  0.4091 -0.3891
  122OSM    H8S12906   2.361   5.474   6.787 -0.2952  0.2446 -3.6936
  122OSM    H8T12907   2.288   5.645   6.816  0.7326  1.5498  2.6845
  122OSM    C9S12908   2.486   5.607   6.899  0.0087 -0.8134  0.1323
  122OSM    H9S12909   2.519   5.712   6.915  1.3952 -1.2196  0.0816
  122OSM    H9T12910   2.578   5.560   6.857 -0.2092 -1.4145  0.3173
  122OSM   C10S12911   2.437   5.562   7.034 -0.7944 -0.3077  0.4257
  122OSM   H10S12912   2.420   5.452   7.025  0.7517 -0.4123 -2.2745
  122OSM   H10T12913   2.335   5.605   7.037 -0.3518  0.9500 -1.2806
  122OSM   C11S12914   2.516   5.603   7.158  0.0606 -0.1798  0.4790
  122OSM   H11S12915   2.523   5.712   7.177 -1.3349 -0.2556  1.6316
  122OSM   H11T12916   2.615   5.553   7.143 -0.0456  0.4643 -3.7445
  122OSM   C12S12917   2.447   5.533   7.284 -0.2796  0.7564  0.2716
  122OSM   H12S12918   2.436   5.425   7.261  0.0517  0.3033  2.0398
  122OSM   H12T12919   2.342   5.568   7.289 -0.7038 -0.6192  2.3946
  122OSM   C13S12920   2.517   5.559   7.414 -0.0947  0.3699 -0.4876
  122OSM   H13S12921   2.533   5.668   7.429  0.0520 -0.0034  2.7593
  122OSM   H13T12922   2.615   5.507   7.413  0.4594  1.3294  0.9160
  122OSM   C14S12923   2.445   5.502   7.535 -0.1744 -0.4966 -0.4817
  122OSM   H14S12924   2.434   5.395   7.506 -2.2423  0.1438 -2.2635
  122OSM   H14T12925   2.339   5.533   7.547  0.0701 -0.3050  1.5267
  122OSM   C15S12926   2.526   5.519   7.668  0.5667  0.1234 -0.1307
  122OSM   H15S12927   2.624   5.466   7.663  1.7863  2.1329  1.2693
  122OSM   H15T12928   2.484   5.451   7.745  0.4342 -3.7045 -3.2087
  122OSM   C16S12929   2.573   5.657   7.708  0.2511 -0.2452 -0.3737
  122OSM   H16S12930   2.504   5.736   7.670 -0.9395 -0.8835  0.3942
  122OSM   H16T12931   2.671   5.684   7.663  0.2085  1.1817  0.3377
  122OSM   C17S12932   2.606   5.676   7.857  0.8190  0.5563  0.0765
  122OSM   H17S12933   2.679   5.605   7.900  1.7177  2.5646  2.0439
  122OSM   H17T12934   2.511   5.665   7.914  1.0420  0.7617  0.4949
  122OSM   C18S12935   2.662   5.811   7.868 -0.2626  0.2901  0.2718
  122OSM   H18S12936   2.589   5.888   7.836  0.8768  0.1488 -2.9307
  122OSM   H18T12937   2.745   5.827   7.796 -1.1913  0.3563 -0.8126
  122OSM   H18U12938   2.689   5.836   7.973 -0.0916 -0.7658  0.4896
  122OSM    C1F12939   2.547   6.100   6.382 -0.6030 -0.5929  0.2776
  122OSM     OF12940   2.473   6.188   6.338  0.4093  0.1094 -0.4343
  122OSM    C2F12941   2.651   6.132   6.486 -0.0917  0.7004  0.5414
  122OSM    H2F12942   2.749   6.136   6.433 -0.8286 -1.4184 -1.0738
  122OSM    H2G12943   2.660   6.043   6.552 -0.5017 -0.1033 -0.4646
  122OSM    C3F12944   2.624   6.249   6.578 -0.1205  0.0878  0.1975
  122OSM    H3F12945   2.537   6.224   6.643  0.0723 -3.9814 -0.8045
  122OSM    H3G12946   2.598   6.349   6.537 -2.8907  0.2523  2.0174
  122OSM    C4F12947   2.738   6.261   6.691  0.0066 -0.3788 -0.0008
  122OSM    H4F12948   2.836   6.289   6.647  1.3328  1.1559  3.5600
  122OSM    H4G12949   2.759   6.168   6.749  2.1738  1.8085  3.0734
  122OSM    C5F12950   2.708   6.378   6.782 -0.4640  0.5133  0.2120
  122OSM    H5F12951   2.612   6.353   6.832 -0.5867 -1.1625 -0.7658
  122OSM    H5G12952   2.697   6.466   6.715  0.1249 -1.0331 -2.0684
  122OSM    C6F12953   2.812   6.405   6.888 -0.2545 -0.0009  0.1231
  122OSM    H6F12954   2.914   6.404   6.843 -1.2585 -0.2886 -2.3078
  122OSM    H6G12955   2.813   6.334   6.974  2.9352 -2.7263 -1.9291
  122OSM    C7F12956   2.799   6.554   6.935  0.0206  0.4558 -0.2452
  122OSM    H7F12957   2.702   6.571   6.987  0.6571  0.0042  1.1197
  122OSM    H7G12958   2.803   6.615   6.842  0.2441 -0.3935 -0.7995
  122OSM    C8F12959   2.921   6.603   7.016  0.2954 -0.6136  0.1180
  122OSM    H8F12960   2.924   6.714   7.031 -0.3987 -0.4291 -0.9752
  122OSM    H8G12961   3.014   6.583   6.958  1.1735  2.8697  0.0681
  122OSM    C9F12962   2.935   6.531   7.140 -0.3708 -0.5871  0.0732
  122OSM    H9F12963   2.960   6.425   7.122  0.2674 -0.0293 -2.7693
  122OSM   C10F12964   2.931   6.565   7.270 -0.0183 -0.1901  0.4396
  122OSM   H10F12965   2.937   6.490   7.351 -0.8680 -1.6027 -0.7370
  122OSM   C11F12966   2.895   6.700   7.327  0.1435 -0.2770  0.1014
  122OSM   H11F12967   2.801   6.677   7.383 -0.4733 -0.0170 -0.8051
  122OSM   H11G12968   2.870   6.775   7.249 -1.8244 -1.9895 -1.0229
  122OSM   C12F12969   2.989   6.767   7.428 -0.5655 -0.7374 -0.2266
  122OSM   H12F12970   3.069   6.814   7.366  1.0570 -2.4934  0.4167
  122OSM   H12G12971   3.033   6.687   7.491 -0.8447 -1.3672 -0.8244
  122OSM   C13F12972   2.906   6.876   7.494 -0.2416  0.4519 -0.4646
  122OSM   H13F12973   2.832   6.820   7.556  0.4334 -1.3004 -1.1805
  122OSM   H13G12974   2.854   6.947   7.426  0.7846 -0.7241 -2.5796
  122OSM   C14F12975   2.992   6.968   7.590 -0.3901 -0.5592  0.0774
  122OSM   H14F12976   3.088   6.989   7.539 -0.5914 -1.0504 -0.5092
  122OSM   H14G12977   3.033   6.906   7.672 -1.8392  0.3492  1.5589
  122OSM   C15F12978   2.922   7.082   7.651  0.2369 -0.7146  0.2161
  122OSM   H15F12979   2.844   7.047   7.722 -2.0536  0.5680 -1.5554
  122OSM   H15G12980   2.866   7.146   7.580  0.2024 -1.1734 -0.1751
  122OSM   C16F12981   3.013   7.187   7.722  0.4707  0.3155 -0.5993
  122OSM   H16F12982   3.084   7.217   7.641 -0.0359  1.6726 -0.5731
  122OSM   H16G12983   3.074   7.151   7.807 -0.2654  0.6348  0.0753
  122OSM   C17F12984   2.947   7.322   7.760  0.4352  0.0976 -0.0421
  122OSM   H17F12985   2.902   7.347   7.662 -1.9799 -0.0828  0.9450
  122OSM   H17G12986   3.024   7.395   7.791 -0.0763  0.2950  0.8161
  122OSM   C18F12987   2.830   7.297   7.859 -0.3426  0.0669  0.3409
  122OSM   H18F12988   2.738   7.260   7.810  0.5331 -1.5334 -0.1606
  122OSM   H18G12989   2.812   7.393   7.913  1.2858  0.0948  0.8911
  122OSM   H18H12990   2.862   7.222   7.934 -0.4252  1.7059  2.0998
  123OSM      N12991   5.310   2.849   6.187 -0.0864 -0.3060 -0.0688
  123OSM    C1512992   5.454   2.856   6.156 -0.5157 -0.0815  0.1157
  123OSM   H15A12993   5.511   2.901   6.236 -1.4389 -2.2918  2.1617
  123OSM   H15B12994   5.486   2.899   6.062  0.5706 -0.8432  0.1055
  123OSM   H15C12995   5.484   2.752   6.147 -0.2021 -0.1349  1.5059
  123OSM    C1412996   5.269   2.986   6.231  0.0687  0.8253  0.4452
  123OSM   H14A12997   5.293   3.011   6.334  2.0531  2.0047 -0.2701
  123OSM   H14B12998   5.165   3.000   6.206  0.4563  0.3523 -1.5403
  123OSM   H14C12999   5.329   3.055   6.175  2.7896 -1.3648  0.4697
  123OSM    C1313000   5.246   2.805   6.065 -0.0936  0.7356 -0.2922
  123OSM   H13A13001   5.285   2.707   6.041 -1.0344  0.6457 -1.5260
  123OSM   H13B13002   5.269   2.873   5.985  0.5696  0.5516 -0.2660
  123OSM   H13C13003   5.139   2.794   6.077 -0.4260  2.5527 -1.2975
  123OSM    C1213004   5.286   2.751   6.299 -1.1193  0.0224  0.3479
  123OSM   H12A13005   5.179   2.745   6.316 -1.1011 -1.1608  0.1440
  123OSM   H12B13006   5.333   2.785   6.390 -0.7081 -0.4938  0.3314
  123OSM    C1113007   5.339   2.600   6.281 -0.0253 -0.0129  0.1930
  123OSM   H11A13008   5.318   2.561   6.179 -2.6767  1.1919  0.2099
  123OSM   H11B13009   5.288   2.536   6.356 -0.0368 -2.7350 -1.9939
  123OSM      P13010   5.560   2.610   6.434 -0.0510  0.0786  0.2491
  123OSM    O1313011   5.699   2.655   6.402  0.0968  0.0625 -0.4406
  123OSM    O1413012   5.479   2.687   6.524  0.1951 -0.6527 -0.4360
  123OSM    O1113013   5.562   2.461   6.489 -0.2786  0.1466  0.0525
  123OSM    O1213014   5.478   2.594   6.301 -0.1516  0.1321 -0.0681
  123OSM    C1S13015   5.645   2.426   6.600 -0.1421 -0.8439  0.1664
  123OSM    H1S13016   5.726   2.501   6.614 -0.6726  0.0629 -1.3395
  123OSM    H1T13017   5.692   2.328   6.577  1.6277  0.4947 -2.4370
  123OSM     NF13018   5.659   2.373   6.838  0.1102 -0.3271  0.4110
  123OSM    HNF13019   5.663   2.278   6.868 -0.9728 -0.3520  0.5300
  123OSM    C2S13020   5.566   2.400   6.730  0.4581  0.4250  0.3675
  123OSM    H2S13021   5.513   2.494   6.752 -1.8709 -0.3929 -1.3700
  123OSM    C3S13022   5.459   2.292   6.708 -0.4929  0.0192 -0.2450
  123OSM    H3S13023   5.512   2.196   6.695 -1.9758 -0.9171  0.3540
  123OSM     O313024   5.377   2.309   6.592 -0.2563  0.1745  0.0809
  123OSM    HO313025   5.412   2.376   6.534 -0.2925 -0.9452 -1.2751
  123OSM    C4S13026   5.371   2.288   6.832 -0.3084  0.0376 -0.0377
  123OSM    H4S13027   5.324   2.385   6.854  0.0931  0.0562  0.8036
  123OSM    C5S13028   5.356   2.187   6.920  0.5822 -0.5761  0.2786
  123OSM    H5S13029   5.391   2.088   6.890  0.7017 -0.4102 -0.1397
  123OSM    C6S13030   5.267   2.192   7.046 -0.0464  0.2583 -0.0933
  123OSM    H6S13031   5.308   2.137   7.134 -1.3111 -1.0377 -0.2715
  123OSM    H6T13032   5.175   2.130   7.042 -0.7004  1.2665 -1.2868
  123OSM    C7S13033   5.229   2.337   7.091 -0.1857 -0.5111  0.0928
  123OSM    H7S13034   5.190   2.398   7.007  1.0373  0.3986  0.1503
  123OSM    H7T13035   5.326   2.386   7.117  0.1562 -0.2624 -1.5376
  123OSM    C8S13036   5.122   2.346   7.197 -0.0778 -0.5437  0.0178
  123OSM    H8S13037   5.050   2.261   7.189  0.3570 -0.9474  0.3499
  123OSM    H8T13038   5.059   2.435   7.175 -1.2945 -1.1638  0.8678
  123OSM    C9S13039   5.169   2.364   7.342 -0.0801  0.2039  0.4810
  123OSM    H9S13040   5.219   2.463   7.349  0.8037 -0.1008 -1.0662
  123OSM    H9T13041   5.229   2.282   7.385 -2.0483 -0.1025  2.9285
  123OSM   C10S13042   5.050   2.367   7.428 -0.4550  0.2643 -0.4188
  123OSM   H10S13043   5.005   2.266   7.437  0.0310  0.0438 -0.4365
  123OSM   H10T13044   4.970   2.439   7.399 -2.2818 -1.0066  1.2680
  123OSM   C11S13045   5.089   2.422   7.566  0.2812  0.1800  0.2381
  123OSM   H11S13046   5.106   2.532   7.563 -0.9996  0.4490  1.7442
  123OSM   H11T13047   5.183   2.369   7.596  0.8110  0.8103 -0.2706
  123OSM   C12S13048   4.980   2.406   7.671 -0.0808  0.2568  0.1634
  123OSM   H12S13049   4.953   2.298   7.671  0.1289  0.1938  1.1966
  123OSM   H12T13050   4.886   2.461   7.649 -1.4163 -1.5481  1.0324
  123OSM   C13S13051   5.028   2.445   7.808 -0.1124  1.0485  0.0736
  123OSM   H13S13052   5.065   2.550   7.810 -1.0578  1.4026 -0.5008
  123OSM   H13T13053   5.121   2.394   7.843 -1.2335 -0.1812  1.3605
  123OSM   C14S13054   4.915   2.431   7.915  0.2592 -0.3627  0.2117
  123OSM   H14S13055   4.896   2.322   7.930 -0.2299 -0.1589  1.1848
  123OSM   H14T13056   4.820   2.463   7.869  0.9448 -0.0844 -1.0410
  123OSM   C15S13057   4.934   2.508   8.044  0.1227  0.7071 -0.1220
  123OSM   H15S13058   4.974   2.611   8.035  1.5050  0.1347 -0.9760
  123OSM   H15T13059   5.012   2.446   8.095 -1.5206 -1.6999 -0.3856
  123OSM   C16S13060   4.797   2.503   8.128 -0.1419 -0.1866  0.0333
  123OSM   H16S13061   4.735   2.414   8.102 -1.0514  0.2729  0.5569
  123OSM   H16T13062   4.728   2.586   8.101 -0.8977 -1.2928 -1.6543
  123OSM   C17S13063   4.822   2.507   8.278  0.6144  0.0402 -0.1109
  123OSM   H17S13064   4.842   2.613   8.307 -2.1614  0.7184 -0.3028
  123OSM   H17T13065   4.903   2.438   8.307  1.1334  1.0616  0.9825
  123OSM   C18S13066   4.698   2.459   8.372 -0.3480 -0.1192  1.0039
  123OSM   H18S13067   4.723   2.471   8.479 -0.1444 -1.5839  1.1438
  123OSM   H18T13068   4.688   2.351   8.347  0.1459  0.0275  0.1307
  123OSM   H18U13069   4.606   2.511   8.340 -0.9059 -2.4181 -1.5009
  123OSM    C1F13070   5.726   2.473   6.893  0.2507  0.1591  1.0228
  123OSM     OF13071   5.695   2.587   6.860 -0.3685  0.3665  0.2322
  123OSM    C2F13072   5.832   2.433   6.982 -0.1513 -0.0619 -0.6907
  123OSM    H2F13073   5.910   2.510   6.968  0.8390 -1.0972 -1.0072
  123OSM    H2G13074   5.868   2.335   6.944  0.2434 -0.6903  1.1990
  123OSM    C3F13075   5.806   2.448   7.131 -0.5764  0.7900  0.1133
  123OSM    H3F13076   5.766   2.550   7.147 -0.2744  1.3276 -2.1853
  123OSM    H3G13077   5.895   2.449   7.198  0.3106  2.1725 -1.0194
  123OSM    C4F13078   5.709   2.341   7.188  0.5890 -0.3526  0.3010
  123OSM    H4F13079   5.755   2.240   7.193  0.2410 -0.4922  0.6956
  123OSM    H4G13080   5.617   2.324   7.127 -1.0539  0.7853  2.3231
  123OSM    C5F13081   5.659   2.374   7.330  0.5730  0.0779  0.3735
  123OSM    H5F13082   5.592   2.462   7.317  0.7774 -0.0568 -1.9053
  123OSM    H5G13083   5.753   2.400   7.383  2.2039 -0.3274 -2.1433
  123OSM    C6F13084   5.579   2.260   7.396 -0.1030 -0.9266 -0.0333
  123OSM    H6F13085   5.648   2.173   7.401  2.9006  1.2085 -1.4224
  123OSM    H6G13086   5.494   2.232   7.329 -1.3004 -1.8523  1.7884
  123OSM    C7F13087   5.509   2.296   7.533 -0.3468  0.0578 -0.0748
  123OSM    H7F13088   5.440   2.213   7.561 -3.3267  2.1209 -0.7787
  123OSM    H7G13089   5.445   2.386   7.523 -0.0314  0.2334 -0.5293
  123OSM    C8F13090   5.616   2.325   7.645  0.6173 -0.0585 -0.5358
  123OSM    H8F13091   5.686   2.405   7.611  1.5230 -0.3317  0.5919
  123OSM    H8G13092   5.682   2.236   7.655  0.4323 -0.1294  0.0980
  123OSM    C9F13093   5.575   2.369   7.781 -0.1160  0.8807  0.1617
  123OSM    H9F13094   5.500   2.306   7.830  2.2099  0.2566  3.2256
  123OSM   C10F13095   5.615   2.478   7.848 -0.4304  0.0974 -0.1723
  123OSM   H10F13096   5.580   2.493   7.952 -1.7062  0.7218 -0.6672
  123OSM   C11F13097   5.718   2.585   7.795 -0.1375  0.4440 -0.1196
  123OSM   H11F13098   5.704   2.682   7.847 -0.5909 -0.8114  2.2564
  123OSM   H11G13099   5.712   2.602   7.685 -1.5054  0.9767  0.0204
  123OSM   C12F13100   5.861   2.544   7.841 -0.1377 -0.5865  0.3669
  123OSM   H12F13101   5.931   2.613   7.789 -1.8183 -0.6143 -2.1109
  123OSM   H12G13102   5.894   2.447   7.797  0.3844  0.3510 -1.3744
  123OSM   C13F13103   5.894   2.538   7.989 -0.9799 -0.0667  0.3658
  123OSM   H13F13104   5.822   2.467   8.035  0.3069 -0.1682  2.3257
  123OSM   H13G13105   5.871   2.637   8.035 -1.2217  0.2019 -0.3155
  123OSM   C14F13106   6.037   2.497   8.023  0.1519  0.8435  0.6523
  123OSM   H14F13107   6.066   2.400   7.977  2.5246  1.0549  1.5398
  123OSM   H14G13108   6.048   2.475   8.132 -1.8198  0.2331  0.7687
  123OSM   C15F13109   6.147   2.595   7.995  0.3054  0.4635  0.6794
  123OSM   H15F13110   6.176   2.615   7.889 -0.7085  1.3716  0.5560
  123OSM   H15G13111   6.246   2.548   8.015  0.0067 -0.9977 -1.0159
  123OSM   C16F13112   6.154   2.722   8.086  0.0756 -0.4578  0.4597
  123OSM   H16F13113   6.200   2.700   8.185  2.1788  2.1605  0.1789
  123OSM   H16G13114   6.050   2.755   8.105 -0.1730  0.1531 -1.7236
  123OSM   C17F13115   6.241   2.834   8.021 -0.4653  0.1796  0.0626
  123OSM   H17F13116   6.231   2.931   8.075 -0.7106 -0.0693  0.4787
  123OSM   H17G13117   6.194   2.843   7.921  0.9612 -1.3560 -0.8074
  123OSM   C18F13118   6.384   2.787   8.004  0.2817 -1.0066 -0.8538
  123OSM   H18F13119   6.452   2.856   7.950  0.9716 -0.8130  0.2327
  123OSM   H18G13120   6.398   2.691   7.949  0.6585 -1.7107  0.4243
  123OSM   H18H13121   6.425   2.769   8.106 -0.5917 -1.2738 -0.5441
  124OSM      N13122   0.422   6.256   6.544 -0.4338 -0.2836 -0.0869
  124OSM    C1513123   0.448   6.355   6.438  0.2291 -0.5110 -0.7127
  124OSM   H15A13124   0.359   6.416   6.429  1.1559  1.1856  0.9511
  124OSM   H15B13125   0.461   6.309   6.341  1.4571 -2.2777  0.2327
  124OSM   H15C13126   0.535   6.417   6.456  1.0058 -1.7483 -0.0379
  124OSM    C1413127   0.403   6.319   6.685  0.5738 -0.2860 -0.1038
  124OSM   H14A13128   0.389   6.250   6.767 -1.9332  0.5173  0.2147
  124OSM   H14B13129   0.322   6.390   6.679  0.7161 -0.1296 -0.1686
  124OSM   H14C13130   0.488   6.374   6.721  0.4054 -0.4966  0.6185
  124OSM    C1313131   0.297   6.177   6.506 -0.0081  0.7525 -0.1768
  124OSM   H13A13132   0.265   6.101   6.576 -1.6678 -1.4459 -3.1228
  124OSM   H13B13133   0.314   6.116   6.419 -0.9971 -1.7355  1.2486
  124OSM   H13C13134   0.216   6.245   6.483 -0.2135  0.1984 -1.1507
  124OSM    C1213135   0.541   6.152   6.554  0.2915  1.1035 -0.9590
  124OSM   H12A13136   0.538   6.116   6.656  1.6760  2.4969 -0.3812
  124OSM   H12B13137   0.631   6.210   6.564  0.5155  0.8275 -1.3769
  124OSM    C1113138   0.567   6.050   6.441 -0.0583 -0.6607  0.0919
  124OSM   H11A13139   0.481   5.982   6.423  1.0117 -2.3460  0.9807
  124OSM   H11B13140   0.650   5.980   6.466  1.2771  0.1003 -2.0057
  124OSM      P13141   0.737   6.133   6.243 -0.0238  0.0328 -0.2447
  124OSM    O1313142   0.756   6.035   6.133  0.3105 -0.1877 -0.1329
  124OSM    O1413143   0.745   6.274   6.201 -0.9758 -0.1029  0.6314
  124OSM    O1113144   0.854   6.122   6.354 -0.4316 -0.0637  0.4754
  124OSM    O1213145   0.596   6.123   6.316  0.4521  0.0407 -0.8192
  124OSM    C1S13146   0.882   6.224   6.456  0.5021  0.6222  0.2170
  124OSM    H1S13147   0.796   6.291   6.475 -0.1511  0.6264 -2.3728
  124OSM    H1T13148   0.963   6.288   6.415  2.0389 -1.0419  0.4830
  124OSM     NF13149   0.928   6.282   6.684  0.5984 -0.1096 -0.1930
  124OSM    HNF13150   1.024   6.307   6.695  0.8299 -1.2977  0.6233
  124OSM    C2S13151   0.927   6.170   6.589 -0.0742  0.4006 -0.2356
  124OSM    H2S13152   0.846   6.101   6.619 -0.2644  0.4882 -0.5460
  124OSM    C3S13153   1.061   6.094   6.583 -0.0585  0.4456 -0.2993
  124OSM    H3S13154   1.139   6.164   6.545  0.6284 -1.5616 -2.8384
  124OSM     O313155   1.070   5.985   6.492  0.5159  0.1753  0.2597
  124OSM    HO313156   0.981   5.967   6.461  0.0101  1.2277  1.0295
  124OSM    C4S13157   1.093   6.041   6.717 -0.0347  0.3838 -0.2713
  124OSM    H4S13158   1.181   6.096   6.753 -0.8222  1.3686  0.1899
  124OSM    C5S13159   1.038   5.938   6.782  0.4271  0.7761 -0.5436
  124OSM    H5S13160   0.964   5.877   6.728 -0.7952  2.1407 -0.4664
  124OSM    C6S13161   1.085   5.881   6.912 -0.0253 -0.1609 -0.3016
  124OSM    H6S13162   1.170   5.810   6.907 -0.1844 -0.2402 -2.8420
  124OSM    H6T13163   0.994   5.836   6.958 -0.8413  1.7981  0.0801
  124OSM    C7S13164   1.133   6.002   7.000 -0.4029 -0.2014 -0.5751
  124OSM    H7S13165   1.054   6.077   7.020  0.4231  0.3456  0.7666
  124OSM    H7T13166   1.228   6.047   6.965 -0.0413  0.3598  1.0544
  124OSM    C8S13167   1.159   5.951   7.147 -0.7404  0.6012 -0.1759
  124OSM    H8S13168   1.227   5.864   7.135 -1.1122  0.4807 -1.5374
  124OSM    H8T13169   1.062   5.904   7.175 -0.3956  0.2264  0.4195
  124OSM    C9S13170   1.213   6.041   7.250  0.0259  0.3849 -0.7685
  124OSM    H9S13171   1.142   6.125   7.261 -1.0142 -0.4117 -1.3051
  124OSM    H9T13172   1.297   6.094   7.200  0.5344  1.7163  1.3275
  124OSM   C10S13173   1.243   5.960   7.380 -0.1834 -0.0093  0.2639
  124OSM   H10S13174   1.339   5.906   7.365  0.2168  0.1674  2.0370
  124OSM   H10T13175   1.163   5.884   7.391  0.3416 -1.2163 -2.9364
  124OSM   C11S13176   1.272   6.042   7.497 -0.4568 -0.1297  0.0707
  124OSM   H11S13177   1.187   6.114   7.504  1.1305  1.6804  2.2690
  124OSM   H11T13178   1.366   6.100   7.484 -0.6547  0.7343  2.0907
  124OSM   C12S13179   1.289   5.946   7.617  0.5339 -0.1542 -0.1654
  124OSM   H12S13180   1.376   5.882   7.592 -0.1000  0.0978 -3.5545
  124OSM   H12T13181   1.205   5.876   7.634  1.7429 -1.3656  1.0429
  124OSM   C13S13182   1.320   6.019   7.757  0.2930  0.3035  0.2728
  124OSM   H13S13183   1.400   6.090   7.728  1.2885 -1.4756 -1.5614
  124OSM   H13T13184   1.360   5.944   7.830  0.0752 -1.1313 -1.0368
  124OSM   C14S13185   1.190   6.078   7.825  0.2816 -0.5848 -0.1424
  124OSM   H14S13186   1.119   5.998   7.855 -0.5146  0.5737  1.1687
  124OSM   H14T13187   1.138   6.139   7.747  1.6032 -0.2132 -0.7551
  124OSM   C15S13188   1.237   6.161   7.943 -0.5205  0.2287  0.3781
  124OSM   H15S13189   1.300   6.242   7.903 -0.4435  0.8466  1.6947
  124OSM   H15T13190   1.299   6.094   8.008 -0.4239  0.1053  0.1595
  124OSM   C16S13191   1.133   6.238   8.030  0.1212  0.0512  0.2962
  124OSM   H16S13192   1.072   6.164   8.085  0.8312  0.3620  1.5486
  124OSM   H16T13193   1.062   6.288   7.961  0.5159 -2.2368 -1.9111
  124OSM   C17S13194   1.187   6.343   8.117 -0.1162 -0.1822  0.5292
  124OSM   H17S13195   1.252   6.413   8.060 -0.2245  1.4750  2.3394
  124OSM   H17T13196   1.262   6.306   8.190  1.0677  1.1165  0.0332
  124OSM   C18S13197   1.080   6.426   8.197 -0.5606  0.1399 -0.0476
  124OSM   H18S13198   1.009   6.478   8.130  0.4874  0.6705 -0.7870
  124OSM   H18T13199   1.135   6.495   8.264  3.8868 -0.3925 -2.7124
  124OSM   H18U13200   1.030   6.354   8.265 -0.1541 -0.2377 -0.1439
  124OSM    C1F13201   0.829   6.351   6.742  0.0932  0.9719  0.2225
  124OSM     OF13202   0.712   6.311   6.746  0.1603 -0.1147 -0.0973
  124OSM    C2F13203   0.877   6.474   6.810 -0.5396  0.4501  0.3138
  124OSM    H2F13204   0.799   6.552   6.824 -0.9674  0.0246  0.3366
  124OSM    H2G13205   0.962   6.522   6.757 -0.3946 -0.4562 -0.2930
  124OSM    C3F13206   0.934   6.431   6.943  0.1112  0.0683  0.0664
  124OSM    H3F13207   1.026   6.370   6.936  0.3678  0.5868 -1.2805
  124OSM    H3G13208   0.850   6.385   6.999 -0.9551 -0.0368 -1.5660
  124OSM    C4F13209   0.995   6.554   7.012 -0.4377  0.7236  1.2060
  124OSM    H4F13210   0.930   6.644   7.003  0.0726  0.9297 -1.4178
  124OSM    H4G13211   1.086   6.584   6.955 -0.8419 -1.4688 -0.7562
  124OSM    C5F13212   1.022   6.549   7.164 -0.8473 -0.3228  0.1428
  124OSM    H5F13213   0.939   6.492   7.211  0.5846 -4.0430 -1.5058
  124OSM    H5G13214   1.040   6.650   7.207 -0.4030  0.0441 -0.8759
  124OSM    C6F13215   1.153   6.474   7.201  0.1173 -0.2414  0.1375
  124OSM    H6F13216   1.232   6.552   7.205  0.1116 -0.1642 -1.0836
  124OSM    H6G13217   1.171   6.400   7.121  0.7111 -1.6656  1.5241
  124OSM    C7F13218   1.160   6.405   7.341  0.0017 -0.3212  0.2424
  124OSM    H7F13219   1.254   6.359   7.377  0.7682  2.6819  2.5129
  124OSM    H7G13220   1.088   6.322   7.327 -2.0428  1.6983 -2.1153
  124OSM    C8F13221   1.115   6.505   7.455  0.0953 -0.1916 -0.1708
  124OSM    H8F13222   1.091   6.435   7.539  0.3495 -0.5651 -0.4070
  124OSM    H8G13223   1.028   6.570   7.431  0.8460  0.8309 -0.1440
  124OSM    C9F13224   1.228   6.597   7.495  0.1050 -0.1333  0.1980
  124OSM    H9F13225   1.258   6.667   7.415 -0.8626  0.1244  0.0423
  124OSM   C10F13226   1.297   6.598   7.610 -0.3827  0.3874  0.5255
  124OSM   H10F13227   1.393   6.652   7.618 -0.2552  0.0668  1.2576
  124OSM   C11F13228   1.260   6.507   7.721 -0.2820  0.0672 -0.2965
  124OSM   H11F13229   1.340   6.513   7.798 -1.3180 -2.6220  1.1266
  124OSM   H11G13230   1.263   6.400   7.691 -0.0408 -0.0186  0.0310
  124OSM   C12F13231   1.126   6.557   7.776  0.4391  0.8567 -0.5553
  124OSM   H12F13232   1.092   6.473   7.840 -0.2719  0.2447 -1.7032
  124OSM   H12G13233   1.038   6.550   7.709  1.3988 -1.9790 -1.6333
  124OSM   C13F13234   1.143   6.682   7.866 -0.4818  0.4903  0.6180
  124OSM   H13F13235   1.190   6.761   7.805  0.7905 -1.9048 -1.6782
  124OSM   H13G13236   1.205   6.659   7.955  0.2096  2.5389  0.7216
  124OSM   C14F13237   1.017   6.741   7.923  0.1756  0.8630  0.0230
  124OSM   H14F13238   0.968   6.653   7.971  0.8214 -0.0944 -1.0138
  124OSM   H14G13239   0.956   6.781   7.840  0.8806  1.0037 -0.4414
  124OSM   C15F13240   1.052   6.841   8.025 -0.7181 -0.1332 -0.4912
  124OSM   H15F13241   1.094   6.928   7.970  2.5116 -0.0921  1.7458
  124OSM   H15G13242   1.124   6.791   8.092  0.8992  0.7225 -1.5173
  124OSM   C16F13243   0.932   6.888   8.106 -0.0637 -0.3038  0.6515
  124OSM   H16F13244   0.890   6.813   8.176  0.3006 -0.3782  0.7954
  124OSM   H16G13245   0.856   6.914   8.030 -0.1541  2.3629  1.5357
  124OSM   C17F13246   0.955   7.019   8.182 -0.5511  0.0239  0.1410
  124OSM   H17F13247   0.950   7.112   8.121  2.0810  0.6038  0.6490
  124OSM   H17G13248   1.061   7.021   8.215  0.3186 -4.7803 -1.6304
  124OSM   C18F13249   0.858   7.030   8.301 -0.0145 -0.0142 -0.1236
  124OSM   H18F13250   0.872   7.125   8.358 -0.8232 -0.2764  0.5357
  124OSM   H18G13251   0.877   6.945   8.370 -1.7481 -1.2320 -1.0709
  124OSM   H18H13252   0.752   7.034   8.269  0.5251  0.6170 -1.9302
  125OSM      N13253   3.483   3.278   5.759  0.2886 -0.6439  0.1083
  125OSM    C1513254   3.430   3.320   5.624 -0.2800 -0.1908  0.3974
  125OSM   H15A13255   3.394   3.233   5.570 -2.6647  1.5777 -1.0562
  125OSM   H15B13256   3.509   3.369   5.568  0.8999 -1.6967  0.6766
  125OSM   H15C13257   3.341   3.381   5.624 -1.2924 -1.5952  1.4777
  125OSM    C1413258   3.371   3.194   5.821 -0.6502 -0.6960  0.1626
  125OSM   H14A13259   3.389   3.167   5.924 -2.3821 -4.0331 -0.2641
  125OSM   H14B13260   3.369   3.094   5.780  1.5010  0.8526 -4.5057
  125OSM   H14C13261   3.279   3.248   5.806  1.0913  2.0424 -1.5857
  125OSM    C1313262   3.598   3.190   5.736  0.1797 -0.4651 -1.2371
  125OSM   H13A13263   3.668   3.233   5.666  1.1981  0.0269  0.0279
  125OSM   H13B13264   3.570   3.093   5.697  0.0265 -0.7071 -0.5415
  125OSM   H13C13265   3.669   3.175   5.817  1.3657  0.5308 -2.0658
  125OSM    C1213266   3.520   3.396   5.852 -0.0343  0.4482 -0.6488
  125OSM   H12A13267   3.428   3.440   5.887  0.2722 -0.2853  1.1932
  125OSM   H12B13268   3.569   3.465   5.784 -1.4876  2.2044 -0.0032
  125OSM    C1113269   3.606   3.364   5.977 -0.2652 -1.1765 -0.0960
  125OSM   H11A13270   3.654   3.452   6.027 -0.5229 -1.6356  0.9816
  125OSM   H11B13271   3.696   3.308   5.945  0.4261  0.9003 -2.1013
  125OSM      P13272   3.405   3.366   6.146 -0.1239  0.1073  0.3798
  125OSM    O1313273   3.384   3.491   6.074 -0.0946  0.3893  0.8121
  125OSM    O1413274   3.300   3.258   6.153 -0.1250 -0.0661  0.3238
  125OSM    O1113275   3.467   3.402   6.286  0.1002 -0.7261  0.1438
  125OSM    O1213276   3.531   3.297   6.072 -0.6405  0.0793 -0.2893
  125OSM    C1S13277   3.526   3.295   6.361  0.2954 -0.1881  0.5054
  125OSM    H1S13278   3.636   3.295   6.341  0.6639  0.6685  2.3671
  125OSM    H1T13279   3.488   3.194   6.333 -0.1824  0.1429 -0.0857
  125OSM     NF13280   3.546   3.185   6.577 -0.4421 -0.2916  0.4762
  125OSM    HNF13281   3.475   3.122   6.607  0.7934 -0.9172  2.2559
  125OSM    C2S13282   3.495   3.309   6.512 -0.2009 -0.0181 -0.1056
  125OSM    H2S13283   3.554   3.393   6.555  1.2079 -0.4649 -1.0932
  125OSM    C3S13284   3.348   3.346   6.538  0.3941 -0.1972  0.3411
  125OSM    H3S13285   3.281   3.276   6.484  0.1746  1.1995 -1.3251
  125OSM     O313286   3.308   3.476   6.500 -0.2605  0.5245  0.2455
  125OSM    HO313287   3.385   3.509   6.453  1.6484 -1.3967  1.7892
  125OSM    C4S13288   3.327   3.332   6.682 -0.2483  0.7568  0.3372
  125OSM    H4S13289   3.393   3.392   6.746  1.3636 -0.6082 -0.0008
  125OSM    C5S13290   3.261   3.242   6.752  0.3578 -0.6720 -0.2910
  125OSM    H5S13291   3.213   3.158   6.701  0.1564 -1.6119  1.3687
  125OSM    C6S13292   3.244   3.235   6.901  1.1138 -0.2097  0.0237
  125OSM    H6S13293   3.262   3.332   6.952 -1.3845 -0.3236  1.2779
  125OSM    H6T13294   3.316   3.164   6.947 -0.3640 -1.3237  0.7158
  125OSM    C7S13295   3.099   3.181   6.941 -0.1471 -0.5336  0.7498
  125OSM    H7S13296   3.076   3.095   6.874 -0.3584 -0.9188  1.3066
  125OSM    H7T13297   3.016   3.250   6.912  0.1552 -1.2902 -2.2827
  125OSM    C8S13298   3.094   3.143   7.088  0.2926  0.1530 -0.4052
  125OSM    H8S13299   3.174   3.066   7.101  2.3216  1.7949 -2.4061
  125OSM    H8T13300   2.997   3.097   7.114  0.8742 -1.9197 -1.6261
  125OSM    C9S13301   3.106   3.267   7.183  0.3402 -0.7938  1.2083
  125OSM    H9S13302   3.012   3.325   7.182  1.3289  1.0196  3.4540
  125OSM    H9T13303   3.189   3.333   7.150 -0.7075 -0.5939 -1.1706
  125OSM   C10S13304   3.133   3.222   7.324  0.9159  0.2014  0.4731
  125OSM   H10S13305   3.227   3.163   7.320 -0.0558 -1.3627 -0.0693
  125OSM   H10T13306   3.057   3.151   7.362  0.5183  1.0941  1.4019
  125OSM   C11S13307   3.158   3.344   7.416 -0.3453  0.4482 -0.4116
  125OSM   H11S13308   3.076   3.417   7.396 -0.4239  0.5302  0.1783
  125OSM   H11T13309   3.251   3.380   7.368 -0.4972 -0.0673 -1.1075
  125OSM   C12S13310   3.167   3.337   7.569 -0.2848  0.4719 -0.3183
  125OSM   H12S13311   3.178   3.438   7.613  0.9700  0.6160 -0.9285
  125OSM   H12T13312   3.259   3.275   7.580 -1.0751 -0.6793  0.0332
  125OSM   C13S13313   3.046   3.257   7.632 -0.2060 -0.4361  0.3120
  125OSM   H13S13314   3.051   3.151   7.597 -2.1784  0.2263 -2.2352
  125OSM   H13T13315   2.953   3.305   7.594 -0.1801  1.0129  1.9523
  125OSM   C14S13316   3.028   3.267   7.787  0.0842  0.1621  0.3035
  125OSM   H14S13317   2.963   3.179   7.807  0.0146  0.7387  2.9446
  125OSM   H14T13318   2.960   3.347   7.822 -0.7208  0.8325 -2.5251
  125OSM   C15S13319   3.158   3.269   7.870  0.2810  0.6751 -0.5761
  125OSM   H15S13320   3.218   3.362   7.863  0.1522  0.8516  0.5517
  125OSM   H15T13321   3.223   3.183   7.844  1.2256  0.2736  2.6722
  125OSM   C16S13322   3.118   3.253   8.021 -0.6926  0.5892  0.0720
  125OSM   H16S13323   3.047   3.168   8.018  0.6503 -0.8044  3.3390
  125OSM   H16T13324   3.065   3.342   8.063  0.3780  0.8098  0.9907
  125OSM   C17S13325   3.242   3.220   8.106  0.2226 -0.4037  0.0253
  125OSM   H17S13326   3.311   3.306   8.092 -2.3911  1.9369  0.7215
  125OSM   H17T13327   3.291   3.129   8.063  1.9641  0.5480 -0.1260
  125OSM   C18S13328   3.200   3.194   8.254 -0.4466 -0.0347  0.7613
  125OSM   H18S13329   3.146   3.098   8.264  0.6873 -1.0227 -1.5655
  125OSM   H18T13330   3.152   3.285   8.296  0.8451  0.9078  0.2890
  125OSM   H18U13331   3.296   3.190   8.310 -0.2289  0.5688  0.4490
  125OSM    C1F13332   3.674   3.142   6.565  0.3300 -0.1990  0.2856
  125OSM     OF13333   3.757   3.203   6.501  0.1655 -0.2492  0.3052
  125OSM    C2F13334   3.706   2.999   6.619 -0.2253 -1.0431  0.1452
  125OSM    H2F13335   3.716   2.925   6.537  1.7697 -1.0354  0.3113
  125OSM    H2G13336   3.623   2.960   6.682  0.6252 -3.1503  0.0450
  125OSM    C3F13337   3.834   3.004   6.708 -0.1323  0.6647 -0.7421
  125OSM    H3F13338   3.921   3.061   6.668  0.6823  0.8096  1.1572
  125OSM    H3G13339   3.869   2.898   6.711 -0.4764  0.5713  0.9315
  125OSM    C4F13340   3.806   3.054   6.852 -0.2726 -0.0935  0.5426
  125OSM    H4F13341   3.733   2.996   6.911  2.2017 -0.3324  3.6373
  125OSM    H4G13342   3.773   3.160   6.845  0.1706  0.0801  0.9954
  125OSM    C5F13343   3.937   3.049   6.933 -0.1966 -0.6628  0.0585
  125OSM    H5F13344   4.024   3.086   6.873 -1.1691  1.2796 -0.2043
  125OSM    H5G13345   3.957   2.942   6.957  0.8037 -0.3457  0.6975
  125OSM    C6F13346   3.924   3.136   7.051  0.7521  0.5070 -0.1456
  125OSM    H6F13347   3.827   3.120   7.101 -1.6626  2.3578 -3.8169
  125OSM    H6G13348   3.933   3.244   7.026  0.1483  1.0386  1.7335
  125OSM    C7F13349   4.037   3.097   7.148  0.6106 -0.7387  0.0630
  125OSM    H7F13350   4.126   3.158   7.121 -1.0379  0.6109 -2.8274
  125OSM    H7G13351   4.057   2.989   7.128 -0.4384 -0.4036 -3.4729
  125OSM    C8F13352   4.004   3.109   7.296  0.5965 -0.1106  0.3439
  125OSM    H8F13353   3.946   3.204   7.301  0.1627 -0.3246 -0.4209
  125OSM    H8G13354   4.093   3.127   7.361  1.2425 -1.6077 -0.0913
  125OSM    C9F13355   3.914   3.001   7.347 -0.3637 -0.5649  0.0479
  125OSM    H9F13356   3.854   2.953   7.268 -0.3394 -1.6091  0.6544
  125OSM   C10F13357   3.908   2.958   7.478  0.0971 -0.2079 -0.7403
  125OSM   H10F13358   3.844   2.873   7.506 -1.1050  0.3772 -1.6143
  125OSM   C11F13359   3.982   3.008   7.602 -0.0733  0.1654  0.0807
  125OSM   H11F13360   3.912   3.057   7.673  1.9263  1.2311  1.4501
  125OSM   H11G13361   4.066   3.080   7.589 -0.3619  0.5774  0.4641
  125OSM   C12F13362   4.042   2.878   7.667  0.2260 -0.4697 -0.2974
  125OSM   H12F13363   3.964   2.799   7.677  2.3082 -2.5715  0.3536
  125OSM   H12G13364   4.078   2.902   7.769 -2.8976 -0.0566  0.8189
  125OSM   C13F13365   4.162   2.819   7.600 -0.0575 -0.1765  0.5257
  125OSM   H13F13366   4.248   2.889   7.604  0.2008 -0.2467 -2.1268
  125OSM   H13G13367   4.131   2.817   7.493  0.1255  0.3799  0.4602
  125OSM   C14F13368   4.202   2.684   7.658 -0.1855  0.3642 -0.8001
  125OSM   H14F13369   4.263   2.623   7.588  1.9280 -0.4179  1.5965
  125OSM   H14G13370   4.115   2.618   7.679  1.1799 -1.3193 -0.2685
  125OSM   C15F13371   4.278   2.712   7.793  1.0213  0.7896  0.1226
  125OSM   H15F13372   4.228   2.782   7.863  1.4733 -1.5316  2.9866
  125OSM   H15G13373   4.374   2.750   7.752 -0.0862  1.5530 -1.9152
  125OSM   C16F13374   4.293   2.588   7.886 -0.1902 -0.2455  0.4478
  125OSM   H16F13375   4.332   2.517   7.810 -0.3069  0.2789 -0.1115
  125OSM   H16G13376   4.196   2.542   7.914 -0.5079 -0.4085 -0.8329
  125OSM   C17F13377   4.384   2.609   8.012  0.0421  0.5026 -0.0786
  125OSM   H17F13378   4.319   2.635   8.098  0.1651  0.7526 -0.0606
  125OSM   H17G13379   4.455   2.692   7.993 -0.7886  1.4491  0.8537
  125OSM   C18F13380   4.459   2.479   8.041  0.0767 -0.7094 -0.2677
  125OSM   H18F13381   4.534   2.487   8.123 -1.9838 -0.1134  1.6475
  125OSM   H18G13382   4.525   2.449   7.957  3.2262 -3.9790  2.9645
  125OSM   H18H13383   4.394   2.392   8.067 -0.7091  0.0712  0.4671
  126OSM      N13384   0.185   0.515   6.158 -0.1769  0.4917  0.2582
  126OSM    C1513385   0.185   0.660   6.123  0.1580 -0.1477  0.2861
  126OSM   H15A13386   0.088   0.691   6.086 -0.0420 -1.5951 -0.4574
  126OSM   H15B13387   0.261   0.679   6.049 -1.4173 -1.4315 -1.7638
  126OSM   H15C13388   0.204   0.718   6.212  1.5895 -0.9494  0.5318
  126OSM    C1413389   0.129   0.444   6.037 -0.2924  0.1548  0.2385
  126OSM   H14A13390   0.124   0.337   6.052 -0.2916  0.1262  0.0436
  126OSM   H14B13391   0.178   0.455   5.941 -0.8840 -1.2656 -0.2528
  126OSM   H14C13392   0.027   0.472   6.015  0.3270  1.8073 -0.6659
  126OSM    C1313393   0.327   0.465   6.182 -0.3333  0.2423  0.4076
  126OSM   H13A13394   0.382   0.483   6.091 -0.7088 -0.4290  0.0494
  126OSM   H13B13395   0.323   0.361   6.211  0.7638 -0.0303 -0.3605
  126OSM   H13C13396   0.392   0.521   6.249  0.8503  0.6873 -1.0438
  126OSM    C1213397   0.103   0.472   6.282  0.5730  0.2532  0.1541
  126OSM   H12A13398   0.117   0.368   6.306 -1.3079 -0.2197 -0.6382
  126OSM   H12B13399  -0.003   0.471   6.259  0.9837 -2.3853 -1.9950
  126OSM    C1113400   0.126   0.554   6.410 -0.1381  0.3126 -0.3917
  126OSM   H11A13401   0.237   0.555   6.422 -0.2053  0.6381  0.1906
  126OSM   H11B13402   0.080   0.508   6.500  0.5066  1.7820  0.7350
  126OSM      P13403  -0.090   0.704   6.409  0.1632 -0.3035  0.0299
  126OSM    O1313404  -0.108   0.848   6.421 -0.1098  0.3811  0.2875
  126OSM    O1413405  -0.152   0.639   6.294  0.4347  0.5149 -0.3668
  126OSM    O1113406  -0.151   0.637   6.536  0.2831 -0.3115 -0.1462
  126OSM    O1213407   0.066   0.681   6.410  0.7419  0.3227  0.0169
  126OSM    C1S13408  -0.088   0.633   6.663 -0.0561  0.0502 -0.3591
  126OSM    H1S13409   0.023   0.631   6.653 -0.0532  2.0501 -1.2198
  126OSM    H1T13410  -0.126   0.541   6.712 -2.4848  1.5200  0.6630
  126OSM     NF13411  -0.049   0.754   6.887 -0.3699 -0.4009  0.1307
  126OSM    HNF13412  -0.111   0.726   6.960  0.8977 -1.3476  0.8689
  126OSM    C2S13413  -0.116   0.756   6.756  0.5205 -0.0831 -0.3751
  126OSM    H2S13414  -0.089   0.844   6.694 -2.4961  0.2231 -1.4404
  126OSM    C3S13415  -0.265   0.768   6.774  0.0661 -0.1808 -0.2952
  126OSM    H3S13416  -0.300   0.684   6.837  0.5306  1.2183  1.9617
  126OSM     O313417  -0.334   0.781   6.651 -0.1090 -0.0186  0.4145
  126OSM    HO313418  -0.286   0.720   6.594  0.9321 -0.9407  2.1648
  126OSM    C4S13419  -0.293   0.895   6.858 -0.5204  0.3297  0.3760
  126OSM    H4S13420  -0.236   0.985   6.829  1.1902  0.4676  3.7175
  126OSM    C5S13421  -0.370   0.886   6.969  0.5600 -0.0238 -0.0805
  126OSM    H5S13422  -0.421   0.791   6.990 -1.1149  1.3080  2.5082
  126OSM    C6S13423  -0.402   0.997   7.066  0.4506 -0.2770 -0.0224
  126OSM    H6S13424  -0.513   1.001   7.070  0.4157 -1.3121  0.3361
  126OSM    H6T13425  -0.361   1.094   7.032  0.1960 -0.3629 -0.5838
  126OSM    C7S13426  -0.340   0.976   7.203  0.0315  0.3347 -0.2511
  126OSM    H7S13427  -0.230   0.958   7.197 -0.3933 -2.4920 -1.1794
  126OSM    H7T13428  -0.377   0.882   7.248 -0.7188 -0.0201 -1.5793
  126OSM    C8S13429  -0.364   1.091   7.303  0.1544  0.0136  0.2303
  126OSM    H8S13430  -0.475   1.092   7.306  0.0446 -0.4066 -1.8946
  126OSM    H8T13431  -0.334   1.188   7.258  0.0202  0.2404  0.6224
  126OSM    C9S13432  -0.290   1.080   7.443  0.4874  0.2791  0.0996
  126OSM    H9S13433  -0.302   1.177   7.495  1.6559  0.3377  0.3005
  126OSM    H9T13434  -0.183   1.056   7.426  0.5717  0.3843  0.4825
  126OSM   C10S13435  -0.365   0.965   7.516  0.2552 -1.1251 -0.2024
  126OSM   H10S13436  -0.354   0.866   7.468  2.7601 -0.7878 -0.4527
  126OSM   H10T13437  -0.473   0.993   7.514  0.3275 -0.8833 -0.9139
  126OSM   C11S13438  -0.325   0.968   7.667  0.0182  0.6707 -0.1910
  126OSM   H11S13439  -0.214   0.959   7.670 -0.1274 -1.9565 -0.5627
  126OSM   H11T13440  -0.387   0.890   7.715  3.1797  0.0012  3.2994
  126OSM   C12S13441  -0.366   1.096   7.744  0.5159 -0.3588 -0.0990
  126OSM   H12S13442  -0.468   1.127   7.712  0.7961  1.6798  0.7931
  126OSM   H12T13443  -0.294   1.179   7.726  1.0075  0.0441  3.1538
  126OSM   C13S13444  -0.376   1.063   7.896  0.0594  0.1047  0.2919
  126OSM   H13S13445  -0.269   1.068   7.927  0.3859  0.4065 -0.8203
  126OSM   H13T13446  -0.414   0.959   7.904 -0.8038 -0.1421 -4.2433
  126OSM   C14S13447  -0.460   1.161   7.977  0.3402  0.0644  0.5996
  126OSM   H14S13448  -0.564   1.136   7.947 -0.1594  1.5330  1.0428
  126OSM   H14T13449  -0.455   1.261   7.931  0.6097 -2.0473 -4.6120
  126OSM   C15S13450  -0.452   1.155   8.129 -0.0739 -0.1648  0.0134
  126OSM   H15S13451  -0.460   1.047   8.154  1.5544 -0.5135 -0.8910
  126OSM   H15T13452  -0.540   1.209   8.173 -0.2607  0.9022 -1.5738
  126OSM   C16S13453  -0.324   1.213   8.192 -0.2305 -0.3244 -1.1562
  126OSM   H16S13454  -0.319   1.322   8.169 -0.3813  0.3488  1.6420
  126OSM   H16T13455  -0.232   1.160   8.162 -0.4663 -0.5349 -1.5137
  126OSM   C17S13456  -0.335   1.206   8.345  0.4799 -0.5166 -0.4339
  126OSM   H17S13457  -0.339   1.099   8.374  2.2452 -1.5037 -3.3253
  126OSM   H17T13458  -0.435   1.251   8.360  0.3269  0.0973 -2.8444
  126OSM   C18S13459  -0.224   1.290   8.417  0.5052  0.3040 -0.6692
  126OSM   H18S13460  -0.123   1.278   8.374  1.1670 -0.7645  1.0711
  126OSM   H18T13461  -0.215   1.262   8.524  3.5650  0.3777 -0.8326
  126OSM   H18U13462  -0.234   1.400   8.404 -1.3066  0.2159 -0.3657
  126OSM    C1F13463   0.080   0.767   6.896 -0.4349  0.1557  0.2255
  126OSM     OF13464   0.146   0.795   6.797  0.5036 -0.4263 -0.0901
  126OSM    C2F13465   0.149   0.743   7.024 -0.0340 -0.0323 -0.1542
  126OSM    H2F13466   0.251   0.786   7.023 -0.2248  0.4516  0.2254
  126OSM    H2G13467   0.175   0.635   7.028  0.6630  0.0222 -2.1511
  126OSM    C3F13468   0.066   0.769   7.155  0.1825  0.1756 -0.6335
  126OSM    H3F13469   0.001   0.681   7.177  0.2919  0.6151  1.7148
  126OSM    H3G13470   0.010   0.865   7.151  0.8528  0.5487 -4.2480
  126OSM    C4F13471   0.158   0.787   7.277  0.3600  0.1717 -0.3457
  126OSM    H4F13472   0.203   0.889   7.270  2.2303 -0.3453  2.3544
  126OSM    H4G13473   0.240   0.713   7.288  1.1926  1.3226  1.9143
  126OSM    C5F13474   0.088   0.795   7.412 -0.1229  0.2094 -0.2955
  126OSM    H5F13475   0.036   0.697   7.422  1.4532 -0.7219 -0.8358
  126OSM    H5G13476   0.018   0.881   7.409  2.2785  2.4537  2.2573
  126OSM    C6F13477   0.186   0.830   7.527  0.0388 -0.0734  0.4191
  126OSM    H6F13478   0.231   0.930   7.509 -0.9286  0.1967 -0.6757
  126OSM    H6G13479   0.274   0.764   7.540 -0.2535 -0.3452  1.0632
  126OSM    C7F13480   0.101   0.859   7.657  0.0948  0.5371  0.5463
  126OSM    H7F13481   0.048   0.766   7.686 -0.9262  0.1631 -2.2272
  126OSM    H7G13482   0.026   0.935   7.627 -0.9656 -1.5527 -2.6152
  126OSM    C8F13483   0.188   0.926   7.771 -0.3217  0.5818  0.5765
  126OSM    H8F13484   0.252   1.008   7.730 -1.1833  1.3659  0.7687
  126OSM    H8G13485   0.248   0.844   7.817 -0.1959  0.7052  0.6338
  126OSM    C9F13486   0.087   0.972   7.870  0.2981 -0.1255 -0.2719
  126OSM    H9F13487   0.071   1.081   7.870 -0.2702 -0.2064 -0.7035
  126OSM   C10F13488   0.009   0.896   7.944 -0.1898 -0.4139  0.6514
  126OSM   H10F13489  -0.056   0.946   8.018 -0.3488  0.1869  0.1076
  126OSM   C11F13490  -0.009   0.754   7.961 -0.2958  0.1838  0.0774
  126OSM   H11F13491   0.078   0.694   7.925 -0.2786 -0.7754  1.6369
  126OSM   H11G13492  -0.098   0.711   7.909 -2.2267  0.1710  3.1599
  126OSM   C12F13493  -0.004   0.704   8.110  0.3748  0.6115  0.0613
  126OSM   H12F13494   0.081   0.758   8.155 -0.3301  0.7516  1.2600
  126OSM   H12G13495   0.002   0.593   8.117 -4.7231  0.1356  1.0718
  126OSM   C13F13496  -0.131   0.727   8.198  0.1111  0.3130  0.7279
  126OSM   H13F13497  -0.199   0.639   8.193  2.6129 -1.7460  1.0803
  126OSM   H13G13498  -0.194   0.805   8.151  2.0514  1.5486  0.0499
  126OSM   C14F13499  -0.110   0.766   8.345 -0.2089  0.3752  0.7034
  126OSM   H14F13500  -0.042   0.853   8.355  1.8909 -1.1401  0.3908
  126OSM   H14G13501  -0.059   0.681   8.396 -0.8456 -0.5628 -0.1803
  126OSM   C15F13502  -0.245   0.798   8.415 -0.4366 -0.1549  0.1307
  126OSM   H15F13503  -0.282   0.887   8.361  2.2114  1.8585  1.4087
  126OSM   H15G13504  -0.222   0.821   8.521  0.3751 -0.9255  0.1330
  126OSM   C16F13505  -0.352   0.689   8.413 -0.4527 -0.2901 -0.5846
  126OSM   H16F13506  -0.384   0.659   8.311 -0.9897 -0.8635 -0.2613
  126OSM   H16G13507  -0.441   0.737   8.459 -1.4294  0.6769 -3.3224
  126OSM   C17F13508  -0.314   0.567   8.504  0.2141  0.3596 -0.7634
  126OSM   H17F13509  -0.207   0.561   8.531 -0.0741 -1.6900  0.1252
  126OSM   H17G13510  -0.338   0.475   8.446 -0.1688 -0.8005  1.1524
  126OSM   C18F13511  -0.406   0.558   8.624 -0.6159 -0.3627 -0.3729
  126OSM   H18F13512  -0.514   0.564   8.598 -1.2589  2.2175  2.3635
  126OSM   H18G13513  -0.400   0.654   8.680 -1.0946  0.2173 -1.2772
  126OSM   H18H13514  -0.392   0.469   8.688  0.5513 -1.0903 -1.5875
  127OSM      N13515   5.966   3.601   6.157  0.1601  0.6555 -0.3898
  127OSM    C1513516   5.922   3.743   6.165  0.2515 -0.0169 -0.0420
  127OSM   H15A13517   5.820   3.742   6.200 -0.5534 -0.0679 -2.2530
  127OSM   H15B13518   5.928   3.783   6.065  0.2128 -0.4949 -0.2371
  127OSM   H15C13519   5.978   3.807   6.232  1.4122  0.3448 -1.3023
  127OSM    C1413520   5.868   3.514   6.091  0.2941  0.2139 -0.0775
  127OSM   H14A13521   5.908   3.424   6.047 -0.1013  0.5188 -1.0896
  127OSM   H14B13522   5.821   3.559   6.005  1.0807  1.0487 -0.0756
  127OSM   H14C13523   5.788   3.488   6.160  0.2074 -0.2032 -0.3293
  127OSM    C1313524   6.095   3.593   6.086 -0.4867  0.3989 -0.6859
  127OSM   H13A13525   6.147   3.686   6.107 -0.4079  0.2138 -0.0271
  127OSM   H13B13526   6.089   3.589   5.978  0.8614 -1.2210 -0.7456
  127OSM   H13C13527   6.156   3.513   6.126  0.0255  0.7628 -0.7241
  127OSM    C1213528   5.980   3.548   6.301 -0.1841  0.4096  0.2574
  127OSM   H12A13529   6.069   3.596   6.337 -1.0671  1.7006  0.8210
  127OSM   H12B13530   6.001   3.442   6.305  2.4225  0.8568  0.0283
  127OSM    C1113531   5.855   3.560   6.398 -0.3809 -0.3579  1.0238
  127OSM   H11A13532   5.845   3.668   6.425 -3.7113 -0.1198 -0.6326
  127OSM   H11B13533   5.883   3.505   6.491  1.0326  0.3223  1.0248
  127OSM      P13534   5.598   3.578   6.420 -0.1342 -0.2720 -0.0952
  127OSM    O1313535   5.601   3.731   6.423  0.1175  1.6474 -0.5828
  127OSM    O1413536   5.488   3.508   6.354  0.6650  0.4416  0.3264
  127OSM    O1113537   5.609   3.523   6.572  0.0919 -0.0015  0.0259
  127OSM    O1213538   5.724   3.525   6.348  0.5210  0.3348 -0.1616
  127OSM    C1S13539   5.638   3.394   6.606  0.4309  0.0267  0.6273
  127OSM    H1S13540   5.742   3.362   6.583 -0.3129 -3.0496  1.0548
  127OSM    H1T13541   5.560   3.323   6.569  1.0713  0.0816 -0.8844
  127OSM     NF13542   5.698   3.257   6.800 -0.0408  0.2024  1.1655
  127OSM    HNF13543   5.644   3.174   6.809 -0.9190  0.7872  1.4668
  127OSM    C2S13544   5.645   3.383   6.764 -0.4095  0.1032 -0.1711
  127OSM    H2S13545   5.708   3.464   6.807 -0.6879 -1.5272  3.7441
  127OSM    C3S13546   5.503   3.410   6.818 -0.2498 -0.2610 -0.6172
  127OSM    H3S13547   5.425   3.341   6.781 -1.3046 -0.3884  1.6470
  127OSM     O313548   5.461   3.533   6.782 -0.0659 -0.0245  0.5153
  127OSM    HO313549   5.521   3.553   6.710  0.0084 -0.4726  0.4557
  127OSM    C4S13550   5.497   3.410   6.973  0.5445  0.2828 -0.3141
  127OSM    H4S13551   5.542   3.493   7.029 -1.3632  1.3140 -0.2461
  127OSM    C5S13552   5.425   3.319   7.037  0.5432  0.3303  0.0731
  127OSM    H5S13553   5.371   3.243   6.979  0.1267  1.4494 -1.0496
  127OSM    C6S13554   5.414   3.320   7.182  0.1905  0.2732  0.0376
  127OSM    H6S13555   5.432   3.221   7.228 -0.5185  1.3954  2.9703
  127OSM    H6T13556   5.310   3.334   7.217 -0.1709 -0.5413 -0.6966
  127OSM    C7S13557   5.499   3.415   7.271 -0.8901  1.3324 -0.9510
  127OSM    H7S13558   5.467   3.521   7.262  0.9595  2.0522  0.3748
  127OSM    H7T13559   5.606   3.400   7.244 -0.5802  0.1443  0.7746
  127OSM    C8S13560   5.482   3.376   7.420  0.4603  0.2480 -0.3780
  127OSM    H8S13561   5.531   3.277   7.435  0.2410  0.3398  1.1258
  127OSM    H8T13562   5.374   3.366   7.446  0.6562 -0.0283  0.3542
  127OSM    C9S13563   5.527   3.480   7.515 -0.2675 -0.2501  0.0505
  127OSM    H9S13564   5.478   3.578   7.494  1.2420  1.2619  2.9407
  127OSM    H9T13565   5.638   3.493   7.513 -0.0143 -1.6139  1.9658
  127OSM   C10S13566   5.491   3.439   7.661 -0.0774 -0.4690 -0.5714
  127OSM   H10S13567   5.543   3.344   7.683  2.8757  0.7476 -1.7474
  127OSM   H10T13568   5.382   3.418   7.661  0.1288 -1.6100 -0.7314
  127OSM   C11S13569   5.540   3.546   7.764  0.1110  0.4440 -0.8117
  127OSM   H11S13570   5.469   3.631   7.768 -0.4306 -0.0120 -0.5624
  127OSM   H11T13571   5.639   3.591   7.742  0.4214  0.9796  1.4444
  127OSM   C12S13572   5.543   3.500   7.918 -0.8706 -0.1765  0.2591
  127OSM   H12S13573   5.609   3.411   7.924 -0.3223  0.1885 -0.2273
  127OSM   H12T13574   5.441   3.468   7.948 -1.1064 -0.0190 -0.3488
  127OSM   C13S13575   5.581   3.614   8.016  0.6626  0.2310 -0.3906
  127OSM   H13S13576   5.518   3.702   7.991 -0.1545 -0.3979 -0.5852
  127OSM   H13T13577   5.686   3.651   8.004 -0.2106  2.5915 -1.4539
  127OSM   C14S13578   5.549   3.578   8.162 -0.4405 -0.3629  0.0253
  127OSM   H14S13579   5.578   3.473   8.183 -0.9717 -1.0421 -2.3458
  127OSM   H14T13580   5.439   3.591   8.173 -0.3918 -0.6002  0.8909
  127OSM   C15S13581   5.614   3.678   8.259  0.5780  0.3764 -0.3104
  127OSM   H15S13582   5.583   3.640   8.359 -1.0578  1.3765 -0.3967
  127OSM   H15T13583   5.568   3.779   8.260 -0.5558 -0.1299  0.6440
  127OSM   C16S13584   5.767   3.691   8.261  0.1958 -0.2025  0.3958
  127OSM   H16S13585   5.791   3.780   8.200  1.1139 -1.4316 -1.1136
  127OSM   H16T13586   5.830   3.608   8.221  1.1345  0.8001 -0.2668
  127OSM   C17S13587   5.816   3.723   8.403  0.0156  0.5996  0.0176
  127OSM   H17S13588   5.926   3.708   8.400 -0.3205 -2.1312 -2.0133
  127OSM   H17T13589   5.774   3.654   8.479 -3.0734  1.8725 -0.3988
  127OSM   C18S13590   5.789   3.861   8.455 -0.8063  0.2316 -0.3666
  127OSM   H18S13591   5.832   3.944   8.395 -2.3549  1.0036 -0.4529
  127OSM   H18T13592   5.826   3.866   8.559 -0.2596  1.5871 -0.6057
  127OSM   H18U13593   5.683   3.893   8.460 -0.1086  3.2417 -2.2127
  127OSM    C1F13594   5.824   3.228   6.788  0.0102 -0.0942 -0.1888
  127OSM     OF13595   5.904   3.307   6.734 -0.4316  0.0131 -0.3470
  127OSM    C2F13596   5.875   3.096   6.840  0.7616  0.3397 -0.0826
  127OSM    H2F13597   5.896   3.029   6.753  0.3883 -2.4193  1.8355
  127OSM    H2G13598   5.798   3.052   6.908  1.1659 -0.0986  0.0979
  127OSM    C3F13599   5.986   3.110   6.939 -0.6401  0.7629 -0.5239
  127OSM    H3F13600   6.080   3.131   6.884  0.6838  1.2142  1.7741
  127OSM    H3G13601   6.000   3.010   6.984 -0.8885  1.5239  1.3488
  127OSM    C4F13602   5.988   3.212   7.050  0.4223  0.3003 -0.9825
  127OSM    H4F13603   6.029   3.311   7.020  0.8344  0.8429  1.2465
  127OSM    H4G13604   6.062   3.186   7.129 -0.1724  2.0510  0.2048
  127OSM    C5F13605   5.851   3.227   7.122  0.3699  0.0600 -0.0885
  127OSM    H5F13606   5.792   3.138   7.090 -1.7808  1.6550 -0.7629
  127OSM    H5G13607   5.798   3.318   7.087 -0.0148 -0.8100 -1.8753
  127OSM    C6F13608   5.848   3.247   7.278 -0.6012  0.5148  0.1956
  127OSM    H6F13609   5.894   3.156   7.322  2.6655  1.4389 -1.0695
  127OSM    H6G13610   5.739   3.242   7.304 -0.6460  2.2225  0.4628
  127OSM    C7F13611   5.903   3.377   7.334 -0.5198 -0.0180  0.0944
  127OSM    H7F13612   5.835   3.461   7.309 -0.4914 -0.9382 -3.5944
  127OSM    H7G13613   5.999   3.392   7.281 -0.4796  3.1172  0.8882
  127OSM    C8F13614   5.930   3.362   7.487 -0.1850  0.5307 -0.9340
  127OSM    H8F13615   5.984   3.267   7.507  0.3158  1.1627  0.8933
  127OSM    H8G13616   5.834   3.360   7.543  0.5199  0.9632  0.3350
  127OSM    C9F13617   6.017   3.472   7.538  0.0096 -0.4810 -0.0116
  127OSM    H9F13618   6.080   3.519   7.461  1.5026 -1.5591  0.4959
  127OSM   C10F13619   6.022   3.528   7.658  0.1174  0.1383  0.6507
  127OSM   H10F13620   6.088   3.615   7.676  1.8240 -0.3790 -2.4108
  127OSM   C11F13621   5.934   3.494   7.774 -0.5724  0.1025 -0.6992
  127OSM   H11F13622   5.877   3.400   7.762  0.7401 -0.7068 -0.8062
  127OSM   H11G13623   5.869   3.583   7.792 -0.0382  0.6293 -1.2894
  127OSM   C12F13624   6.034   3.469   7.887  0.1873  0.4777  0.4678
  127OSM   H12F13625   6.095   3.559   7.911 -0.5958  0.8420  1.1467
  127OSM   H12G13626   6.102   3.388   7.853  1.5629  0.9371  2.0330
  127OSM   C13F13627   5.959   3.405   8.007  0.5283  0.3722 -0.0352
  127OSM   H13F13628   5.870   3.345   7.979  1.3419 -0.6495 -0.4813
  127OSM   H13G13629   5.919   3.497   8.054 -1.3746  0.0775 -0.9868
  127OSM   C14F13630   6.057   3.323   8.102  0.2072  0.5135 -1.0876
  127OSM   H14F13631   6.110   3.237   8.055 -0.3025 -1.2516  1.3484
  127OSM   H14G13632   5.995   3.277   8.182  0.0632  2.6526  0.1103
  127OSM   C15F13633   6.156   3.428   8.164 -0.0416 -0.3389  0.2508
  127OSM   H15F13634   6.099   3.505   8.220  0.2928 -0.4174  0.6961
  127OSM   H15G13635   6.209   3.478   8.080  2.4628 -0.3866  1.7285
  127OSM   C16F13636   6.257   3.358   8.260 -0.4736 -0.1813  0.1048
  127OSM   H16F13637   6.289   3.258   8.224  0.5947  0.3044 -0.3401
  127OSM   H16G13638   6.196   3.336   8.350 -0.0982  2.3640  1.0700
  127OSM   C17F13639   6.380   3.450   8.297 -0.2441  0.1106 -0.2392
  127OSM   H17F13640   6.348   3.556   8.298  0.8380  0.4758 -1.5619
  127OSM   H17G13641   6.450   3.434   8.213 -0.9493 -1.9763 -0.5016
  127OSM   C18F13642   6.452   3.418   8.431  0.1653 -0.1753  0.5941
  127OSM   H18F13643   6.541   3.484   8.438  0.1716 -0.0054 -0.8224
  127OSM   H18G13644   6.484   3.313   8.446  0.7618  0.0485  0.9473
  127OSM   H18H13645   6.380   3.431   8.515  0.4534 -1.9479  1.1479
  128OSM      N13646   4.550   0.727   6.144  0.1026  0.1600  0.0688
  128OSM    C1513647   4.416   0.754   6.206 -0.5668  0.6525 -0.1107
  128OSM   H15A13648   4.387   0.858   6.210  1.9329  1.4360 -0.5640
  128OSM   H15B13649   4.413   0.709   6.304  0.9933  1.1731  0.1938
  128OSM   H15C13650   4.336   0.703   6.153 -2.7478  0.9343  2.6533
  128OSM    C1413651   4.556   0.809   6.022  0.3541 -0.7440  0.0181
  128OSM   H14A13652   4.549   0.914   6.048  1.5035 -0.8941  0.9797
  128OSM   H14B13653   4.481   0.783   5.948 -0.6484 -2.2760  1.5103
  128OSM   H14C13654   4.655   0.797   5.981 -0.5920 -1.8899 -2.1312
  128OSM    C1313655   4.650   0.780   6.240  0.2463  0.6129  0.1840
  128OSM   H13A13656   4.655   0.887   6.254 -2.4444  0.7925  0.3342
  128OSM   H13B13657   4.743   0.736   6.208  1.4293  0.6364  3.3447
  128OSM   H13C13658   4.627   0.742   6.338 -0.0022  0.2176 -0.0236
  128OSM    C1213659   4.573   0.573   6.118  0.2590 -0.7745  0.1005
  128OSM   H12A13660   4.496   0.537   6.051  0.0669  3.8128 -2.5173
  128OSM   H12B13661   4.560   0.520   6.212  1.0054 -0.8845  0.1472
  128OSM    C1113662   4.708   0.530   6.059  0.4739 -0.6181  0.4572
  128OSM   H11A13663   4.723   0.586   5.964 -1.8939 -0.1976  0.2515
  128OSM   H11B13664   4.702   0.423   6.029  0.8660 -0.3247 -0.7561
  128OSM      P13665   4.864   0.444   6.251  0.2385 -0.3363  0.3832
  128OSM    O1313666   4.957   0.352   6.174  0.2766  0.2003  0.5919
  128OSM    O1413667   4.915   0.530   6.362 -0.4793 -0.6169  0.1460
  128OSM    O1113668   4.733   0.379   6.294 -0.4322  0.0352 -0.2587
  128OSM    O1213669   4.807   0.561   6.147 -0.6604 -0.1652  0.1038
  128OSM    C1S13670   4.729   0.258   6.368  0.2921 -0.0277  0.4636
  128OSM    H1S13671   4.816   0.189   6.364 -0.8478 -1.4703 -0.9693
  128OSM    H1T13672   4.644   0.199   6.328 -0.8478 -0.5835  3.4031
  128OSM     NF13673   4.735   0.180   6.600 -0.0520  0.3336 -0.0930
  128OSM    HNF13674   4.653   0.136   6.636 -0.9682  0.4767 -1.8962
  128OSM    C2S13675   4.711   0.294   6.517 -0.6551 -0.2981  0.2306
  128OSM    H2S13676   4.792   0.369   6.534  0.5266 -1.3940 -0.3755
  128OSM    C3S13677   4.577   0.362   6.539 -0.2423  0.0807  0.0498
  128OSM    H3S13678   4.494   0.289   6.534  1.1220 -1.5823  0.4860
  128OSM     O313679   4.540   0.462   6.440 -0.0114  0.0223 -0.0660
  128OSM    HO313680   4.617   0.470   6.383 -0.4492  2.7413 -0.4037
  128OSM    C4S13681   4.575   0.430   6.678 -0.2715  0.3520  0.1562
  128OSM    H4S13682   4.656   0.502   6.696 -0.8846  1.1002 -0.0416
  128OSM    C5S13683   4.490   0.390   6.773 -0.8536  0.8059 -0.4410
  128OSM    H5S13684   4.426   0.306   6.743 -0.5641  0.0597  0.9660
  128OSM    C6S13685   4.485   0.436   6.914  0.3044 -0.6748  1.1623
  128OSM    H6S13686   4.486   0.350   6.985  1.5171  0.2708  2.3508
  128OSM    H6T13687   4.403   0.509   6.931 -0.5681 -0.6547 -2.3410
  128OSM    C7S13688   4.615   0.502   6.954 -0.2085 -0.6509  0.3263
  128OSM    H7S13689   4.633   0.601   6.907  1.3656 -1.0719 -0.0350
  128OSM    H7T13690   4.708   0.442   6.942 -0.9362 -1.6491 -0.4417
  128OSM    C8S13691   4.617   0.538   7.107 -0.1950 -0.0771 -0.4668
  128OSM    H8S13692   4.586   0.451   7.169  0.3026 -1.5101 -2.1374
  128OSM    H8T13693   4.549   0.624   7.121  0.4492  0.3494  0.0595
  128OSM    C9S13694   4.763   0.577   7.151  1.0151 -0.1875  0.4293
  128OSM    H9S13695   4.795   0.670   7.100 -0.3810  0.3394  0.4765
  128OSM    H9T13696   4.824   0.493   7.111 -0.4780 -0.3045 -1.7656
  128OSM   C10S13697   4.775   0.590   7.306 -0.0775  0.9618 -0.1079
  128OSM   H10S13698   4.880   0.604   7.340  0.1708 -1.8149  0.4721
  128OSM   H10T13699   4.746   0.497   7.359 -0.7914  1.9204  1.2519
  128OSM   C11S13700   4.689   0.706   7.359 -0.1681  0.2753  0.2790
  128OSM   H11S13701   4.584   0.688   7.328 -0.4615  1.8151  0.2947
  128OSM   H11T13702   4.716   0.802   7.311 -1.5474  0.5801  0.0541
  128OSM   C12S13703   4.696   0.728   7.506  0.3573 -0.1227 -0.6753
  128OSM   H12S13704   4.640   0.823   7.514 -0.6619 -0.5859 -1.9982
  128OSM   H12T13705   4.797   0.750   7.549 -0.2983  2.6031 -0.3543
  128OSM   C13S13706   4.631   0.606   7.575 -0.5367 -0.0943  0.2924
  128OSM   H13S13707   4.702   0.524   7.598  1.2982  1.7980  1.8997
  128OSM   H13T13708   4.553   0.566   7.508  0.4936 -2.1116  0.2351
  128OSM   C14S13709   4.573   0.646   7.708  0.5291  0.3148  0.0701
  128OSM   H14S13710   4.465   0.639   7.687  0.9037  0.6791 -2.2514
  128OSM   H14T13711   4.589   0.755   7.723 -1.0552  0.3569  1.7496
  128OSM   C15S13712   4.624   0.578   7.834  0.3352 -0.0455  0.2431
  128OSM   H15S13713   4.735   0.587   7.831  0.2824  0.5822  0.1077
  128OSM   H15T13714   4.594   0.471   7.821 -0.1916 -0.1356  1.9880
  128OSM   C16S13715   4.559   0.634   7.964 -0.4252  0.1687 -0.1287
  128OSM   H16S13716   4.452   0.607   7.964 -0.4391  0.1372 -2.0574
  128OSM   H16T13717   4.581   0.742   7.981 -3.2735  0.5518  1.8323
  128OSM   C17S13718   4.618   0.574   8.085 -0.9589  1.0770  0.2867
  128OSM   H17S13719   4.728   0.574   8.075 -0.8200  0.3530  1.5154
  128OSM   H17T13720   4.590   0.467   8.090 -1.9707  1.3475  0.7791
  128OSM   C18S13721   4.570   0.646   8.210  0.4357 -0.3611 -0.0511
  128OSM   H18S13722   4.611   0.749   8.215 -1.0042  0.2268  0.3441
  128OSM   H18T13723   4.606   0.600   8.305  0.8386  0.1142  0.0314
  128OSM   H18U13724   4.459   0.653   8.204  0.3607 -2.0514 -4.3401
  128OSM    C1F13725   4.855   0.120   6.623 -0.1827  0.3252 -0.0499
  128OSM     OF13726   4.957   0.184   6.613  0.0221 -0.7174  0.0136
  128OSM    C2F13727   4.855  -0.021   6.681  0.2574  0.2799 -0.0337
  128OSM    H2F13728   4.886  -0.086   6.596 -0.3668 -0.2126  0.1118
  128OSM    H2G13729   4.749  -0.042   6.706  0.4485 -0.7194 -0.0202
  128OSM    C3F13730   4.955  -0.045   6.793  0.0642 -0.1712  0.6193
  128OSM    H3F13731   5.051   0.007   6.775  0.9964 -1.7489  0.8227
  128OSM    H3G13732   4.978  -0.154   6.786 -2.7353 -0.8547  0.6222
  128OSM    C4F13733   4.911  -0.021   6.941 -0.0615 -0.1626  0.3949
  128OSM    H4F13734   5.000  -0.014   7.007 -0.4487  0.3421  0.8645
  128OSM    H4G13735   4.859  -0.117   6.962  0.6379 -0.8798 -0.9533
  128OSM    C5F13736   4.825   0.096   6.959  0.2801  0.0579  0.4098
  128OSM    H5F13737   4.728   0.080   6.906  0.8209 -0.2192 -0.5121
  128OSM    H5G13738   4.866   0.189   6.913 -1.6635  0.0017 -1.6311
  128OSM    C6F13739   4.803   0.130   7.104  0.2412 -0.5588  0.2050
  128OSM    H6F13740   4.780   0.239   7.112 -0.0215 -0.4267 -1.8577
  128OSM    H6G13741   4.890   0.095   7.163  1.0494  0.0308 -0.6038
  128OSM    C7F13742   4.669   0.067   7.164 -0.0866  0.5202  0.7763
  128OSM    H7F13743   4.676  -0.041   7.141  1.7144  0.8139 -0.2574
  128OSM    H7G13744   4.594   0.124   7.106  1.5849  0.5567 -1.4745
  128OSM    C8F13745   4.651   0.094   7.312 -0.1165  1.7416  0.8928
  128OSM    H8F13746   4.628   0.202   7.324 -0.6402  1.7373  0.0171
  128OSM    H8G13747   4.752   0.101   7.357 -0.2295  2.0402  1.1088
  128OSM    C9F13748   4.540   0.003   7.371 -0.4941  0.0815  0.0628
  128OSM    H9F13749   4.460  -0.006   7.296  0.6414 -1.6614 -1.0253
  128OSM   C10F13750   4.527  -0.056   7.494 -0.2069  0.6520  0.4190
  128OSM   H10F13751   4.435  -0.112   7.520  1.2769 -1.9990  0.3761
  128OSM   C11F13752   4.631  -0.045   7.609 -0.3492 -0.6209 -0.1256
  128OSM   H11F13753   4.699   0.039   7.580 -1.8353  0.3747 -0.8715
  128OSM   H11G13754   4.697  -0.129   7.641 -0.4808  0.1920  2.5071
  128OSM   C12F13755   4.565   0.006   7.743 -0.0911  0.0501  0.4015
  128OSM   H12F13756   4.531  -0.081   7.802 -0.8945  0.0803 -0.0057
  128OSM   H12G13757   4.482   0.072   7.711  1.3312  1.4104 -0.6596
  128OSM   C13F13758   4.661   0.081   7.832  0.0561 -1.4452 -0.1697
  128OSM   H13F13759   4.662   0.190   7.810 -0.4010 -1.6335 -1.1348
  128OSM   H13G13760   4.764   0.042   7.820  0.7101  0.3562 -0.7559
  128OSM   C14F13761   4.623   0.065   7.982  0.7326 -0.1550  0.6544
  128OSM   H14F13762   4.716   0.096   8.034  0.8199  0.9213 -0.1118
  128OSM   H14G13763   4.592  -0.039   8.003 -0.6540 -0.1409 -1.0169
  128OSM   C15F13764   4.503   0.160   8.029 -0.2079  0.8216 -0.7124
  128OSM   H15F13765   4.405   0.122   7.991 -0.3825 -0.0038  0.4676
  128OSM   H15G13766   4.527   0.264   8.001  0.1634  1.5432  1.9569
  128OSM   C16F13767   4.512   0.159   8.180 -0.0508 -0.2499 -0.0413
  128OSM   H16F13768   4.618   0.179   8.206  0.5649 -1.4525 -1.5000
  128OSM   H16G13769   4.484   0.062   8.226  0.5116  0.4082  1.7798
  128OSM   C17F13770   4.422   0.270   8.246 -0.3634 -0.1150  0.5647
  128OSM   H17F13771   4.321   0.251   8.206  0.4215 -0.8865 -1.1639
  128OSM   H17G13772   4.454   0.371   8.212 -1.5352 -0.1952 -0.8347
  128OSM   C18F13773   4.437   0.270   8.395 -0.2856  0.0151 -0.4612
  128OSM   H18F13774   4.542   0.274   8.431  0.5972 -0.7562 -2.7776
  128OSM   H18G13775   4.384   0.188   8.447 -0.7690  0.7463  0.2313
  128OSM   H18H13776   4.396   0.367   8.430 -0.1872 -0.1949  0.2568
  129OSM      N13777   3.403   1.504   6.231 -0.3758 -0.4029 -0.1004
  129OSM    C1513778   3.469   1.604   6.147 -0.3682  0.4351  0.0455
  129OSM   H15A13779   3.547   1.662   6.193  0.1122 -1.6785  2.1028
  129OSM   H15B13780   3.396   1.668   6.099  0.9244  1.2572 -0.8792
  129OSM   H15C13781   3.522   1.545   6.073 -1.6048 -0.9218  0.1825
  129OSM    C1413782   3.491   1.472   6.353 -0.3660  0.2603  0.7391
  129OSM   H14A13783   3.536   1.559   6.400  0.0567 -0.5570  1.9127
  129OSM   H14B13784   3.578   1.421   6.315  0.7602  3.2994 -1.1383
  129OSM   H14C13785   3.438   1.414   6.428  0.2580  0.2123  1.1506
  129OSM    C1313786   3.272   1.565   6.261  0.5430  0.2299  0.0418
  129OSM   H13A13787   3.209   1.491   6.308 -1.1808  1.9917  0.6280
  129OSM   H13B13788   3.214   1.592   6.174  1.4872  1.8592 -0.1333
  129OSM   H13C13789   3.279   1.653   6.324  2.4547  1.5488 -1.8411
  129OSM    C1213790   3.372   1.372   6.162 -0.0471  0.2744 -1.0014
  129OSM   H12A13791   3.469   1.339   6.129  0.0947 -1.2069  0.7536
  129OSM   H12B13792   3.321   1.376   6.067 -0.0500 -2.8717 -1.2420
  129OSM    C1113793   3.296   1.261   6.240 -0.3259  0.6167  0.4415
  129OSM   H11A13794   3.352   1.253   6.335  0.1666 -0.2460  0.0878
  129OSM   H11B13795   3.302   1.163   6.189  1.8821  0.0238  1.7335
  129OSM      P13796   3.035   1.267   6.191  0.2738  0.0739 -0.0331
  129OSM    O1313797   3.009   1.381   6.113  0.0642 -0.5318 -0.1271
  129OSM    O1413798   3.051   1.138   6.118  0.6375  0.0920  0.0900
  129OSM    O1113799   2.930   1.251   6.306  0.2707  0.0921 -0.1258
  129OSM    O1213800   3.163   1.302   6.277  0.1066 -0.3144 -0.2352
  129OSM    C1S13801   2.967   1.171   6.425  0.4956 -0.3683 -0.2614
  129OSM    H1S13802   3.061   1.207   6.472 -0.9020 -1.0097  3.3165
  129OSM    H1T13803   2.987   1.063   6.405 -0.4420 -1.2292  2.8280
  129OSM     NF13804   2.907   1.138   6.663  0.2348 -0.3593 -0.4676
  129OSM    HNF13805   2.872   1.060   6.715 -0.9012 -0.0307 -0.7304
  129OSM    C2S13806   2.854   1.182   6.536  0.0001  0.2766 -0.1032
  129OSM    H2S13807   2.834   1.291   6.550 -0.7155  0.1017  0.2418
  129OSM    C3S13808   2.727   1.112   6.486  0.4881  0.1136  0.1803
  129OSM    H3S13809   2.751   1.004   6.483  1.2318  0.2306  1.3275
  129OSM     O313810   2.680   1.132   6.354  0.0097  0.5952 -0.4677
  129OSM    HO313811   2.755   1.164   6.304  0.0971  0.1124 -0.6461
  129OSM    C4S13812   2.622   1.133   6.583 -0.4427  0.4201  0.1145
  129OSM    H4S13813   2.634   1.226   6.640  1.9964 -0.2263  0.8005
  129OSM    C5S13814   2.520   1.048   6.615 -0.2419  0.2304  0.5586
  129OSM    H5S13815   2.527   0.950   6.565  2.0992  0.2246  0.7873
  129OSM    C6S13816   2.406   1.072   6.706 -0.3266  0.1940 -0.6590
  129OSM    H6S13817   2.381   0.968   6.736 -1.6606  0.1118 -1.9502
  129OSM    H6T13818   2.310   1.089   6.653 -1.0262 -1.3896  0.0523
  129OSM    C7S13819   2.419   1.164   6.831 -0.3061 -0.1964  0.4930
  129OSM    H7S13820   2.318   1.175   6.876 -0.8217  0.9407 -0.8788
  129OSM    H7T13821   2.448   1.265   6.794 -2.6898  0.5589  0.4906
  129OSM    C8S13822   2.518   1.106   6.928  0.8258  0.5985  0.4613
  129OSM    H8S13823   2.614   1.076   6.881  1.4919 -0.5448  2.4308
  129OSM    H8T13824   2.483   1.013   6.977 -1.7553  0.7494 -0.9244
  129OSM    C9S13825   2.541   1.200   7.045  0.6788  0.2390 -0.1185
  129OSM    H9S13826   2.448   1.231   7.098  2.0939  1.9554  1.5235
  129OSM    H9T13827   2.593   1.293   7.013  1.0526 -0.2104 -0.8366
  129OSM   C10S13828   2.622   1.133   7.159 -0.3515 -0.0085  0.3351
  129OSM   H10S13829   2.720   1.099   7.119 -0.1670 -0.0745  0.8317
  129OSM   H10T13830   2.565   1.049   7.202 -3.2061  0.8703 -1.5089
  129OSM   C11S13831   2.663   1.235   7.271  0.4892 -0.6358 -0.5900
  129OSM   H11S13832   2.586   1.315   7.262  1.7856  0.7475  0.2774
  129OSM   H11T13833   2.762   1.284   7.255  1.7234 -3.0125 -0.6634
  129OSM   C12S13834   2.635   1.170   7.416  0.2623 -0.1724  0.5008
  129OSM   H12S13835   2.697   1.079   7.427 -1.1886 -1.3124 -0.3659
  129OSM   H12T13836   2.532   1.129   7.426 -0.6646  2.2753  2.1229
  129OSM   C13S13837   2.667   1.263   7.531  0.4991  0.0611  0.0504
  129OSM   H13S13838   2.609   1.356   7.509 -0.0226  0.1656  1.7284
  129OSM   H13T13839   2.774   1.290   7.541  0.7774  0.4025 -2.8905
  129OSM   C14S13840   2.613   1.213   7.665  0.2615 -0.7528 -0.0852
  129OSM   H14S13841   2.659   1.113   7.678 -0.3252 -1.1713 -1.1029
  129OSM   H14T13842   2.502   1.208   7.654  0.2821  0.9608 -1.4175
  129OSM   C15S13843   2.656   1.318   7.775  0.0539  0.0365  0.1374
  129OSM   H15S13844   2.633   1.425   7.758  0.8364 -0.1848 -2.6777
  129OSM   H15T13845   2.766   1.326   7.783 -0.0967  3.4566  0.1980
  129OSM   C16S13846   2.604   1.271   7.914 -0.4166  0.3058  0.4070
  129OSM   H16S13847   2.604   1.160   7.905 -3.7402  0.3455 -2.2520
  129OSM   H16T13848   2.501   1.311   7.927  0.0698  1.5991  0.3963
  129OSM   C17S13849   2.690   1.312   8.032  0.1751  0.0400  0.3081
  129OSM   H17S13850   2.693   1.420   8.055 -1.4038  0.4771 -1.3520
  129OSM   H17T13851   2.796   1.281   8.015 -0.0939 -0.7492 -0.0019
  129OSM   C18S13852   2.650   1.247   8.164  0.0453  0.7721 -0.5214
  129OSM   H18S13853   2.656   1.136   8.156  1.6988  0.9537 -2.4965
  129OSM   H18T13854   2.549   1.284   8.192 -0.3835  2.3676 -3.7620
  129OSM   H18U13855   2.719   1.274   8.247  0.9526 -0.7829 -0.7271
  129OSM    C1F13856   3.003   1.201   6.724  0.0809  0.6991  0.8548
  129OSM     OF13857   3.052   1.304   6.680  0.1168  0.3227 -0.8285
  129OSM    C2F13858   3.065   1.137   6.844  0.5620 -0.4405 -0.3883
  129OSM    H2F13859   3.164   1.183   6.861  0.2107  0.3418 -0.3937
  129OSM    H2G13860   3.073   1.027   6.830 -0.2818 -0.2352 -3.0807
  129OSM    C3F13861   2.982   1.176   6.968 -0.0180 -0.5504  0.0218
  129OSM    H3F13862   2.878   1.142   6.951  0.5791 -2.4948  0.0633
  129OSM    H3G13863   2.981   1.287   6.981  2.3449 -0.5232  0.3616
  129OSM    C4F13864   3.035   1.119   7.095 -1.2058  0.7350  0.5217
  129OSM    H4F13865   3.044   1.010   7.076 -2.9295  0.9457 -1.9427
  129OSM    H4G13866   2.976   1.133   7.189 -0.0685  0.8369  1.2446
  129OSM    C5F13867   3.152   1.193   7.139 -0.2652  0.3755  0.0137
  129OSM    H5F13868   3.123   1.299   7.153 -0.2257  0.3228  0.5043
  129OSM    H5G13869   3.227   1.199   7.057 -1.1638  1.0070 -0.7900
  129OSM    C6F13870   3.215   1.146   7.272 -0.0120  0.0568  0.2407
  129OSM    H6F13871   3.285   1.230   7.291  1.7966 -1.6971  1.7552
  129OSM    H6G13872   3.279   1.057   7.253 -0.9200 -0.4821 -0.3903
  129OSM    C7F13873   3.122   1.131   7.398  0.3266  0.3652  0.0324
  129OSM    H7F13874   3.199   1.106   7.474  0.5247 -4.7976 -1.4657
  129OSM    H7G13875   3.053   1.044   7.385 -0.1202  0.5835  0.8813
  129OSM    C8F13876   3.043   1.249   7.433 -0.3436  0.0105  0.2783
  129OSM    H8F13877   2.982   1.229   7.523  0.3348  1.0330  0.9943
  129OSM    H8G13878   2.976   1.283   7.351 -0.8942  1.5467  1.3108
  129OSM    C9F13879   3.111   1.378   7.465  0.3904  0.0522 -0.2040
  129OSM    H9F13880   3.104   1.459   7.391  0.6399 -0.0747 -0.3709
  129OSM   C10F13881   3.153   1.409   7.589  0.4616  0.4706 -1.0543
  129OSM   H10F13882   3.227   1.490   7.595  1.3821 -0.4552  0.8799
  129OSM   C11F13883   3.150   1.327   7.721 -0.5711 -0.7943 -0.1251
  129OSM   H11F13884   3.247   1.276   7.741  0.3327  0.7137 -0.4782
  129OSM   H11G13885   3.061   1.261   7.730 -0.0885 -1.3986  0.3119
  129OSM   C12F13886   3.138   1.423   7.839  0.3195  0.4130 -0.2595
  129OSM   H12F13887   3.041   1.474   7.820  0.9126  1.5584 -0.3091
  129OSM   H12G13888   3.223   1.494   7.835  1.3339 -0.8217 -3.0180
  129OSM   C13F13889   3.153   1.350   7.973  0.7277  0.0633 -0.2792
  129OSM   H13F13890   3.258   1.316   7.985  0.4835 -1.2846 -1.6977
  129OSM   H13G13891   3.076   1.270   7.969 -0.8015  1.4649 -0.1376
  129OSM   C14F13892   3.114   1.430   8.094 -0.1027  0.1016  0.7394
  129OSM   H14F13893   3.005   1.441   8.076  0.1192 -0.4275 -1.1270
  129OSM   H14G13894   3.170   1.526   8.099  0.5263 -0.3172  2.5393
  129OSM   C15F13895   3.125   1.343   8.220 -0.6958 -0.4935 -0.0474
  129OSM   H15F13896   3.231   1.315   8.236 -1.1014 -1.9620  0.1779
  129OSM   H15G13897   3.075   1.244   8.213  0.1770 -1.1053  1.7788
  129OSM   C16F13898   3.067   1.416   8.343 -0.1662 -0.5615  0.0388
  129OSM   H16F13899   2.957   1.407   8.328 -0.4443  1.3019  0.7918
  129OSM   H16G13900   3.104   1.520   8.345  2.0873 -1.2711 -0.9780
  129OSM   C17F13901   3.094   1.346   8.481  0.3140 -0.0585  0.3929
  129OSM   H17F13902   3.104   1.423   8.561  1.8192  1.3483 -1.0916
  129OSM   H17G13903   3.196   1.303   8.472  1.0305  1.7363 -0.5443
  129OSM   C18F13904   3.006   1.223   8.507  0.4537 -0.0926  0.5062
  129OSM   H18F13905   3.007   1.183   8.611  0.9288  1.4290  1.1102
  129OSM   H18G13906   3.037   1.139   8.441  0.1303 -0.5597  0.9482
  129OSM   H18H13907   2.903   1.253   8.480  1.1132  0.5281 -1.5248
  130OSM      N13908   4.412   5.060   5.845 -0.9487  0.1566 -0.5619
  130OSM    C1513909   4.356   5.192   5.813 -0.2559  0.3692  0.0445
  130OSM   H15A13910   4.317   5.203   5.713 -0.6674  1.1702  0.2846
  130OSM   H15B13911   4.430   5.270   5.825  1.3269 -0.6010 -2.5391
  130OSM   H15C13912   4.271   5.220   5.874  0.1938 -0.3739  1.0477
  130OSM    C1413913   4.520   5.028   5.746  0.2336 -0.2203  0.0895
  130OSM   H14A13914   4.620   5.067   5.762 -0.2515  1.5594 -0.9840
  130OSM   H14B13915   4.495   5.067   5.649  1.6294 -0.4317 -0.3831
  130OSM   H14C13916   4.538   4.922   5.739 -1.2744 -0.5136  0.3956
  130OSM    C1313917   4.479   5.066   5.977 -0.4876 -0.1657  0.1268
  130OSM   H13A13918   4.557   5.140   5.991  0.1142 -0.8983  0.7579
  130OSM   H13B13919   4.519   4.968   5.998 -1.3608 -0.5236  0.1189
  130OSM   H13C13920   4.401   5.075   6.051  0.9231 -1.9676  1.9604
  130OSM    C1213921   4.298   4.963   5.851  0.2503  0.6510 -0.5348
  130OSM   H12A13922   4.337   4.867   5.879 -0.4713 -0.0438 -1.8194
  130OSM   H12B13923   4.251   4.953   5.754 -1.1200  0.3737  0.1468
  130OSM    C1113924   4.178   4.999   5.953 -0.8393 -0.5954 -0.1459
  130OSM   H11A13925   4.102   4.922   5.925  0.2462 -1.3455 -1.1122
  130OSM   H11B13926   4.145   5.104   5.939 -0.4878 -0.4981 -0.2356
  130OSM      P13927   4.229   4.874   6.179 -0.0259  0.1116 -0.5985
  130OSM    O1313928   4.091   4.830   6.219 -0.3356 -0.4540 -0.1756
  130OSM    O1413929   4.326   4.774   6.129 -0.3873 -0.0522  0.0843
  130OSM    O1113930   4.296   4.942   6.304  0.4734 -0.4464  0.1728
  130OSM    O1213931   4.226   4.985   6.081  0.2564  0.1532  0.1092
  130OSM    C1S13932   4.249   4.935   6.441 -1.1090 -0.0996  0.2718
  130OSM    H1S13933   4.238   4.831   6.478 -1.7763  0.6570  2.3249
  130OSM    H1T13934   4.152   4.989   6.449 -0.3077  1.6086 -0.8738
  130OSM     NF13935   4.333   4.963   6.672  0.4592 -0.1281 -0.1538
  130OSM    HNF13936   4.285   5.029   6.731  0.4149 -1.7274  1.7052
  130OSM    C2S13937   4.357   4.996   6.537  0.2522 -0.4576  0.8367
  130OSM    H2S13938   4.450   4.943   6.505 -0.4565 -2.0919  1.3777
  130OSM    C3S13939   4.366   5.153   6.515 -0.1041 -0.8891 -0.1244
  130OSM    H3S13940   4.288   5.203   6.576  1.9337  2.1362  0.1931
  130OSM     O313941   4.357   5.193   6.379  0.4372 -0.1967 -0.2176
  130OSM    HO313942   4.354   5.110   6.332 -0.6069  0.6016 -1.6436
  130OSM    C4S13943   4.489   5.199   6.581  0.3942 -0.4522 -0.2066
  130OSM    H4S13944   4.475   5.247   6.679  1.6550  1.2301 -0.8084
  130OSM    C5S13945   4.618   5.181   6.536  0.5753  0.5511  0.2391
  130OSM    H5S13946   4.644   5.134   6.440  0.4224  0.0548  0.4425
  130OSM    C6S13947   4.726   5.238   6.619  0.0058 -0.3953  0.2933
  130OSM    H6S13948   4.688   5.317   6.688 -1.6290 -2.5516  2.0162
  130OSM    H6T13949   4.797   5.294   6.554  0.0254  0.3803  0.9603
  130OSM    C7S13950   4.807   5.141   6.712  0.3978 -0.2171  0.5976
  130OSM    H7S13951   4.873   5.083   6.643 -0.8473 -0.3866 -0.4982
  130OSM    H7T13952   4.743   5.058   6.748  1.1107 -0.9153  0.2723
  130OSM    C8S13953   4.872   5.223   6.824 -0.3575 -0.3240  0.1736
  130OSM    H8S13954   4.790   5.249   6.894 -0.2531  1.4729 -0.3286
  130OSM    H8T13955   4.910   5.315   6.775 -2.0305 -1.4235 -3.5708
  130OSM    C9S13956   4.978   5.154   6.904 -0.5226 -0.3243  0.3746
  130OSM    H9S13957   5.060   5.117   6.840  0.3311 -2.3285  2.4924
  130OSM    H9T13958   4.922   5.069   6.951 -0.6800  0.0258  0.8355
  130OSM   C10S13959   5.041   5.237   7.018  0.3807  0.8061  0.5011
  130OSM   H10S13960   5.083   5.335   6.985  2.3359 -0.3165 -0.5059
  130OSM   H10T13961   5.126   5.179   7.059  0.3460  1.2199  1.1721
  130OSM   C11S13962   4.931   5.255   7.120 -0.1245 -0.5757 -0.1556
  130OSM   H11S13963   4.898   5.156   7.157 -2.2853  0.0971 -0.1249
  130OSM   H11T13964   4.839   5.308   7.086 -0.8921 -1.0784  1.0614
  130OSM   C12S13965   4.989   5.329   7.246  0.6389  0.0946 -0.7231
  130OSM   H12S13966   4.998   5.435   7.212 -1.0329  0.1728 -1.0348
  130OSM   H12T13967   5.089   5.289   7.271  0.6481  0.6874  0.2378
  130OSM   C13S13968   4.907   5.327   7.373  0.1045  0.0936  0.1196
  130OSM   H13S13969   4.877   5.223   7.397 -1.6077  0.6140  0.4105
  130OSM   H13T13970   4.810   5.380   7.362 -0.1990 -0.6117 -0.6819
  130OSM   C14S13971   4.975   5.391   7.496 -0.2203 -0.2942 -0.3964
  130OSM   H14S13972   4.992   5.500   7.484  2.7913 -0.6578 -0.3315
  130OSM   H14T13973   5.070   5.333   7.502 -0.5030 -0.7057  0.1996
  130OSM   C15S13974   4.898   5.372   7.626 -0.2628  0.0566  0.3166
  130OSM   H15S13975   4.866   5.265   7.624  1.1695 -0.3825 -0.2638
  130OSM   H15T13976   4.808   5.437   7.616 -1.5693 -1.5162  1.2557
  130OSM   C16S13977   4.971   5.411   7.754  0.9157 -0.3589 -0.5340
  130OSM   H16S13978   5.031   5.502   7.732  0.8514 -0.6480 -1.9863
  130OSM   H16T13979   5.051   5.336   7.767  2.8562  1.8335  1.0728
  130OSM   C17S13980   4.882   5.427   7.886 -0.6239 -0.4752  0.5163
  130OSM   H17S13981   4.849   5.327   7.920 -1.6812  0.3595  2.0948
  130OSM   H17T13982   4.808   5.509   7.880  0.4979  0.5180 -0.2457
  130OSM   C18S13983   4.983   5.469   8.002  0.6316  0.3829 -0.2837
  130OSM   H18S13984   4.931   5.509   8.092  0.0955  3.6433 -1.8806
  130OSM   H18T13985   5.047   5.543   7.949 -1.3070  1.6411 -0.9980
  130OSM   H18U13986   5.042   5.379   8.028 -0.1508 -0.0774 -0.0778
  130OSM    C1F13987   4.350   4.835   6.720 -0.1850 -0.4344  0.1367
  130OSM     OF13988   4.401   4.748   6.651  0.0078 -0.0593 -0.0026
  130OSM    C2F13989   4.301   4.814   6.859  0.5423 -0.1273  0.7611
  130OSM    H2F13990   4.193   4.837   6.868  0.2035 -2.0117  2.1155
  130OSM    H2G13991   4.374   4.876   6.916 -1.2659  1.8981  0.9811
  130OSM    C3F13992   4.317   4.671   6.903 -0.8174 -0.3157  0.0023
  130OSM    H3F13993   4.419   4.629   6.883 -1.7881 -1.3254 -3.7801
  130OSM    H3G13994   4.253   4.608   6.838 -0.9824 -1.9411  1.6497
  130OSM    C4F13995   4.275   4.646   7.046  0.0118  0.0410  0.4096
  130OSM    H4F13996   4.314   4.548   7.078  0.6198  0.1049 -0.1254
  130OSM    H4G13997   4.164   4.644   7.046  0.0069  0.1283 -0.1800
  130OSM    C5F13998   4.313   4.750   7.144 -0.0970 -0.6382 -0.4337
  130OSM    H5F13999   4.243   4.837   7.140  2.0462  1.1799 -0.8138
  130OSM    H5G14000   4.409   4.797   7.110 -1.6964  0.3830 -4.0826
  130OSM    C6F14001   4.323   4.704   7.289 -0.7628  0.1761  0.1625
  130OSM    H6F14002   4.398   4.622   7.285 -2.2002 -1.3735  2.1791
  130OSM    H6G14003   4.227   4.654   7.315  0.0645 -0.7823  1.4921
  130OSM    C7F14004   4.360   4.813   7.390 -0.0299 -0.5177 -0.2912
  130OSM    H7F14005   4.294   4.902   7.392 -1.8039 -1.7821  2.1651
  130OSM    H7G14006   4.464   4.840   7.359 -0.0004  2.0882  1.7516
  130OSM    C8F14007   4.368   4.752   7.529 -0.7832  0.2292 -0.8810
  130OSM    H8F14008   4.422   4.811   7.606  0.5382 -2.0217  0.0028
  130OSM    H8G14009   4.420   4.654   7.526 -3.1308 -1.2949  2.3217
  130OSM    C9F14010   4.227   4.720   7.573 -0.3079 -0.0466 -0.7967
  130OSM    H9F14011   4.150   4.742   7.498 -1.3153  2.5218  0.8483
  130OSM   C10F14012   4.200   4.663   7.692  0.2895 -0.1616  0.3637
  130OSM   H10F14013   4.101   4.618   7.707 -0.6115  1.9519  1.1344
  130OSM   C11F14014   4.300   4.626   7.794  0.1410 -0.4191  0.2818
  130OSM   H11F14015   4.401   4.672   7.788  1.0469 -2.4836 -2.9297
  130OSM   H11G14016   4.321   4.518   7.779  0.5212 -0.4331  0.8866
  130OSM   C12F14017   4.232   4.653   7.925 -0.0597  0.0578  0.0739
  130OSM   H12F14018   4.296   4.620   8.010 -1.2529  0.2712  1.0960
  130OSM   H12G14019   4.138   4.593   7.925 -1.1205  1.6495  0.2622
  130OSM   C13F14020   4.204   4.798   7.956 -0.6690 -0.1442  0.1608
  130OSM   H13F14021   4.126   4.839   7.888 -0.4283 -0.1533 -0.1249
  130OSM   H13G14022   4.296   4.853   7.926  1.1597 -2.3800  1.3271
  130OSM   C14F14023   4.168   4.818   8.104 -0.6302 -0.4896 -0.1616
  130OSM   H14F14024   4.251   4.792   8.174 -0.5140 -0.6444 -0.3545
  130OSM   H14G14025   4.082   4.755   8.135 -0.0091 -0.4326  1.7940
  130OSM   C15F14026   4.137   4.965   8.137 -0.0969  0.1817 -0.2431
  130OSM   H15F14027   4.060   4.996   8.064  0.7815 -0.7362 -1.5946
  130OSM   H15G14028   4.229   5.027   8.126 -0.2074  0.1989 -1.1050
  130OSM   C16F14029   4.071   4.989   8.273 -0.0436 -0.2923 -0.7356
  130OSM   H16F14030   4.008   5.080   8.258  0.4738  0.3983  0.9778
  130OSM   H16G14031   4.145   5.019   8.350 -0.0874  0.8613 -1.1211
  130OSM   C17F14032   3.986   4.865   8.327 -0.4910 -0.1946 -0.0198
  130OSM   H17F14033   4.059   4.784   8.348 -0.1205  0.5559  1.8682
  130OSM   H17G14034   3.921   4.814   8.253 -0.2758 -2.5924  1.3210
  130OSM   C18F14035   3.905   4.888   8.457 -0.6466 -0.3738  0.0950
  130OSM   H18F14036   3.974   4.916   8.540 -0.6729  0.7931 -0.2616
  130OSM   H18G14037   3.857   4.795   8.493 -0.5940  0.3541  2.2010
  130OSM   H18H14038   3.836   4.973   8.436  0.7959  0.3546 -2.0088
  131OSM      N14039   4.211   4.273   6.317 -0.0481 -0.0433  0.0800
  131OSM    C1514040   4.337   4.196   6.311  1.0846  0.4239 -0.4612
  131OSM   H15A14041   4.407   4.232   6.385  1.9504  3.6385 -2.6537
  131OSM   H15B14042   4.383   4.203   6.213  0.7954 -1.6614 -0.7973
  131OSM   H15C14043   4.310   4.092   6.327 -1.3106  1.2867  1.7257
  131OSM    C1414044   4.134   4.247   6.447 -0.3156  0.0445 -0.2256
  131OSM   H14A14045   4.186   4.286   6.533  3.4293  0.6834 -2.5421
  131OSM   H14B14046   4.123   4.141   6.467 -0.6757 -0.1750 -1.5082
  131OSM   H14C14047   4.039   4.297   6.445 -0.4993 -0.3208 -0.9845
  131OSM    C1314048   4.227   4.426   6.303 -0.5449  0.3834 -0.8560
  131OSM   H13A14049   4.317   4.453   6.250 -0.0526 -2.1014 -1.3920
  131OSM   H13B14050   4.248   4.469   6.400  1.4132 -1.0420 -0.5931
  131OSM   H13C14051   4.140   4.483   6.273 -0.4337  1.5688  0.8711
  131OSM    C1214052   4.123   4.221   6.199 -0.2500 -0.2949  0.3765
  131OSM   H12A14053   4.183   4.235   6.110 -1.9506  0.8211 -0.6513
  131OSM   H12B14054   4.043   4.291   6.180 -0.2547 -0.6290 -1.0018
  131OSM    C1114055   4.056   4.080   6.210  0.4108  0.4588  0.2621
  131OSM   H11A14056   3.954   4.081   6.166  0.3351 -0.5878  0.3870
  131OSM   H11B14057   4.031   4.061   6.317  0.2882  1.1836  0.3703
  131OSM      P14058   4.173   3.852   6.219 -0.1877  0.1098 -0.3249
  131OSM    O1314059   4.054   3.762   6.249 -0.6793  0.4850 -0.0229
  131OSM    O1414060   4.281   3.790   6.144  0.1370  0.4664 -0.0485
  131OSM    O1114061   4.231   3.894   6.358  0.6131 -0.2391  0.1494
  131OSM    O1214062   4.136   3.983   6.140 -0.5186 -0.0778  0.5440
  131OSM    C1S14063   4.290   3.795   6.444 -0.8815  0.2400  0.6123
  131OSM    H1S14064   4.395   3.782   6.409 -0.5492 -1.6464  2.1718
  131OSM    H1T14065   4.229   3.702   6.435  0.3535 -0.5542  0.1388
  131OSM     NF14066   4.389   3.751   6.669 -0.4781  0.2342  0.2739
  131OSM    HNF14067   4.339   3.701   6.739  0.1538 -1.8085 -0.6498
  131OSM    C2S14068   4.306   3.840   6.590 -0.9369 -0.2368 -0.1098
  131OSM    H2S14069   4.343   3.945   6.586 -3.1374  0.7269  2.1666
  131OSM    C3S14070   4.162   3.857   6.645 -0.0528 -0.3973 -0.0365
  131OSM    H3S14071   4.115   3.757   6.661  0.5834 -0.4645  1.7023
  131OSM     O314072   4.075   3.934   6.563  0.2561 -0.3622 -0.4293
  131OSM    HO314073   4.088   3.898   6.476 -0.0469 -0.4553 -0.4378
  131OSM    C4S14074   4.162   3.930   6.779 -0.7499  0.3937  0.0808
  131OSM    H4S14075   4.203   4.032   6.776 -0.3566  0.2257 -1.1538
  131OSM    C5S14076   4.136   3.863   6.892  0.3214 -0.1442 -0.1056
  131OSM    H5S14077   4.093   3.762   6.898  1.6786 -0.6911  1.0054
  131OSM    C6S14078   4.153   3.920   7.031 -0.2117 -0.2702 -0.3505
  131OSM    H6S14079   4.199   4.021   7.027 -0.3218 -0.1093  1.5145
  131OSM    H6T14080   4.217   3.849   7.087 -3.0759 -2.3990  0.4352
  131OSM    C7S14081   4.013   3.918   7.096 -0.5788  0.0812 -0.2267
  131OSM    H7S14082   3.985   3.817   7.132  0.7510 -0.8349 -1.5929
  131OSM    H7T14083   3.936   3.957   7.027 -0.9619  0.0722  0.1906
  131OSM    C8S14084   4.007   3.999   7.229  0.1190 -0.4605 -0.0276
  131OSM    H8S14085   3.911   3.984   7.282  0.6369 -1.6687  0.6208
  131OSM    H8T14086   4.015   4.109   7.218  2.6482 -0.5891  0.0504
  131OSM    C9S14087   4.120   3.963   7.325  0.2452  0.2722  0.4480
  131OSM    H9S14088   4.214   3.992   7.275  2.2006 -2.1971  2.4406
  131OSM    H9T14089   4.128   3.854   7.341 -0.6509  0.1057 -0.1287
  131OSM   C10S14090   4.107   4.026   7.463 -0.7298 -0.6962  0.1180
  131OSM   H10S14091   4.093   4.135   7.452 -0.2329 -0.5352  0.9800
  131OSM   H10T14092   4.196   4.017   7.529  0.1605  1.7243 -0.6695
  131OSM   C11S14093   3.992   3.984   7.548  0.5570  0.3542  0.1710
  131OSM   H11S14094   3.998   3.873   7.540 -1.0441  0.1061  1.6574
  131OSM   H11T14095   3.897   4.011   7.497 -0.3972  1.0873  2.1995
  131OSM   C12S14096   3.994   4.030   7.694 -0.1358 -1.6355 -0.6593
  131OSM   H12S14097   3.997   4.141   7.696  0.2922 -1.6476 -0.5887
  131OSM   H12T14098   4.090   3.995   7.737 -0.2932 -1.3004 -0.0175
  131OSM   C13S14099   3.883   3.972   7.778 -0.3096 -0.2307  0.0648
  131OSM   H13S14100   3.884   3.861   7.767  1.3596  0.0022 -4.1152
  131OSM   H13T14101   3.786   4.008   7.738  0.3794 -1.1551 -2.6577
  131OSM   C14S14102   3.900   4.013   7.928  0.8435  0.0447 -0.0594
  131OSM   H14S14103   3.868   4.119   7.924  0.8795  0.2462  2.7333
  131OSM   H14T14104   4.006   4.004   7.959 -0.0014  1.3693  3.8385
  131OSM   C15S14105   3.804   3.934   8.023  0.0604 -0.3589 -0.1848
  131OSM   H15S14106   3.824   3.825   8.016 -3.5344 -1.1194 -0.6015
  131OSM   H15T14107   3.701   3.950   7.986  0.3632 -1.2483 -1.4525
  131OSM   C16S14108   3.826   3.980   8.166 -0.1203  0.7750  0.0553
  131OSM   H16S14109   3.819   4.091   8.166 -2.4314  0.6885  0.8857
  131OSM   H16T14110   3.927   3.947   8.197  1.5132 -0.8721 -5.7724
  131OSM   C17S14111   3.720   3.927   8.265  0.3405 -0.0650  0.7426
  131OSM   H17S14112   3.717   3.817   8.253 -0.4646 -0.2443  2.3360
  131OSM   H17T14113   3.617   3.949   8.231  0.7718 -0.5471 -1.0029
  131OSM   C18S14114   3.756   3.961   8.413 -0.3502 -0.0423  0.4907
  131OSM   H18S14115   3.830   3.885   8.447  0.1606  0.6974  1.0507
  131OSM   H18T14116   3.664   3.957   8.476 -1.6100 -0.1577 -1.2601
  131OSM   H18U14117   3.792   4.066   8.415  1.7538 -0.6032 -2.3474
  131OSM    C1F14118   4.518   3.747   6.649 -0.9885 -0.5301 -0.3795
  131OSM     OF14119   4.575   3.816   6.565 -0.0583  0.1131 -0.5543
  131OSM    C2F14120   4.596   3.640   6.721 -0.2248 -0.7829 -0.4112
  131OSM    H2F14121   4.650   3.574   6.650 -2.3256 -2.0327 -0.9484
  131OSM    H2G14122   4.536   3.570   6.784  1.7753 -0.4613  2.0121
  131OSM    C3F14123   4.711   3.702   6.803 -0.2220  0.8015  0.1209
  131OSM    H3F14124   4.778   3.781   6.766  1.5126  0.9633  3.2781
  131OSM    H3G14125   4.780   3.622   6.838  2.9295  2.6034 -1.5564
  131OSM    C4F14126   4.657   3.785   6.924  1.3012  0.1454 -0.1527
  131OSM    H4F14127   4.597   3.869   6.882 -0.0753 -2.0430 -2.8252
  131OSM    H4G14128   4.739   3.838   6.978  0.6166  1.7370 -0.5952
  131OSM    C5F14129   4.571   3.719   7.024  0.2893 -0.0825 -0.4179
  131OSM    H5F14130   4.616   3.626   7.064  0.6354 -0.5071 -1.7742
  131OSM    H5G14131   4.475   3.688   6.978  0.0516 -1.9005  1.1578
  131OSM    C6F14132   4.536   3.805   7.140  0.9590 -0.4603  0.0094
  131OSM    H6F14133   4.447   3.769   7.195  0.2640  0.4258 -0.4990
  131OSM    H6G14134   4.517   3.910   7.109 -0.4274  0.2054  2.8437
  131OSM    C7F14135   4.639   3.811   7.249  1.0559  0.4440 -0.5924
  131OSM    H7F14136   4.737   3.834   7.203  2.0889  0.0910  1.2998
  131OSM    H7G14137   4.639   3.709   7.294  1.6553  0.0177 -1.5445
  131OSM    C8F14138   4.593   3.905   7.365 -0.7910  0.4481 -0.4250
  131OSM    H8F14139   4.484   3.890   7.383 -0.2570 -4.1799  0.0220
  131OSM    H8G14140   4.598   4.009   7.325 -1.1527  0.3420 -0.7532
  131OSM    C9F14141   4.670   3.896   7.497 -0.2164 -0.6330 -0.2643
  131OSM    H9F14142   4.777   3.920   7.494  0.1977 -1.8790  2.1272
  131OSM   C10F14143   4.626   3.867   7.621  0.2336  0.2713  0.2124
  131OSM   H10F14144   4.703   3.865   7.699 -0.8676  0.0990  1.3327
  131OSM   C11F14145   4.484   3.833   7.650  0.0834 -0.0038 -0.0623
  131OSM   H11F14146   4.431   3.812   7.555  2.2366  0.0412 -1.3233
  131OSM   H11G14147   4.442   3.917   7.710 -0.4845 -1.3421  1.4982
  131OSM   C12F14148   4.464   3.715   7.750 -0.6283 -0.1909  0.5352
  131OSM   H12F14149   4.511   3.622   7.711  0.3433  0.7565 -0.6684
  131OSM   H12G14150   4.356   3.692   7.737 -0.9328  0.8423  1.1447
  131OSM   C13F14151   4.516   3.743   7.898 -0.1675 -0.2272  0.2907
  131OSM   H13F14152   4.438   3.804   7.949 -2.7767 -0.9702 -2.5276
  131OSM   H13G14153   4.610   3.802   7.891 -1.5688  1.9857 -0.9158
  131OSM   C14F14154   4.549   3.620   7.981 -0.1421 -0.5750 -0.7644
  131OSM   H14F14155   4.640   3.583   7.928  1.0151 -0.7746  1.2655
  131OSM   H14G14156   4.468   3.544   7.984 -0.6621 -0.0835 -1.7497
  131OSM   C15F14157   4.595   3.651   8.123 -0.3627 -0.5556  0.1731
  131OSM   H15F14158   4.502   3.679   8.176 -0.6749 -0.8987 -0.1968
  131OSM   H15G14159   4.667   3.735   8.138  0.6449 -1.0727 -1.5275
  131OSM   C16F14160   4.651   3.530   8.197 -0.0171  0.4981 -0.3251
  131OSM   H16F14161   4.657   3.560   8.304 -1.3062 -0.0060 -0.0850
  131OSM   H16G14162   4.753   3.502   8.165  0.3717  0.1599  1.1589
  131OSM   C17F14163   4.550   3.414   8.186 -0.7376 -0.2251 -0.3400
  131OSM   H17F14164   4.576   3.366   8.090  3.4565 -0.0797  0.5420
  131OSM   H17G14165   4.442   3.441   8.180 -0.7522 -0.4353 -1.1500
  131OSM   C18F14166   4.577   3.311   8.297  0.4492  0.2636 -0.9081
  131OSM   H18F14167   4.537   3.353   8.392 -1.4483  1.0934 -2.0050
  131OSM   H18G14168   4.687   3.306   8.314  0.8799  4.3233 -1.4385
  131OSM   H18H14169   4.538   3.208   8.283 -3.9634  1.3496  1.3793
  132OSM      N14170   0.586   6.623   5.970 -0.3185 -0.6484  0.3933
  132OSM    C1514171   0.626   6.473   5.982 -0.6893  0.5296 -0.1479
  132OSM   H15A14172   0.707   6.446   6.047  0.7554 -0.1316 -2.1405
  132OSM   H15B14173   0.652   6.440   5.883  1.3252  2.4519 -0.3456
  132OSM   H15C14174   0.543   6.408   6.007  1.5766 -2.2371  0.6310
  132OSM    C1414175   0.705   6.694   5.903 -0.1200 -0.7930 -0.3245
  132OSM   H14A14176   0.798   6.672   5.953 -0.8564  0.1779  1.5793
  132OSM   H14B14177   0.701   6.802   5.896  1.2650 -0.6946  0.2374
  132OSM   H14C14178   0.723   6.653   5.805  1.2974 -1.2645  0.1109
  132OSM    C1314179   0.468   6.644   5.883  0.0847 -0.3075 -0.3865
  132OSM   H13A14180   0.377   6.616   5.934  0.2575 -1.4984 -0.7069
  132OSM   H13B14181   0.485   6.572   5.805  1.0291 -0.8973  0.3281
  132OSM   H13C14182   0.474   6.747   5.851  0.2486 -0.3460 -0.4795
  132OSM    C1214183   0.574   6.687   6.104  0.1540  0.4622 -0.0933
  132OSM   H12A14184   0.552   6.792   6.086  0.0039  0.4081 -0.2345
  132OSM   H12B14185   0.670   6.683   6.153 -0.6083 -1.4453  1.3174
  132OSM    C1114186   0.481   6.637   6.219 -0.5421 -0.1274 -0.0937
  132OSM   H11A14187   0.513   6.695   6.308 -0.7822 -0.6187  0.3185
  132OSM   H11B14188   0.509   6.532   6.243 -1.3300 -0.3428 -0.0961
  132OSM      P14189   0.282   6.795   6.190 -0.2833  0.0422 -0.1048
  132OSM    O1314190   0.375   6.897   6.141 -0.3785  0.1296  0.4741
  132OSM    O1414191   0.149   6.803   6.132 -0.5107 -0.2090 -0.0116
  132OSM    O1114192   0.268   6.824   6.343  0.0091 -0.6178 -0.4895
  132OSM    O1214193   0.340   6.647   6.185  0.5703 -0.7443  0.1458
  132OSM    C1S14194   0.168   6.757   6.424 -0.4612 -0.0850 -0.0542
  132OSM    H1S14195   0.188   6.648   6.433 -1.5809 -0.1811  1.6450
  132OSM    H1T14196   0.071   6.782   6.376 -0.0310  0.8850 -0.4376
  132OSM     NF14197   0.064   6.737   6.653  0.9250 -1.0214  0.1624
  132OSM    HNF14198  -0.032   6.766   6.655  1.5545  1.2460  0.6161
  132OSM    C2S14199   0.148   6.815   6.572  0.3718 -0.3214  0.3285
  132OSM    H2S14200   0.247   6.822   6.622  0.1404  2.0388  0.5627
  132OSM    C3S14201   0.115   6.969   6.570 -0.0465  0.1417  0.4827
  132OSM    H3S14202   0.009   6.986   6.539  0.3478  2.2633  0.1741
  132OSM     O314203   0.185   7.034   6.461  0.1063 -0.1387 -0.4536
  132OSM    HO314204   0.225   6.963   6.410  1.9994 -0.3780  1.2058
  132OSM    C4S14205   0.131   7.044   6.695  0.1028  0.2706  0.2844
  132OSM    H4S14206   0.236   7.062   6.723  0.1344 -3.3125  3.3141
  132OSM    C5S14207   0.031   7.081   6.776  0.1530  0.0249  0.4649
  132OSM    H5S14208  -0.073   7.059   6.749  0.6510 -0.6040 -1.0412
  132OSM    C6S14209   0.061   7.164   6.899  0.8718 -0.2496 -0.1580
  132OSM    H6S14210  -0.037   7.211   6.923  0.0380 -1.1806 -1.6373
  132OSM    H6T14211   0.121   7.253   6.870  0.4232 -0.8522 -3.2217
  132OSM    C7S14212   0.101   7.085   7.015  0.2577  0.0735 -0.2049
  132OSM    H7S14213   0.212   7.078   7.016  0.2974  0.5276 -0.8872
  132OSM    H7T14214   0.066   6.979   7.018  0.1853  0.1010 -0.0409
  132OSM    C8S14215   0.054   7.152   7.146  0.2447  0.0845 -0.0787
  132OSM    H8S14216  -0.050   7.116   7.165 -0.3711  1.7458 -0.1515
  132OSM    H8T14217   0.069   7.260   7.127  0.8024  0.2074  0.9948
  132OSM    C9S14218   0.134   7.120   7.282  0.2276 -0.0071 -0.0075
  132OSM    H9S14219   0.234   7.165   7.267 -0.5080  1.1619 -1.8292
  132OSM    H9T14220   0.138   7.009   7.280  1.2561  0.0236 -0.4198
  132OSM   C10S14221   0.070   7.189   7.399 -0.3488 -0.3067 -0.9216
  132OSM   H10S14222  -0.036   7.155   7.406 -1.0750  1.9932 -0.0357
  132OSM   H10T14223   0.070   7.299   7.388  1.1923 -0.3544 -1.8033
  132OSM   C11S14224   0.145   7.152   7.524 -0.4926  0.9062 -0.6727
  132OSM   H11S14225   0.249   7.183   7.549 -0.6390  0.4130  0.5930
  132OSM   H11T14226   0.160   7.042   7.517 -0.3160  0.9598 -1.1803
  132OSM   C12S14227   0.046   7.165   7.643 -0.1872 -0.1700 -0.4243
  132OSM   H12S14228  -0.055   7.130   7.612 -1.2574  1.3802  1.1051
  132OSM   H12T14229   0.026   7.272   7.668 -0.9308 -0.2427 -0.6641
  132OSM   C13S14230   0.080   7.084   7.768  0.1470  0.1256  0.4539
  132OSM   H13S14231   0.186   7.108   7.793 -0.2821  3.7034 -0.5577
  132OSM   H13T14232   0.065   6.979   7.735  1.1934  0.3484 -0.8194
  132OSM   C14S14233  -0.006   7.123   7.889 -0.3037 -0.7772 -0.5772
  132OSM   H14S14234  -0.105   7.075   7.872  0.4000 -1.7401 -2.2290
  132OSM   H14T14235  -0.032   7.230   7.904 -3.3177 -1.7711  2.5580
  132OSM   C15S14236   0.045   7.072   8.023  0.1199 -0.0348 -0.1236
  132OSM   H15S14237   0.145   7.119   8.032  0.8983 -1.2101 -1.8805
  132OSM   H15T14238   0.059   6.962   8.013  1.1280  0.2344 -2.2018
  132OSM   C16S14239  -0.041   7.111   8.142 -0.4985  0.2041 -0.0187
  132OSM   H16S14240  -0.145   7.070   8.140  0.0054 -1.1828  0.6627
  132OSM   H16T14241  -0.054   7.221   8.148 -1.2037  0.0602  1.6049
  132OSM   C17S14242   0.020   7.063   8.274 -0.0265  0.1760  0.5242
  132OSM   H17S14243   0.128   7.085   8.280 -0.2222  1.6858 -0.9382
  132OSM   H17T14244   0.016   6.952   8.271 -1.1612  0.1565  1.6179
  132OSM   C18S14245  -0.040   7.106   8.406  0.2857 -0.7057 -0.4830
  132OSM   H18S14246  -0.136   7.057   8.434 -0.2673  0.9403  0.6371
  132OSM   H18T14247  -0.066   7.213   8.395  1.7288 -0.4075 -1.1778
  132OSM   H18U14248   0.024   7.087   8.494  1.5735 -1.3321 -1.5172
  132OSM    C1F14249   0.091   6.606   6.677 -0.0078  0.6492 -0.3469
  132OSM     OF14250   0.205   6.558   6.655  0.8702  0.1131 -0.0654
  132OSM    C2F14251  -0.028   6.515   6.710  0.2424  0.0371 -0.1177
  132OSM    H2F14252  -0.079   6.496   6.614 -1.0881  1.1422  0.3478
  132OSM    H2G14253  -0.102   6.576   6.765 -0.1911  1.3496 -2.0620
  132OSM    C3F14254   0.014   6.388   6.785 -0.7175 -0.5160 -0.1009
  132OSM    H3F14255   0.083   6.325   6.725 -3.0591 -1.6646 -1.7492
  132OSM    H3G14256  -0.068   6.314   6.798 -0.1381 -0.8698  1.7990
  132OSM    C4F14257   0.066   6.404   6.931 -0.3525  0.0049  0.1636
  132OSM    H4F14258  -0.016   6.450   6.989 -2.3479 -1.9072 -1.0054
  132OSM    H4G14259   0.151   6.476   6.932  0.1943 -0.6181  1.9614
  132OSM    C5F14260   0.097   6.273   6.994  0.6415 -0.0328  0.4350
  132OSM    H5F14261   0.182   6.222   6.944 -0.7671 -1.6185 -0.4337
  132OSM    H5G14262   0.010   6.205   6.981  1.1013 -0.4706 -0.3963
  132OSM    C6F14263   0.128   6.288   7.143  0.8482  0.0073  0.1881
  132OSM    H6F14264   0.034   6.326   7.189  0.8248  0.2862 -0.0866
  132OSM    H6G14265   0.211   6.360   7.157 -0.5416  1.4174  1.5692
  132OSM    C7F14266   0.159   6.156   7.212  0.2459 -0.8995 -0.0927
  132OSM    H7F14267   0.244   6.098   7.171 -0.2971 -0.6741 -1.6017
  132OSM    H7G14268   0.064   6.101   7.195 -0.8068  0.3728  1.4156
  132OSM    C8F14269   0.178   6.170   7.361  0.1777 -0.5889 -0.2280
  132OSM    H8F14270   0.170   6.071   7.411  0.8302 -0.8242 -0.5782
  132OSM    H8G14271   0.108   6.242   7.409 -0.3030 -1.1800 -0.0304
  132OSM    C9F14272   0.312   6.228   7.379  0.1356  0.0627  0.0931
  132OSM    H9F14273   0.384   6.209   7.298  0.7131  1.1293  0.3411
  132OSM   C10F14274   0.357   6.308   7.474  0.1245  0.3260  0.5113
  132OSM   H10F14275   0.464   6.331   7.479  0.8214 -2.6019  0.7463
  132OSM   C11F14276   0.276   6.350   7.601  0.2004  0.2396 -0.1348
  132OSM   H11F14277   0.181   6.292   7.610  0.4940 -0.4307 -1.2002
  132OSM   H11G14278   0.247   6.456   7.610 -3.3560 -0.3297 -2.7615
  132OSM   C12F14279   0.363   6.301   7.723  0.2307 -0.2020  0.4875
  132OSM   H12F14280   0.451   6.368   7.731  0.1744 -0.2217  1.4745
  132OSM   H12G14281   0.401   6.198   7.707  0.7960 -0.0231  0.6731
  132OSM   C13F14282   0.284   6.301   7.862 -0.5164 -0.0218 -0.1366
  132OSM   H13F14283   0.342   6.239   7.934  2.0278  2.0146 -0.2679
  132OSM   H13G14284   0.187   6.251   7.845 -0.6025  0.5564 -1.3958
  132OSM   C14F14285   0.268   6.436   7.925  0.2897 -0.6073  0.3284
  132OSM   H14F14286   0.204   6.494   7.855  0.7780 -0.3647  0.0841
  132OSM   H14G14287   0.361   6.495   7.938  0.3458 -0.3868 -0.9671
  132OSM   C15F14288   0.199   6.418   8.065 -0.0665  0.7398 -0.0626
  132OSM   H15F14289   0.103   6.361   8.063 -1.1043  2.2604  2.0636
  132OSM   H15G14290   0.163   6.521   8.087 -1.8619  0.7897 -2.7377
  132OSM   C16F14291   0.292   6.347   8.162 -0.0915  0.1239  0.0411
  132OSM   H16F14292   0.394   6.363   8.122 -1.1019  1.4198 -2.2222
  132OSM   H16G14293   0.277   6.237   8.158 -0.7141  0.2125 -0.1867
  132OSM   C17F14294   0.289   6.397   8.307  0.6199  0.5654  0.9047
  132OSM   H17F14295   0.199   6.351   8.354 -0.4659  0.8030 -0.8741
  132OSM   H17G14296   0.273   6.506   8.296 -2.7249  0.2401  1.2898
  132OSM   C18F14297   0.420   6.364   8.381  0.4052  0.6644 -0.0225
  132OSM   H18F14298   0.510   6.395   8.323  0.0886  1.6100 -0.0182
  132OSM   H18G14299   0.430   6.253   8.387  0.9488  0.7329  0.3927
  132OSM   H18H14300   0.420   6.414   8.479 -0.2598  1.2573 -0.3193
  133SAPE     N14301   0.731   4.492  10.624  0.3526 -0.0147  0.0001
  133SAPE   HN114302   0.776   4.581  10.652  1.8415 -1.4528  2.4684
  133SAPE   HN214303   0.631   4.511  10.601 -0.3721 -1.4005  1.8001
  133SAPE   HN314304   0.734   4.421  10.700 -0.1428 -1.0460 -0.9113
  133SAPE   C1214305   0.796   4.427  10.505  0.1019  0.1055 -1.2338
  133SAPE  H12A14306   0.755   4.478  10.416 -1.5837  0.3246 -0.3800
  133SAPE  H12B14307   0.757   4.323  10.508 -0.1074  0.1959 -0.3697
  133SAPE   C1114308   0.945   4.437  10.524 -0.0951  0.3734 -0.1533
  133SAPE  H11A14309   0.990   4.387  10.435 -1.6190  1.9459 -1.8870
  133SAPE  H11B14310   0.982   4.385  10.615  3.0580 -0.4445 -1.7578
  133SAPE     P14311   1.144   4.599  10.520  0.0312  0.4340  0.5598
  133SAPE   O1314312   1.170   4.734  10.558  0.3099 -0.8487  0.6948
  133SAPE   O1414313   1.220   4.495  10.588 -0.0133 -0.5554  0.0839
  133SAPE   O1214314   0.996   4.566  10.540  0.3172  0.0486 -0.2782
  133SAPE   O1114315   1.175   4.584  10.366 -0.1039  0.1960  0.4940
  133SAPE    C114316   1.104   4.663  10.274 -0.5068  0.3375 -0.7162
  133SAPE    HA14317   0.995   4.656  10.296  0.0514  0.2308  2.5304
  133SAPE    HB14318   1.150   4.764  10.274  0.8910 -0.2315  1.0298
  133SAPE    C214319   1.112   4.605  10.130  0.6221  0.4178  0.3210
  133SAPE    HS14320   1.048   4.668  10.064 -1.7779 -2.5485 -0.4107
  133SAPE   O2114321   1.059   4.467  10.121  0.5621 -0.4841 -0.0941
  133SAPE   C2114322   0.947   4.453  10.044  0.1891 -0.3753 -0.3464
  133SAPE   O2214323   0.892   4.542   9.986  0.4213  0.1966 -0.3666
  133SAPE   C2214324   0.908   4.305  10.033  0.4156 -0.4035  0.4177
  133SAPE   H2R14325   0.907   4.264  10.137  1.8964  0.3169  0.7357
  133SAPE   H2S14326   0.806   4.287   9.992  0.7307 -0.3081 -0.4243
  133SAPE    C314327   1.258   4.611  10.072 -0.3907 -0.5744  1.1418
  133SAPE    HX14328   1.261   4.570   9.969  4.4940 -1.2817  1.3274
  133SAPE    HY14329   1.334   4.555  10.130 -0.6577 -2.5322 -0.3067
  133SAPE   O3114330   1.301   4.749  10.077 -0.0038 -0.5030 -0.3604
  133SAPE   C3114331   1.319   4.805   9.963  0.3546 -0.7162 -0.8764
  133SAPE   O3214332   1.302   4.763   9.852 -0.2093  0.4848  0.2965
  133SAPE   C3214333   1.361   4.945   9.995  0.3115  0.2416  0.0956
  133SAPE   H2X14334   1.430   4.946  10.082 -1.2211 -1.1627  1.3867
  133SAPE   H2Y14335   1.272   5.000  10.033  0.8630  1.6770 -0.6394
  133SAPE   C2314336   0.996   4.227   9.938  0.5701  0.4963  0.0212
  133SAPE   H3R14337   0.974   4.121   9.961 -4.3579  1.2263 -0.1821
  133SAPE   H3S14338   1.103   4.247   9.959  0.5966 -1.1017  1.5694
  133SAPE   C2414339   0.967   4.246   9.788  0.0923  0.3243 -0.3910
  133SAPE   H4R14340   0.971   4.355   9.771 -2.0047  0.9524  2.4232
  133SAPE   H4S14341   0.865   4.212   9.762  0.3596 -0.7153 -0.1702
  133SAPE   C2514342   1.060   4.179   9.692 -0.5013 -0.2582  0.0442
  133SAPE   H5R14343   1.047   4.070   9.697 -0.1166 -0.3463 -0.6576
  133SAPE   C2614344   1.148   4.228   9.605 -0.0663 -0.2539  0.0379
  133SAPE   H6R14345   1.190   4.155   9.533  1.0535  0.4308 -0.0282
  133SAPE   C2714346   1.180   4.372   9.581  0.9500  0.0135  0.1930
  133SAPE   H7R14347   1.269   4.402   9.641  1.2041  1.7798 -0.9965
  133SAPE   H7S14348   1.097   4.437   9.616  2.1869  0.8466  1.6780
  133SAPE   C2814349   1.198   4.387   9.433 -0.2555 -0.7310 -0.1985
  133SAPE   H8R14350   1.196   4.290   9.382 -1.4337 -2.6069  3.1267
  133SAPE   C2914351   1.195   4.502   9.364 -0.6251  0.5202 -0.1790
  133SAPE   H9R14352   1.196   4.495   9.255  0.2891  1.7420 -0.2677
  133SAPE  C21014353   1.175   4.639   9.418  0.7404 -0.9132  0.0260
  133SAPE  H10R14354   1.098   4.639   9.498  1.3297  3.3666  0.7820
  133SAPE  H10S14355   1.139   4.703   9.334  1.6143  1.1658  1.1700
  133SAPE  C21114356   1.294   4.699   9.481 -0.0756 -0.3729  0.5877
  133SAPE  H11R14357   1.311   4.679   9.587 -2.2438  2.2431  1.5551
  133SAPE  C21214358   1.372   4.784   9.404 -0.6854  0.6619 -0.0053
  133SAPE  H12R14359   1.462   4.820   9.457  1.2718 -3.1933 -0.3603
  133SAPE  C21314360   1.369   4.828   9.261  0.5056  0.0278 -0.1050
  133SAPE  H13R14361   1.332   4.746   9.195  0.4397  0.3794 -0.5091
  133SAPE  H13S14362   1.477   4.848   9.244  1.2139 -0.6417  2.9172
  133SAPE  C21414363   1.279   4.947   9.248 -0.1857  0.9198  0.2106
  133SAPE  H14R14364   1.185   4.947   9.305  0.9980 -0.1731  2.2705
  133SAPE  C21514365   1.308   5.051   9.172  0.2974 -0.5221  0.7784
  133SAPE  H15R14366   1.240   5.137   9.161  0.4590 -0.0919  2.7920
  133SAPE  C21614367   1.435   5.041   9.093 -0.1173 -0.5737  0.3878
  133SAPE  H16R14368   1.455   4.939   9.054 -1.0058 -0.8026  0.5249
  133SAPE  H16S14369   1.518   5.062   9.165 -1.8813  0.4665  2.2300
  133SAPE  C21714370   1.435   5.139   8.984 -0.5398 -0.8886 -0.3102
  133SAPE  H17R14371   1.541   5.144   8.949 -0.5256  1.3912 -0.1131
  133SAPE  H17S14372   1.413   5.238   9.031 -0.1273 -1.7800  1.8864
  133SAPE  C21814373   1.335   5.109   8.878  0.0505 -0.2226 -0.7495
  133SAPE  H18R14374   1.333   5.191   8.803  0.0168 -0.5935 -1.1596
  133SAPE  H18S14375   1.233   5.106   8.922  0.5633  1.8293  0.6947
  133SAPE  C21914376   1.350   4.973   8.802  0.5884  0.7039 -0.0437
  133SAPE  H19R14377   1.392   4.897   8.870  2.1270  1.3011 -0.2924
  133SAPE  H19S14378   1.438   4.974   8.734  0.8095  1.5549  0.2321
  133SAPE  C22014379   1.229   4.932   8.724 -0.0470 -0.1031  0.1041
  133SAPE  H20R14380   1.199   5.013   8.654 -0.8750  0.4546  1.0744
  133SAPE  H20S14381   1.147   4.912   8.796 -2.2463 -0.2472 -2.2947
  133SAPE  H20T14382   1.243   4.834   8.673 -0.5071 -0.3991  0.5335
  133SAPE   C3314383   1.420   5.018   9.873  0.0734 -0.3257  0.2012
  133SAPE   H3X14384   1.496   4.958   9.818  0.6532 -1.0893  1.7637
  133SAPE   H3Y14385   1.474   5.107   9.912  0.5256 -1.1562  1.5535
  133SAPE   C3414386   1.318   5.065   9.765 -0.0374 -0.5776 -0.3245
  133SAPE   H4X14387   1.242   5.127   9.817  1.9079  0.6755  1.2048
  133SAPE   H4Y14388   1.287   4.981   9.699 -0.4070  1.6285 -3.1366
  133SAPE   C3514389   1.394   5.156   9.662 -0.1357  0.4439 -0.2252
  133SAPE   H5X14390   1.461   5.091   9.601  0.0404  1.3116 -0.9847
  133SAPE   H5Y14391   1.461   5.229   9.711 -1.2126  2.0083 -0.9933
  133SAPE   C3614392   1.289   5.218   9.580 -0.1619 -0.1145  0.6304
  133SAPE   H6X14393   1.217   5.270   9.646  2.1884  5.1734 -0.4627
  133SAPE   H6Y14394   1.228   5.146   9.521 -0.8334  0.8894  0.0659
  133SAPE   C3714395   1.353   5.329   9.487 -0.0582  0.1477  0.0428
  133SAPE   H7X14396   1.443   5.277   9.449 -0.3709 -0.4071  0.0459
  133SAPE   H7Y14397   1.374   5.416   9.553 -2.8370 -0.9537  2.6167
  133SAPE   C3814398   1.259   5.372   9.376 -0.1775 -0.5618 -0.1283
  133SAPE   H8X14399   1.193   5.452   9.414 -2.5029 -1.4899 -1.9567
  133SAPE   H8Y14400   1.206   5.284   9.333  0.3831 -1.0933  0.2396
  133SAPE   C3914401   1.348   5.431   9.258  0.4778 -0.5638  0.6529
  133SAPE   H9X14402   1.415   5.351   9.221 -2.3579 -2.4543 -0.7825
  133SAPE   H9Y14403   1.394   5.528   9.290 -0.9692  0.3081  0.1969
  133SAPE  C31014404   1.250   5.451   9.145 -1.0868  0.1916  0.2412
  133SAPE  H10X14405   1.157   5.491   9.191 -0.0325  0.2063  2.4594
  133SAPE  H10Y14406   1.227   5.351   9.103 -1.1623  0.0519  0.6129
  133SAPE  C31114407   1.300   5.542   9.032  0.4221  0.2587 -0.0237
  133SAPE  H11X14408   1.401   5.525   8.989  1.1429  2.6736  0.5655
  133SAPE  H11Y14409   1.298   5.646   9.072 -0.2237  0.6775 -1.0956
  133SAPE  C31214410   1.210   5.552   8.910  0.5766  0.5278 -0.1547
  133SAPE  H12X14411   1.114   5.595   8.946  0.8696 -0.0413  1.3347
  133SAPE  H12Y14412   1.196   5.449   8.869 -1.4745  1.1811 -1.2733
  133SAPE  C31314413   1.277   5.653   8.818 -0.1630 -0.0982 -0.6119
  133SAPE  H13X14414   1.357   5.601   8.760 -0.4917 -3.0050  1.3216
  133SAPE  H13Y14415   1.312   5.743   8.873  0.3576  0.7234 -2.2115
  133SAPE  C31414416   1.172   5.716   8.726 -0.3388 -0.4337  0.2911
  133SAPE  H14X14417   1.104   5.765   8.799 -0.4352  0.4915 -0.4003
  133SAPE  H14Y14418   1.115   5.640   8.669 -0.2081 -0.5909  0.3709
  133SAPE  C31514419   1.242   5.820   8.637  0.1463  0.2733 -0.4135
  133SAPE  H15X14420   1.254   5.773   8.537  0.2212  0.7769 -0.6444
  133SAPE  H15Y14421   1.345   5.848   8.669  0.3258 -0.3092 -0.4706
  133SAPE  C31614422   1.150   5.945   8.611  0.0056 -0.4232  0.2943
  133SAPE  H16X14423   1.042   5.922   8.599  0.0677 -0.3047 -0.5583
  133SAPE  H16Y14424   1.183   5.995   8.517  1.6315 -1.9551 -0.0106
  133SAPE  C31714425   1.168   6.053   8.720 -0.2736 -1.0269 -0.6350
  133SAPE  H17X14426   1.148   6.014   8.822 -1.2490  0.0015 -0.4133
  133SAPE  H17Y14427   1.085   6.121   8.691  1.2384  1.4599  0.4545
  133SAPE  C31814428   1.300   6.138   8.705  0.7966  0.4930 -0.0418
  133SAPE  H18X14429   1.303   6.192   8.607  2.4556  0.1642 -0.2053
  133SAPE  H18Y14430   1.386   6.068   8.704  1.3245  1.1025  1.2367
  133SAPE  H18Z14431   1.308   6.200   8.796 -1.5503 -2.5936  2.5039
  134SAPE     N14432   4.242   5.115  10.561  0.9898 -0.0753  0.1422
  134SAPE   HN114433   4.206   5.190  10.624 -0.6197 -1.2409  0.6747
  134SAPE   HN214434   4.306   5.054  10.616  0.2195 -3.1287 -2.0805
  134SAPE   HN314435   4.290   5.170  10.486  0.1630  1.0467  0.3956
  134SAPE   C1214436   4.130   5.039  10.500  0.4766 -0.1605 -0.2544
  134SAPE  H12A14437   4.173   4.964  10.430  1.7085 -1.5067  1.8485
  134SAPE  H12B14438   4.060   5.107  10.447  1.2981  1.6926  0.9341
  134SAPE   C1114439   4.045   4.964  10.601 -0.2391  0.5220  0.2224
  134SAPE  H11A14440   3.960   4.920  10.544  0.6346 -1.4082  0.3068
  134SAPE  H11B14441   4.001   5.026  10.682 -0.4135 -1.5445  1.8039
  134SAPE     P14442   4.068   4.738  10.736  0.2657  0.1725 -0.0118
  134SAPE   O1314443   4.173   4.671  10.816 -0.2341  0.2098 -0.0200
  134SAPE   O1414444   3.958   4.795  10.808  0.1687 -0.0765 -0.0551
  134SAPE   O1214445   4.124   4.852  10.644  0.2476  0.7084 -0.1879
  134SAPE   O1114446   4.005   4.628  10.637  0.0466 -0.3234 -0.6337
  134SAPE    C114447   4.096   4.558  10.546  0.7398  0.2640  0.0167
  134SAPE    HA14448   4.187   4.535  10.605  0.7190  0.3516  0.0826
  134SAPE    HB14449   4.052   4.461  10.515 -1.1455  0.5763  1.4819
  134SAPE    C214450   4.134   4.638  10.417 -0.3781  0.6449  0.5516
  134SAPE    HS14451   4.182   4.736  10.438  1.1204  0.0699  0.0315
  134SAPE   O2114452   4.004   4.663  10.354 -0.2442 -0.1169  0.3573
  134SAPE   C2114453   4.005   4.758  10.260  0.1010  0.1594  0.5896
  134SAPE   O2214454   4.102   4.823  10.225  0.2914  0.4361  0.2232
  134SAPE   C2214455   3.869   4.762  10.191 -0.4114 -0.1561  0.3539
  134SAPE   H2R14456   3.868   4.663  10.140  1.8082 -0.5377  0.9672
  134SAPE   H2S14457   3.789   4.754  10.268  1.5281 -2.2442  2.2786
  134SAPE    C314458   4.235   4.561  10.326  0.6113 -0.2129 -0.1905
  134SAPE    HX14459   4.181   4.470  10.291  0.5974 -0.6378  0.9173
  134SAPE    HY14460   4.314   4.527  10.396  1.0188 -1.7720 -1.3341
  134SAPE   O3114461   4.289   4.633  10.225 -0.0915 -0.1708  0.5519
  134SAPE   C3114462   4.349   4.549  10.139 -0.6575  0.2656 -0.6596
  134SAPE   O3214463   4.370   4.430  10.163 -0.1578  0.3355 -1.0589
  134SAPE   C3214464   4.407   4.635  10.031 -0.4482  0.3506 -0.6133
  134SAPE   H2X14465   4.460   4.720  10.080  0.1463 -0.6923  0.6276
  134SAPE   H2Y14466   4.327   4.679   9.968  0.5540  0.9766 -1.4673
  134SAPE   C2314467   3.856   4.888  10.102 -0.0937  0.2491  0.1572
  134SAPE   H3R14468   3.952   4.927  10.063 -0.4346  0.0488 -0.9299
  134SAPE   H3S14469   3.809   4.971  10.159 -1.5621 -0.5426  0.1454
  134SAPE   C2414470   3.765   4.856   9.975 -0.0462  0.2069  0.5096
  134SAPE   H4R14471   3.753   4.951   9.919  0.5297 -0.4237 -0.7411
  134SAPE   H4S14472   3.665   4.816  10.003 -0.4660  0.9777  0.1451
  134SAPE   C2514473   3.830   4.752   9.885  0.1508  0.3379  0.4445
  134SAPE   H5R14474   3.840   4.647   9.916 -2.4831  0.1289  0.7701
  134SAPE   C2614475   3.854   4.762   9.755  0.3088 -0.2113 -0.2019
  134SAPE   H6R14476   3.899   4.675   9.706  1.1340  0.1792 -0.1445
  134SAPE   C2714477   3.837   4.878   9.661  1.2018  0.0686  0.2659
  134SAPE   H7R14478   3.835   4.978   9.710  2.1293  0.1528  0.1464
  134SAPE   H7S14479   3.743   4.879   9.602  0.5776  2.0269  1.1862
  134SAPE   C2814480   3.958   4.882   9.573 -0.3345 -0.6605 -0.4263
  134SAPE   H8R14481   4.045   4.901   9.637 -1.7242  0.4990  1.2124
  134SAPE   C2914482   3.960   4.862   9.439 -0.2091  0.6093 -0.3264
  134SAPE   H9R14483   4.063   4.858   9.399  1.0099 -0.0721  2.5847
  134SAPE  C21014484   3.836   4.825   9.350  0.9551 -0.1171  0.9302
  134SAPE  H10R14485   3.793   4.913   9.297  0.8549 -0.6569  0.0893
  134SAPE  H10S14486   3.742   4.799   9.403 -2.1148  2.8103 -2.4622
  134SAPE  C21114487   3.854   4.722   9.248 -0.3046  0.3879  0.8312
  134SAPE  H11R14488   3.799   4.628   9.270 -1.4524  1.0867  1.0382
  134SAPE  C21214489   3.921   4.748   9.134 -0.4645  0.0233 -0.1865
  134SAPE  H12R14490   3.928   4.665   9.062 -2.2645  0.3169 -0.7432
  134SAPE  C21314491   3.985   4.882   9.085 -0.0583 -0.4526  0.4425
  134SAPE  H13R14492   4.078   4.900   9.143  0.6787 -0.1685 -0.7906
  134SAPE  H13S14493   3.916   4.968   9.097 -0.4018 -0.6910  0.2047
  134SAPE  C21414494   4.028   4.875   8.940 -0.0616  0.1350  0.4011
  134SAPE  H14R14495   4.053   4.772   8.911  1.3871 -0.0748  2.2229
  134SAPE  C21514496   4.060   4.981   8.861 -0.1419 -0.2284 -0.8067
  134SAPE  H15R14497   4.093   4.963   8.757 -1.5549  1.1334 -1.5408
  134SAPE  C21614498   4.049   5.125   8.894 -0.1490  0.3117 -0.2455
  134SAPE  H16R14499   4.141   5.171   8.852  0.1108  0.6213  0.6259
  134SAPE  H16S14500   4.061   5.137   9.004 -2.1723 -1.8209  0.2786
  134SAPE  C21714501   3.932   5.203   8.832  0.0554 -0.6159 -0.6127
  134SAPE  H17R14502   3.920   5.300   8.885 -2.0294 -1.2995  0.2739
  134SAPE  H17S14503   3.842   5.139   8.839 -1.1096  1.0717  0.7564
  134SAPE  C21814504   3.954   5.225   8.678  0.1167 -0.2211  0.6789
  134SAPE  H18R14505   3.854   5.227   8.629 -0.3035 -1.0002  1.4647
  134SAPE  H18S14506   4.015   5.138   8.645 -0.7222 -0.1565 -1.1861
  134SAPE  C21914507   4.036   5.353   8.647  0.2066 -0.2851  0.2495
  134SAPE  H19R14508   4.113   5.370   8.725  0.9503  0.5735 -0.6475
  134SAPE  H19S14509   3.967   5.439   8.655  1.0671  0.8517 -2.9683
  134SAPE  C22014510   4.118   5.351   8.511 -0.6368 -0.2041  0.5989
  134SAPE  H20R14511   4.189   5.266   8.515 -2.1445 -1.7339 -1.9718
  134SAPE  H20S14512   4.190   5.436   8.509 -0.6748 -0.1801  0.0764
  134SAPE  H20T14513   4.074   5.341   8.409  2.7736  0.6775 -1.1306
  134SAPE   C3314514   4.498   4.550   9.941  0.4893  0.0944 -0.1391
  134SAPE   H3X14515   4.488   4.582   9.835  0.5523  0.9913  0.1165
  134SAPE   H3Y14516   4.462   4.445   9.937 -1.2715  0.6997 -2.0047
  134SAPE   C3414517   4.648   4.552   9.994  0.3209 -0.4483 -0.1376
  134SAPE   H4X14518   4.661   4.518  10.099  1.2876  0.9482  0.2183
  134SAPE   H4Y14519   4.688   4.656   9.991  0.7497 -0.6252 -1.0303
  134SAPE   C3514520   4.748   4.475   9.901 -0.0227 -0.2305  0.6343
  134SAPE   H5X14521   4.740   4.365   9.920  2.6953 -0.5616  0.2939
  134SAPE   H5Y14522   4.847   4.492   9.947 -0.5392  0.1333  1.6472
  134SAPE   C3614523   4.736   4.507   9.750  0.2481 -0.5354  0.8952
  134SAPE   H6X14524   4.739   4.617   9.741 -0.6948 -0.4670  1.3029
  134SAPE   H6Y14525   4.635   4.484   9.710 -0.4188 -1.1466  2.8026
  134SAPE   C3714526   4.832   4.435   9.654 -0.3979 -0.0200 -0.6094
  134SAPE   H7X14527   4.825   4.326   9.676 -1.2158  0.0002 -0.7386
  134SAPE   H7Y14528   4.939   4.466   9.664  0.8508 -3.9332 -0.1436
  134SAPE   C3814529   4.808   4.467   9.505 -0.2095  0.3446 -0.2416
  134SAPE   H8X14530   4.809   4.579   9.508 -1.7418  0.3652  0.2004
  134SAPE   H8Y14531   4.706   4.438   9.473 -0.4259  0.5827  0.2143
  134SAPE   C3914532   4.919   4.417   9.417 -0.0543 -0.7009 -0.8186
  134SAPE   H9X14533   4.936   4.308   9.424 -0.0540 -0.7439 -1.5020
  134SAPE   H9Y14534   5.015   4.466   9.448 -0.3990  0.7398 -1.8984
  134SAPE  C31014535   4.907   4.461   9.269  0.3281  0.2144  0.1594
  134SAPE  H10X14536   5.001   4.428   9.220 -0.9680 -0.3467 -2.1157
  134SAPE  H10Y14537   4.906   4.571   9.254  1.1311 -0.0116 -1.7922
  134SAPE  C31114538   4.798   4.399   9.184 -0.8832  1.0503 -0.3007
  134SAPE  H11X14539   4.695   4.415   9.221 -0.2678  1.5255  1.2891
  134SAPE  H11Y14540   4.822   4.291   9.184  0.1514  1.2657 -0.1796
  134SAPE  C31214541   4.798   4.456   9.044 -0.1769  0.1082  0.3507
  134SAPE  H12X14542   4.896   4.428   8.999  0.1215  1.8332 -0.1531
  134SAPE  H12Y14543   4.798   4.567   9.050  1.7962  0.0765  1.7196
  134SAPE  C31314544   4.682   4.408   8.962  0.3552  0.0486  0.8722
  134SAPE  H13X14545   4.589   4.430   9.019 -0.3532  1.4249 -0.7390
  134SAPE  H13Y14546   4.691   4.298   8.956  0.1696 -0.1266  3.0347
  134SAPE  C31414547   4.662   4.475   8.827  0.3873  0.5595  0.3008
  134SAPE  H14X14548   4.750   4.469   8.761 -0.6365 -0.5099 -1.0220
  134SAPE  H14Y14549   4.628   4.581   8.835 -1.4115  0.1228 -0.9707
  134SAPE  C31514550   4.536   4.420   8.754  0.7864  0.3460  0.6219
  134SAPE  H15X14551   4.436   4.454   8.789 -0.0433  0.1266 -1.3736
  134SAPE  H15Y14552   4.537   4.309   8.759 -0.0403  0.3374  0.8387
  134SAPE  C31614553   4.539   4.442   8.600 -0.6908  0.9613  1.1112
  134SAPE  H16X14554   4.640   4.429   8.556 -2.0170 -2.2055 -1.4090
  134SAPE  H16Y14555   4.497   4.541   8.575 -0.3812  1.3135  1.9488
  134SAPE  C31714556   4.457   4.344   8.521  0.0690  0.1700  0.1315
  134SAPE  H17X14557   4.357   4.347   8.570  0.8686 -0.8624  1.9369
  134SAPE  H17Y14558   4.496   4.240   8.526 -0.9156 -0.2673 -0.7556
  134SAPE  C31814559   4.435   4.374   8.377 -0.5533  0.5694 -0.1631
  134SAPE  H18X14560   4.346   4.320   8.339  1.2332 -1.6864 -1.3604
  134SAPE  H18Y14561   4.530   4.355   8.322 -1.0726 -1.2594 -0.4656
  134SAPE  H18Z14562   4.410   4.482   8.368  1.0176  1.1614  1.7417
  135SAPE     N14563   2.990   3.974  10.770 -0.1042  0.8000 -0.4750
  135SAPE   HN114564   3.009   3.917  10.855 -0.1217  1.7886  0.2116
  135SAPE   HN214565   3.083   3.986  10.725  0.0479  1.2674 -0.0474
  135SAPE   HN314566   2.964   4.066  10.810  0.0481  0.6178  0.0531
  135SAPE   C1214567   2.872   3.924  10.688  0.8257 -0.3544 -0.1268
  135SAPE  H12A14568   2.786   3.935  10.758  0.5676 -1.3468 -0.2650
  135SAPE  H12B14569   2.891   3.816  10.670 -1.6095 -0.9662  0.5368
  135SAPE   C1114570   2.851   4.016  10.569  0.1676  0.1560  0.3020
  135SAPE  H11A14571   2.775   3.979  10.497 -0.3689  0.8831  0.4725
  135SAPE  H11B14572   2.948   4.018  10.514  0.3824  1.9777  0.6680
  135SAPE     P14573   2.679   4.228  10.583  0.3290  0.1266 -0.1896
  135SAPE   O1314574   2.605   4.230  10.703  0.9134  0.0986 -0.3366
  135SAPE   O1414575   2.708   4.361  10.535 -0.1709 -0.2943  0.1446
  135SAPE   O1214576   2.814   4.150  10.611  0.7935  0.1406  0.0883
  135SAPE   O1114577   2.613   4.140  10.469  0.4616 -0.2113 -0.3391
  135SAPE    C114578   2.560   4.199  10.347 -0.2760  0.3103 -0.5338
  135SAPE    HA14579   2.460   4.154  10.335 -0.0387 -0.4334  0.2157
  135SAPE    HB14580   2.536   4.308  10.351 -1.4999  0.1150 -1.8149
  135SAPE    C214581   2.657   4.171  10.227  0.2171 -0.2301 -0.1197
  135SAPE    HS14582   2.593   4.188  10.138 -1.9361 -2.0036  0.9798
  135SAPE   O2114583   2.709   4.036  10.223  0.1619  0.1153  0.0677
  135SAPE   C2114584   2.624   3.944  10.188  0.0700 -0.9351  0.4370
  135SAPE   O2214585   2.507   3.965  10.149 -0.3116 -0.2329  0.1514
  135SAPE   C2214586   2.672   3.808  10.211  0.7731 -0.1655 -0.3509
  135SAPE   H2R14587   2.697   3.788  10.318  1.2772  1.1551 -0.2043
  135SAPE   H2S14588   2.584   3.745  10.186 -0.2359  0.7448  0.7816
  135SAPE    C314589   2.784   4.256  10.222 -0.6971 -0.2047  0.3490
  135SAPE    HX14590   2.846   4.205  10.146  0.0098  2.5094 -1.0111
  135SAPE    HY14591   2.838   4.260  10.319  1.6170  2.8527 -0.9334
  135SAPE   O3114592   2.750   4.385  10.180  0.1800 -0.2589 -0.2891
  135SAPE   C3114593   2.847   4.450  10.121 -0.4412 -0.2996  0.0701
  135SAPE   O3214594   2.962   4.425  10.142  0.0239 -0.4807 -0.2225
  135SAPE   C3214595   2.797   4.554  10.022  0.3468  0.3710 -0.1781
  135SAPE   H2X14596   2.866   4.641  10.021 -0.7321  1.2557 -1.4001
  135SAPE   H2Y14597   2.699   4.589  10.062 -0.4893 -0.7371 -1.1922
  135SAPE   C2314598   2.798   3.771  10.130 -0.5004  0.8236  0.1241
  135SAPE   H3R14599   2.815   3.662  10.143 -1.5519  0.5627 -0.5226
  135SAPE   H3S14600   2.893   3.823  10.153  0.7084 -0.7612 -1.0382
  135SAPE   C2414601   2.768   3.782   9.979 -0.8008  0.5665  0.4918
  135SAPE   H4R14602   2.763   3.892   9.963  0.8515  0.7415  1.0594
  135SAPE   H4S14603   2.675   3.730   9.948 -2.0220  2.5548  0.6286
  135SAPE   C2514604   2.890   3.722   9.900 -0.0809 -0.5343  0.8431
  135SAPE   H5R14605   2.987   3.750   9.945  0.0341  0.4101  0.0428
  135SAPE   C2614606   2.882   3.645   9.794 -0.3375 -0.0965  0.5752
  135SAPE   H6R14607   2.973   3.607   9.745 -0.8272  0.7191 -1.0304
  135SAPE   C2714608   2.755   3.600   9.726  0.9189  0.5221 -0.3524
  135SAPE   H7R14609   2.677   3.675   9.754  0.5309  0.4417 -1.2054
  135SAPE   H7S14610   2.724   3.502   9.768  0.3996  1.4389  1.5503
  135SAPE   C2814611   2.759   3.593   9.576 -0.3211 -0.1608 -0.1636
  135SAPE   H8R14612   2.857   3.584   9.527  0.0122 -2.1143  0.7595
  135SAPE   C2914613   2.654   3.575   9.493 -0.2708 -0.3180 -0.1600
  135SAPE   H9R14614   2.673   3.559   9.386 -1.2710 -0.3787 -0.3341
  135SAPE  C21014615   2.510   3.556   9.538 -0.4995  0.7950  0.0666
  135SAPE  H10R14616   2.489   3.574   9.645 -0.1890  2.2920 -0.1113
  135SAPE  H10S14617   2.488   3.448   9.524 -0.9403  0.8785  0.0782
  135SAPE  C21114618   2.417   3.634   9.454  0.1221  0.2964  0.4694
  135SAPE  H11R14619   2.385   3.724   9.507  1.5210 -0.3853  2.5987
  135SAPE  C21214620   2.382   3.606   9.322 -0.9140  0.2938 -0.5787
  135SAPE  H12R14621   2.320   3.682   9.272 -1.6477  1.0752  1.3847
  135SAPE  C21314622   2.421   3.491   9.237 -0.2869 -0.5006  0.1670
  135SAPE  H13R14623   2.330   3.443   9.196 -0.9227  0.9741 -0.2010
  135SAPE  H13S14624   2.469   3.412   9.299 -2.8792 -1.8583  0.5654
  135SAPE  C21414625   2.504   3.525   9.116  0.3580 -0.8688  0.0730
  135SAPE  H14R14626   2.463   3.608   9.056 -1.9314 -0.3474  2.2010
  135SAPE  C21514627   2.618   3.480   9.069  0.2198 -0.3295  0.1390
  135SAPE  H15R14628   2.659   3.522   8.976 -0.7765  0.6252  0.1038
  135SAPE  C21614629   2.694   3.376   9.136 -0.0013  0.1363  0.4353
  135SAPE  H16R14630   2.659   3.343   9.236 -1.3114 -0.0363 -0.0530
  135SAPE  H16S14631   2.795   3.421   9.145 -0.8057  2.1879 -0.3051
  135SAPE  C21714632   2.713   3.258   9.035 -0.0908 -0.1676 -0.8572
  135SAPE  H17R14633   2.740   3.288   8.931  1.2666  1.7672  0.0148
  135SAPE  H17S14634   2.613   3.208   9.030 -0.2030 -0.1143  0.5948
  135SAPE  C21814635   2.817   3.151   9.068  0.3116  0.1869  0.1122
  135SAPE  H18R14636   2.812   3.109   9.171  0.8234 -0.2592 -0.0350
  135SAPE  H18S14637   2.920   3.193   9.069  0.1793  0.5207  1.7317
  135SAPE  C21914638   2.803   3.031   8.981 -0.1652  0.9612  0.1975
  135SAPE  H19R14639   2.824   3.051   8.874 -1.9174 -1.5116 -0.6923
  135SAPE  H19S14640   2.696   3.000   8.983  0.0321 -0.3725 -3.1288
  135SAPE  C22014641   2.890   2.916   9.032  0.6594  0.3499  0.3248
  135SAPE  H20R14642   2.878   2.906   9.142 -2.1016  1.8396  0.2440
  135SAPE  H20S14643   2.996   2.934   9.005  0.7998 -0.2567  0.4701
  135SAPE  H20T14644   2.852   2.820   8.991  0.5426 -0.2973  1.8907
  135SAPE   C3314645   2.785   4.493   9.882  0.4063 -0.2645 -0.1896
  135SAPE   H3X14646   2.751   4.389   9.899  0.9963 -0.2764  1.0824
  135SAPE   H3Y14647   2.885   4.491   9.833  0.7666  0.7366  0.4740
  135SAPE   C3414648   2.680   4.565   9.795  0.3816  0.1207  0.5886
  135SAPE   H4X14649   2.696   4.673   9.812  0.8439 -0.1742  2.1794
  135SAPE   H4Y14650   2.585   4.535   9.844 -0.0836 -0.8669 -0.8357
  135SAPE   C3514651   2.673   4.525   9.650  0.4561 -0.0737  0.3468
  135SAPE   H5X14652   2.578   4.555   9.600  0.5617  1.0108  0.7737
  135SAPE   H5Y14653   2.703   4.420   9.627  0.9866 -0.3700  2.2626
  135SAPE   C3614654   2.769   4.602   9.569  0.3843  0.8379 -0.0184
  135SAPE   H6X14655   2.870   4.607   9.613  0.0484 -0.0801  0.8954
  135SAPE   H6Y14656   2.736   4.708   9.579 -0.9444  0.2891  1.9342
  135SAPE   C3714657   2.758   4.562   9.427  0.2501  0.7541  0.8192
  135SAPE   H7X14658   2.663   4.524   9.384 -0.3144  2.0894  0.8317
  135SAPE   H7Y14659   2.826   4.479   9.399 -1.8406 -0.3571 -1.3423
  135SAPE   C3814660   2.798   4.686   9.341 -0.0698  0.0729 -0.3112
  135SAPE   H8X14661   2.903   4.719   9.360  0.3638 -1.8712  0.9753
  135SAPE   H8Y14662   2.727   4.769   9.357 -2.4265 -1.7772 -0.6094
  135SAPE   C3914663   2.804   4.646   9.191  0.2569 -0.4199 -0.4305
  135SAPE   H9X14664   2.706   4.611   9.152  0.9267 -0.9767 -1.6780
  135SAPE   H9Y14665   2.877   4.563   9.181  0.3213 -0.2919 -1.0459
  135SAPE  C31014666   2.858   4.756   9.098  0.1536 -0.2322 -0.7521
  135SAPE  H10X14667   2.953   4.795   9.141 -1.4959  0.3937  2.7088
  135SAPE  H10Y14668   2.795   4.848   9.102  0.2938 -0.1538 -0.1612
  135SAPE  C31114669   2.871   4.700   8.959 -0.4453  0.4895 -0.6584
  135SAPE  H11X14670   2.786   4.654   8.904 -1.6679 -0.7491  2.0681
  135SAPE  H11Y14671   2.944   4.617   8.972 -2.2232 -1.0633 -0.1544
  135SAPE  C31214672   2.932   4.805   8.863  0.9421 -0.0267  0.4794
  135SAPE  H12X14673   3.013   4.865   8.909  1.0973  0.5697 -0.5552
  135SAPE  H12Y14674   2.846   4.873   8.846 -0.3785 -1.8046 -0.2341
  135SAPE  C31314675   2.972   4.726   8.740 -0.7253  0.2407  0.2387
  135SAPE  H13X14676   2.893   4.648   8.726 -0.0626 -0.5677  0.9275
  135SAPE  H13Y14677   3.076   4.690   8.754 -0.4001 -0.2487 -2.7526
  135SAPE  C31414678   2.982   4.807   8.612 -0.3049  1.0657 -0.5720
  135SAPE  H14X14679   3.067   4.877   8.616 -0.6027  1.6083 -2.4416
  135SAPE  H14Y14680   2.893   4.872   8.593 -1.0457  0.3380  0.2973
  135SAPE  C31514681   2.985   4.716   8.486 -0.4871 -0.4526 -0.0138
  135SAPE  H15X14682   2.888   4.674   8.452 -0.2677  0.6686 -2.2060
  135SAPE  H15Y14683   3.049   4.627   8.502 -0.9950 -0.9004 -0.4338
  135SAPE  C31614684   3.057   4.809   8.380  0.8102 -0.8345 -0.1394
  135SAPE  H16X14685   3.070   4.726   8.307  0.2784 -0.4390 -0.6905
  135SAPE  H16Y14686   3.153   4.848   8.421  1.3082 -0.9260 -1.1989
  135SAPE  C31714687   2.963   4.916   8.333 -0.6130 -0.2884 -0.2432
  135SAPE  H17X14688   2.944   4.987   8.417 -1.0391 -1.1852  0.4363
  135SAPE  H17Y14689   2.872   4.868   8.291  0.7407 -0.5044 -3.1805
  135SAPE  C31814690   3.020   5.004   8.216  0.0470 -0.1283 -1.1672
  135SAPE  H18X14691   2.926   5.042   8.170 -1.2135 -0.2862  1.1554
  135SAPE  H18Y14692   3.080   4.949   8.139  0.6883  0.8221 -1.3667
  135SAPE  H18Z14693   3.079   5.096   8.239 -0.0178 -0.4185  0.2488
  136SAPE     N14694   6.002   1.849  11.006 -0.0838 -0.3718  0.3578
  136SAPE   HN114695   5.965   1.879  10.914 -1.7794 -1.3194  0.7080
  136SAPE   HN214696   6.050   1.760  10.984 -0.2498 -0.2618 -0.4585
  136SAPE   HN314697   5.932   1.834  11.081 -1.4830 -0.4567 -0.9318
  136SAPE   C1214698   6.108   1.938  11.058 -0.3300 -0.1537 -0.2760
  136SAPE  H12A14699   6.197   1.929  10.991  0.3128  0.5162  0.4591
  136SAPE  H12B14700   6.135   1.910  11.162  2.0962 -0.9598 -1.0566
  136SAPE   C1114701   6.050   2.084  11.061  0.0167 -0.6075 -0.0223
  136SAPE  H11A14702   6.122   2.148  11.116 -0.3794 -0.3246  0.1661
  136SAPE  H11B14703   5.949   2.081  11.106  0.1051 -0.6888  0.1715
  136SAPE     P14704   5.998   2.294  10.919 -0.1264  0.3504  0.1838
  136SAPE   O1314705   5.862   2.316  10.977 -0.5257  0.1107 -0.7216
  136SAPE   O1414706   6.102   2.393  10.959 -0.3461  0.6838  0.3228
  136SAPE   O1214707   6.032   2.141  10.934  0.0704 -0.0865  0.4838
  136SAPE   O1114708   5.994   2.304  10.766  0.4781  0.0345 -0.1874
  136SAPE    C114709   6.097   2.272  10.676 -0.2608  0.6635  0.4270
  136SAPE    HA14710   6.168   2.193  10.710 -0.3403 -0.1293 -1.1914
  136SAPE    HB14711   6.047   2.240  10.583  1.4184  0.6991 -0.5244
  136SAPE    C214712   6.176   2.398  10.630  0.2169 -0.1022  1.0004
  136SAPE    HS14713   6.224   2.454  10.713  0.1826  2.4386 -0.5638
  136SAPE   O2114714   6.089   2.496  10.555  0.9224 -0.1189 -0.4372
  136SAPE   C2114715   6.130   2.624  10.553 -0.4157  0.3007 -0.3469
  136SAPE   O2214716   6.213   2.673  10.622  0.2005 -0.2033 -0.1867
  136SAPE   C2214717   6.051   2.697  10.443  0.2744  0.0448  0.2635
  136SAPE   H2R14718   5.970   2.630  10.407 -0.1126 -0.4084  1.9075
  136SAPE   H2S14719   6.002   2.784  10.491 -0.3496  0.9737 -1.9055
  136SAPE    C314720   6.295   2.361  10.540  0.0663 -0.5981  0.1551
  136SAPE    HX14721   6.364   2.288  10.588 -0.4875 -0.3784  1.3303
  136SAPE    HY14722   6.355   2.453  10.531  0.0639 -0.6099  0.0172
  136SAPE   O3114723   6.264   2.332  10.404  0.1194  0.0531 -0.2522
  136SAPE   C3114724   6.360   2.274  10.335 -0.0456 -0.6728  0.9026
  136SAPE   O3214725   6.472   2.246  10.373 -0.0110  0.1688 -0.1713
  136SAPE   C3214726   6.314   2.237  10.196 -0.3687 -0.1003 -0.1580
  136SAPE   H2X14727   6.293   2.333  10.144  1.8833  0.0603 -0.8761
  136SAPE   H2Y14728   6.211   2.200  10.211 -0.5149  1.0597  2.0700
  136SAPE   C2314729   6.137   2.763  10.331 -0.2915  0.1352 -1.3146
  136SAPE   H3R14730   6.224   2.820  10.369  0.0350 -2.4487  2.2707
  136SAPE   H3S14731   6.064   2.829  10.280 -0.1390  1.6298  0.2965
  136SAPE   C2414732   6.200   2.655  10.230 -0.1101  0.4952  0.7454
  136SAPE   H4R14733   6.254   2.575  10.285  0.2395 -1.0585 -1.6978
  136SAPE   H4S14734   6.274   2.705  10.164 -0.3032 -0.9914 -0.6517
  136SAPE   C2514735   6.085   2.600  10.149  0.9806 -0.7216 -0.0814
  136SAPE   H5R14736   6.000   2.565  10.211  1.0990  0.0539  0.5387
  136SAPE   C2614737   6.048   2.604  10.020 -0.1637 -0.1269 -0.7076
  136SAPE   H6R14738   5.951   2.556  10.004  0.5648 -2.5004  1.3392
  136SAPE   C2714739   6.126   2.668   9.913  0.1660  0.1480  0.3243
  136SAPE   H7R14740   6.207   2.734   9.949  0.2194  0.1557  0.1911
  136SAPE   H7S14741   6.063   2.720   9.838  1.0805  3.3620  1.6100
  136SAPE   C2814742   6.199   2.553   9.846 -0.3745 -0.4576 -0.0440
  136SAPE   H8R14743   6.212   2.455   9.896  1.4559  1.1448  2.9437
  136SAPE   C2914744   6.246   2.567   9.719  0.7528 -0.1005 -0.5857
  136SAPE   H9R14745   6.290   2.475   9.677 -1.1593 -1.3944  0.0714
  136SAPE  C21014746   6.234   2.684   9.626 -0.3485 -0.6593 -0.0301
  136SAPE  H10R14747   6.330   2.709   9.577 -0.5531  1.3419  0.4880
  136SAPE  H10S14748   6.218   2.767   9.698  1.4354  1.5456 -2.0021
  136SAPE  C21114749   6.121   2.687   9.525  0.1293 -0.1784  0.0050
  136SAPE  H11R14750   6.022   2.717   9.561  0.1382 -0.5256  0.3235
  136SAPE  C21214751   6.131   2.661   9.390  0.2081 -0.5548 -0.0212
  136SAPE  H12R14752   6.041   2.668   9.328 -0.0201  0.5256  0.4127
  136SAPE  C21314753   6.261   2.629   9.318 -0.8053  0.2647 -0.3212
  136SAPE  H13R14754   6.270   2.522   9.288  0.8774  0.3274 -0.1228
  136SAPE  H13S14755   6.341   2.628   9.394 -0.3530  0.4453 -0.7937
  136SAPE  C21414756   6.297   2.721   9.204  0.0525 -0.1227 -0.0194
  136SAPE  H14R14757   6.285   2.828   9.226  0.1320  0.0682 -0.8762
  136SAPE  C21514758   6.338   2.686   9.076 -0.2850 -0.0701 -0.5855
  136SAPE  H15R14759   6.348   2.776   9.014 -0.7018 -0.0903 -0.6862
  136SAPE  C21614760   6.356   2.550   9.014 -0.3824 -0.5235 -0.7413
  136SAPE  H16R14761   6.333   2.561   8.906 -2.1695 -2.1399 -0.5866
  136SAPE  H16S14762   6.272   2.495   9.061 -0.3678  1.4447  1.7413
  136SAPE  C21714763   6.503   2.490   9.018  0.1682 -0.2401 -0.1267
  136SAPE  H17R14764   6.543   2.474   9.120  1.2825  0.0987 -0.4896
  136SAPE  H17S14765   6.561   2.572   8.970  0.6090 -0.0040  0.7971
  136SAPE  C21814766   6.524   2.358   8.945 -0.2172 -0.4773  0.0370
  136SAPE  H18R14767   6.455   2.282   8.988  0.5466  0.1576  2.6063
  136SAPE  H18S14768   6.627   2.323   8.970 -0.0982  0.7985  1.4423
  136SAPE  C21914769   6.500   2.351   8.787  0.3563  0.6987  0.6543
  136SAPE  H19R14770   6.556   2.435   8.740  0.3067  1.4211  1.8555
  136SAPE  H19S14771   6.395   2.373   8.758  0.8883  0.8127 -1.3656
  136SAPE  C22014772   6.554   2.229   8.711 -0.1235 -0.4643 -0.4992
  136SAPE  H20R14773   6.498   2.134   8.721  4.0514 -3.1107  0.7581
  136SAPE  H20S14774   6.647   2.199   8.765 -0.9559 -1.3401  0.4786
  136SAPE  H20T14775   6.574   2.265   8.608  2.2888  2.3926  0.7807
  136SAPE   C3314776   6.412   2.149  10.115 -0.2386  0.1125  0.1829
  136SAPE   H3X14777   6.407   2.049  10.162 -0.3442  0.2122  0.3860
  136SAPE   H3Y14778   6.516   2.187  10.123 -0.2713  0.3930 -0.6002
  136SAPE   C3414779   6.378   2.147   9.971 -0.5051 -0.5303 -0.4369
  136SAPE   H4X14780   6.348   2.244   9.927  0.1856 -0.3913 -0.6182
  136SAPE   H4Y14781   6.291   2.078   9.961 -2.5677  1.8157  0.3613
  136SAPE   C3514782   6.490   2.099   9.873 -0.2968  0.5412  0.6232
  136SAPE   H5X14783   6.534   2.007   9.918 -1.7673 -0.3537  0.2911
  136SAPE   H5Y14784   6.563   2.183   9.863  0.4493 -0.3491 -2.9426
  136SAPE   C3614785   6.429   2.071   9.736 -0.3649 -0.6452 -0.0731
  136SAPE   H6X14786   6.340   2.005   9.747  0.7735 -2.3085 -0.4622
  136SAPE   H6Y14787   6.507   2.019   9.676  0.9308  1.3254 -0.2222
  136SAPE   C3714788   6.397   2.202   9.663  0.1099 -0.0976  1.4939
  136SAPE   H7X14789   6.485   2.269   9.648  1.2219 -1.9457 -0.9191
  136SAPE   H7Y14790   6.320   2.250   9.727 -0.8866 -1.4398  1.3583
  136SAPE   C3814791   6.318   2.171   9.526  0.4062 -0.4185 -0.1233
  136SAPE   H8X14792   6.280   2.261   9.473  2.1495 -1.2142 -2.9530
  136SAPE   H8Y14793   6.221   2.130   9.562  0.8641 -1.0880  0.3652
  136SAPE   C3914794   6.393   2.082   9.428 -0.2201  0.1910  0.4340
  136SAPE   H9X14795   6.398   1.977   9.464  2.1656  0.3977  0.8280
  136SAPE   H9Y14796   6.497   2.118   9.413 -0.4148  0.4202 -0.4329
  136SAPE  C31014797   6.323   2.080   9.288 -0.4058  0.5542 -0.0370
  136SAPE  H10X14798   6.319   2.188   9.263 -2.4730  1.2458  2.8664
  136SAPE  H10Y14799   6.218   2.051   9.306 -0.0241 -0.2449  0.9924
  136SAPE  C31114800   6.386   1.996   9.171  0.0091 -0.1450  0.4081
  136SAPE  H11X14801   6.332   2.035   9.082  0.7850  0.1434  0.0568
  136SAPE  H11Y14802   6.367   1.887   9.178 -0.6098 -0.0994 -0.4179
  136SAPE  C31214803   6.540   2.022   9.162  1.0026 -0.6202 -0.2975
  136SAPE  H12X14804   6.584   1.998   9.262 -1.1952  2.6555  1.6447
  136SAPE  H12Y14805   6.564   2.128   9.142 -0.0067 -0.2476  0.3932
  136SAPE  C31314806   6.603   1.958   9.033 -0.1292 -0.0350  0.1710
  136SAPE  H13X14807   6.549   1.995   8.942  0.9466  0.6491 -0.2155
  136SAPE  H13Y14808   6.572   1.852   9.034 -1.7340  0.4115  1.1887
  136SAPE  C31414809   6.749   1.999   9.023  0.9533 -0.0937 -0.8900
  136SAPE  H14X14810   6.810   1.946   9.100  0.8060 -0.5495 -1.0845
  136SAPE  H14Y14811   6.766   2.108   9.033 -2.9398  0.5278  0.6439
  136SAPE  C31514812   6.819   1.959   8.894  0.0155 -0.1658 -0.3195
  136SAPE  H15X14813   6.790   2.033   8.817 -1.4505  0.5819  0.9024
  136SAPE  H15Y14814   6.789   1.854   8.872  1.7808 -0.1744 -3.1679
  136SAPE  C31614815   6.971   1.971   8.902 -0.2462  0.4234  0.2245
  136SAPE  H16X14816   7.006   1.879   8.954  0.3973  0.6195  0.1445
  136SAPE  H16Y14817   7.004   2.058   8.964 -1.2900  0.8420  0.2108
  136SAPE  C31714818   7.036   1.984   8.765 -0.6031 -0.1185 -0.0966
  136SAPE  H17X14819   7.022   2.086   8.725 -1.9180  0.8566  2.6057
  136SAPE  H17Y14820   6.996   1.905   8.697  0.7601 -0.8207 -0.1217
  136SAPE  C31814821   7.182   1.934   8.768 -0.6936  0.2450  0.4251
  136SAPE  H18X14822   7.225   1.947   8.667 -2.7411  1.3116 -0.3686
  136SAPE  H18Y14823   7.199   1.828   8.796 -0.4711  0.2201  0.1934
  136SAPE  H18Z14824   7.248   1.998   8.831 -0.3520  0.0910  0.2216
  137SAPE     N14825   6.223   6.529  11.000 -0.3509  0.7218  0.0172
  137SAPE   HN114826   6.178   6.497  11.087 -1.4400  1.0279 -0.4099
  137SAPE   HN214827   6.326   6.518  11.003 -0.4288  0.2757  1.5661
  137SAPE   HN314828   6.215   6.633  11.003 -0.2267  0.6980  1.9730
  137SAPE   C1214829   6.145   6.465  10.884 -0.3487 -0.6132 -0.4406
  137SAPE  H12A14830   6.168   6.358  10.900  0.7962 -0.2336  0.6347
  137SAPE  H12B14831   6.197   6.490  10.789 -0.2606 -1.2505 -0.5621
  137SAPE   C1114832   5.996   6.498  10.900 -0.4096  0.0715 -0.3339
  137SAPE  H11A14833   5.925   6.458  10.825 -1.4908 -0.4239  0.9131
  137SAPE  H11B14834   5.999   6.609  10.891 -0.1653  0.0790 -0.1581
  137SAPE     P14835   5.831   6.519  11.095 -0.2686  0.3057 -0.1666
  137SAPE   O1314836   5.807   6.480  11.234  0.2076 -0.6409 -0.7712
  137SAPE   O1414837   5.820   6.662  11.065  0.3690 -0.3090 -0.4103
  137SAPE   O1214838   5.957   6.458  11.033  0.8759 -0.0911  0.0556
  137SAPE   O1114839   5.711   6.459  11.003 -0.5777 -0.2153 -0.4973
  137SAPE    C114840   5.587   6.531  10.989  0.4251  0.0739  0.2099
  137SAPE    HA14841   5.506   6.461  11.017 -1.1495  1.1788 -1.3786
  137SAPE    HB14842   5.578   6.619  11.056 -0.2213 -0.8044  1.3055
  137SAPE    C214843   5.560   6.572  10.837 -0.2882  0.6293 -0.3544
  137SAPE    HS14844   5.474   6.642  10.832 -1.0974 -0.1426  1.7362
  137SAPE   O2114845   5.528   6.453  10.759 -0.5410  0.1323 -0.2647
  137SAPE   C2114846   5.416   6.387  10.773 -0.0269 -0.9104  0.4096
  137SAPE   O2214847   5.339   6.416  10.862 -0.8049 -0.7129  0.8477
  137SAPE   C2214848   5.414   6.289  10.655 -0.4106 -0.4155  0.0943
  137SAPE   H2R14849   5.520   6.277  10.625 -0.1526 -2.6466  1.6306
  137SAPE   H2S14850   5.368   6.194  10.690 -0.8440 -0.1772  0.1782
  137SAPE    C314851   5.678   6.645  10.776 -0.0532  0.1378 -0.3110
  137SAPE    HX14852   5.775   6.591  10.777 -0.9527 -1.5442  0.2251
  137SAPE    HY14853   5.702   6.727  10.846  1.9630 -0.8970  0.3083
  137SAPE   O3114854   5.644   6.703  10.646 -0.0658 -0.1796 -0.4732
  137SAPE   C3114855   5.679   6.635  10.540  0.1239 -0.1813 -0.7819
  137SAPE   O3214856   5.748   6.537  10.541  0.2045 -0.0808  0.2358
  137SAPE   C3214857   5.613   6.695  10.418 -0.0167  0.8191 -0.1494
  137SAPE   H2X14858   5.510   6.730  10.442 -0.8965 -0.8247 -1.3037
  137SAPE   H2Y14859   5.590   6.613  10.347 -1.9676  1.4654 -0.3376
  137SAPE   C2314860   5.317   6.333  10.537  0.4211 -0.5605 -0.1343
  137SAPE   H3R14861   5.350   6.438  10.522  0.9180 -0.6683  0.1706
  137SAPE   H3S14862   5.211   6.342  10.570  0.0484 -0.2265 -1.3716
  137SAPE   C2414863   5.331   6.246  10.414  0.8856 -0.5056 -0.1537
  137SAPE   H4R14864   5.438   6.216  10.409  0.7797 -0.6924 -1.9061
  137SAPE   H4S14865   5.312   6.313  10.328 -0.8320  0.7559  1.1150
  137SAPE   C2514866   5.235   6.128  10.418 -0.1927 -0.0099 -0.7785
  137SAPE   H5R14867   5.241   6.077  10.515  1.7625 -0.8204 -1.2697
  137SAPE   C2614868   5.146   6.087  10.328  0.5075 -0.2004 -0.0457
  137SAPE   H6R14869   5.091   5.996  10.359  1.0095 -1.0864 -1.6331
  137SAPE   C2714870   5.114   6.143  10.189 -0.8640  0.9166  0.6781
  137SAPE   H7R14871   5.140   6.251  10.195  1.9027  0.3756  0.0518
  137SAPE   H7S14872   5.008   6.127  10.161 -0.9104 -3.3691  2.5342
  137SAPE   C2814873   5.216   6.089  10.092 -0.1413  0.1418  0.5165
  137SAPE   H8R14874   5.307   6.052  10.142  0.3761  0.2315 -0.3436
  137SAPE   C2914875   5.209   6.088   9.955  0.7944 -0.4905  0.0869
  137SAPE   H9R14876   5.281   6.030   9.895 -0.3470 -1.4334 -0.4095
  137SAPE  C21014877   5.092   6.142   9.872 -0.6276  0.0979  1.1456
  137SAPE  H10R14878   5.145   6.178   9.782  0.3011 -2.8258  0.3880
  137SAPE  H10S14879   5.059   6.233   9.926  2.4114  0.5041  2.5371
  137SAPE  C21114880   4.983   6.045   9.827 -0.5231 -0.0775 -0.9105
  137SAPE  H11R14881   4.904   6.020   9.899  0.2422  0.1041  0.0173
  137SAPE  C21214882   4.974   5.991   9.705  0.0186 -0.1445 -0.1297
  137SAPE  H12R14883   4.891   5.920   9.693  0.1813 -0.3582  0.0097
  137SAPE  C21314884   5.063   6.011   9.584 -0.3711 -0.2906 -0.2380
  137SAPE  H13R14885   5.039   5.937   9.505 -0.2526 -0.0019 -0.5427
  137SAPE  H13S14886   5.165   6.008   9.628 -0.6604 -0.0919  0.4764
  137SAPE  C21414887   5.050   6.149   9.513 -0.0790 -0.0706  1.0469
  137SAPE  H14R14888   5.006   6.231   9.571 -0.7708 -0.5993  1.2870
  137SAPE  C21514889   5.073   6.182   9.384 -0.2484  0.0348  0.2208
  137SAPE  H15R14890   5.069   6.287   9.352 -3.1605 -0.3435 -0.9600
  137SAPE  C21614891   5.134   6.085   9.290 -0.2404 -0.3250  0.8060
  137SAPE  H16R14892   5.140   5.978   9.319  2.4451 -0.7415 -0.8906
  137SAPE  H16S14893   5.235   6.130   9.276  0.1809 -1.3814  0.3035
  137SAPE  C21714894   5.058   6.085   9.154 -0.3590  0.6088  0.0838
  137SAPE  H17R14895   5.001   6.180   9.147 -1.1981  0.1661  0.6517
  137SAPE  H17S14896   4.976   6.010   9.151  1.4588 -1.5381  1.1693
  137SAPE  C21814897   5.142   6.065   9.022  0.3200  0.3629  0.1974
  137SAPE  H18R14898   5.073   6.039   8.939 -0.6276 -1.7405  1.5613
  137SAPE  H18S14899   5.208   5.977   9.034 -1.2429 -0.6028  2.3735
  137SAPE  C21914900   5.226   6.179   8.990  0.4825 -0.0933  0.3208
  137SAPE  H19R14901   5.324   6.162   8.941  0.3180 -1.3847  0.4071
  137SAPE  H19S14902   5.245   6.237   9.083 -3.2598  1.9643  0.0234
  137SAPE  C22014903   5.153   6.273   8.898  0.2822  0.2933 -0.6438
  137SAPE  H20R14904   5.063   6.297   8.958  0.2033  1.4763 -1.2080
  137SAPE  H20S14905   5.124   6.222   8.804  1.9809  0.8264 -1.4992
  137SAPE  H20T14906   5.206   6.364   8.861 -0.6287  0.3694 -1.7998
  137SAPE   C3314907   5.703   6.804  10.363  0.0073  0.1365  0.3691
  137SAPE   H3X14908   5.807   6.768  10.348 -0.3257 -1.9174  2.3633
  137SAPE   H3Y14909   5.709   6.885  10.439 -0.9584  0.7258 -0.1654
  137SAPE   C3414910   5.643   6.862  10.234 -0.3501 -0.4628 -0.1895
  137SAPE   H4X14911   5.552   6.921  10.260  1.1387  0.8130  2.4991
  137SAPE   H4Y14912   5.610   6.778  10.169 -0.4421 -1.7845  1.4584
  137SAPE   C3514913   5.756   6.946  10.168 -0.2096 -0.2560  0.7889
  137SAPE   H5X14914   5.806   6.999  10.252  0.7530  1.2370 -0.6830
  137SAPE   H5Y14915   5.704   7.025  10.110 -1.0593  0.5963  2.6320
  137SAPE   C3614916   5.851   6.855  10.082  0.2422 -0.6554  0.2049
  137SAPE   H6X14917   5.790   6.791  10.014  0.9562 -1.7825  0.6021
  137SAPE   H6Y14918   5.913   6.787  10.144  1.5620 -0.5911 -0.9811
  137SAPE   C3714919   5.937   6.948   9.990  0.3469  0.1999  0.6122
  137SAPE   H7X14920   6.004   6.884   9.928  1.0829  2.5456 -1.2018
  137SAPE   H7Y14921   5.997   6.992  10.073  1.3459 -0.1667  0.1110
  137SAPE   C3814922   5.880   7.055   9.907 -0.4005 -0.6387 -0.1452
  137SAPE   H8X14923   5.960   7.103   9.846  2.2057 -1.2276  2.5758
  137SAPE   H8Y14924   5.836   7.140   9.964 -1.6355 -1.3623  0.0077
  137SAPE   C3914925   5.775   7.011   9.816 -0.1193  0.9561  0.0980
  137SAPE   H9X14926   5.678   6.990   9.865  0.2747 -2.1503 -0.2323
  137SAPE   H9Y14927   5.800   6.919   9.758 -3.1510 -0.4071  0.7859
  137SAPE  C31014928   5.756   7.121   9.721  0.2635  0.0645  0.2736
  137SAPE  H10X14929   5.849   7.143   9.664 -0.1105 -1.0642 -0.8060
  137SAPE  H10Y14930   5.741   7.216   9.777 -0.7905  0.1518 -0.1505
  137SAPE  C31114931   5.649   7.097   9.611 -0.3022 -0.2107 -0.3751
  137SAPE  H11X14932   5.552   7.094   9.665 -0.3227 -0.0225 -0.4004
  137SAPE  H11Y14933   5.661   6.997   9.564  3.3567  0.3081 -0.8475
  137SAPE  C31214934   5.649   7.209   9.513  0.0849 -0.3105 -0.0477
  137SAPE  H12X14935   5.747   7.227   9.462  0.2285 -0.2961  0.2328
  137SAPE  H12Y14936   5.630   7.296   9.580  0.8300 -1.3956  1.6293
  137SAPE  C31314937   5.528   7.228   9.421  0.1846 -0.0344 -0.1007
  137SAPE  H13X14938   5.440   7.252   9.485 -0.4957  1.7820 -1.6002
  137SAPE  H13Y14939   5.501   7.134   9.369  1.3300 -0.3966 -0.0524
  137SAPE  C31414940   5.540   7.342   9.317 -0.0516 -0.6128  0.3052
  137SAPE  H14X14941   5.562   7.438   9.370 -1.9990 -2.0415  4.0882
  137SAPE  H14Y14942   5.441   7.349   9.268  1.4739  1.6094 -2.7862
  137SAPE  C31514943   5.646   7.316   9.207 -0.9007 -0.6109  0.1185
  137SAPE  H15X14944   5.666   7.208   9.191 -0.0551 -0.4634  0.1379
  137SAPE  H15Y14945   5.746   7.353   9.240 -0.7260 -0.6793 -0.3258
  137SAPE  C31614946   5.596   7.367   9.081  0.2866  0.4501  0.7753
  137SAPE  H16X14947   5.586   7.477   9.070  0.8585  0.3850 -0.6350
  137SAPE  H16Y14948   5.491   7.334   9.069 -0.1205  2.1017 -0.5727
  137SAPE  C31714949   5.674   7.327   8.956 -0.6723  0.4073 -0.3039
  137SAPE  H17X14950   5.685   7.216   8.958  0.7541  0.5349  1.2219
  137SAPE  H17Y14951   5.773   7.377   8.960 -0.4212 -0.1372  1.0143
  137SAPE  C31814952   5.619   7.359   8.823  0.8143  0.5401 -0.2783
  137SAPE  H18X14953   5.515   7.322   8.833 -0.2565  2.8707 -1.9592
  137SAPE  H18Y14954   5.668   7.322   8.730 -0.4276 -0.6749 -0.4704
  137SAPE  H18Z14955   5.611   7.469   8.818  0.2206  0.6052  1.5143
  138SAPE     N14956   6.769   5.057  10.640  0.3504  0.4276  0.2317
  138SAPE   HN114957   6.764   4.987  10.717  0.9063  1.5301  1.3080
  138SAPE   HN214958   6.712   5.141  10.661 -1.7027 -0.1705 -2.4248
  138SAPE   HN314959   6.739   5.015  10.550  0.5933  1.2505 -0.2346
  138SAPE   C1214960   6.916   5.078  10.628  0.3992 -0.5549  0.6538
  138SAPE  H12A14961   6.968   4.980  10.620 -0.4267 -0.9721  0.3139
  138SAPE  H12B14962   6.947   5.125  10.723  3.5304  1.8943 -1.3626
  138SAPE   C1114963   6.955   5.177  10.521  0.2218 -0.5446  0.2127
  138SAPE  H11A14964   6.918   5.133  10.427  1.3963 -2.3788  0.5677
  138SAPE  H11B14965   7.065   5.170  10.514  0.2132  0.4814 -1.5166
  138SAPE     P14966   7.009   5.412  10.619  0.0840  0.2235  0.1509
  138SAPE   O1314967   6.922   5.525  10.653  0.1419 -0.4193  0.2013
  138SAPE   O1414968   7.075   5.350  10.733  0.5685 -0.8572 -0.0187
  138SAPE   O1214969   6.916   5.313  10.540 -0.3211  0.0190 -0.3874
  138SAPE   O1114970   7.106   5.461  10.502 -0.1320 -0.2417 -0.0122
  138SAPE    C114971   7.051   5.510  10.378  0.3592  0.5358  0.0967
  138SAPE    HA14972   6.947   5.479  10.353  0.3022  1.6146 -1.1063
  138SAPE    HB14973   7.054   5.621  10.369  0.5508  0.5901  0.7639
  138SAPE    C214974   7.146   5.480  10.257  0.8925  0.9639  0.1040
  138SAPE    HS14975   7.237   5.535  10.289  0.0380  0.7157  3.4284
  138SAPE   O2114976   7.083   5.526  10.140 -0.0087  0.0299 -0.4676
  138SAPE   C2114977   7.168   5.591  10.056 -0.4156 -0.3639  0.2156
  138SAPE   O2214978   7.295   5.597  10.074  0.3308  0.3276  0.0919
  138SAPE   C2214979   7.098   5.666   9.944  0.7229  0.0655  0.0623
  138SAPE   H2R14980   7.080   5.600   9.857 -2.0616 -0.5718  1.0293
  138SAPE   H2S14981   6.994   5.687   9.977 -1.0699 -0.9396 -4.3547
  138SAPE    C314982   7.175   5.332  10.237  0.1727  0.2665  0.1153
  138SAPE    HX14983   7.085   5.270  10.218  2.1219 -3.4240  1.8896
  138SAPE    HY14984   7.218   5.299  10.333  0.2033  0.0026  0.0108
  138SAPE   O3114985   7.260   5.301  10.125  0.0820 -0.2422 -0.3292
  138SAPE   C3114986   7.393   5.302  10.150 -0.0553 -0.3051 -0.2119
  138SAPE   O3214987   7.451   5.342  10.247  0.2513  0.0497 -0.2992
  138SAPE   C3214988   7.459   5.260  10.018  0.4721 -0.0040 -0.0540
  138SAPE   H2X14989   7.411   5.324   9.941  1.6021 -0.7614 -1.4527
  138SAPE   H2Y14990   7.443   5.151  10.003  1.0029 -0.0744 -0.1548
  138SAPE   C2314991   7.172   5.794   9.917  0.0904 -0.1260 -0.0475
  138SAPE   H3R14992   7.256   5.760   9.852  0.4463 -0.7171  0.7045
  138SAPE   H3S14993   7.205   5.836  10.014  0.6326 -0.4668 -0.0775
  138SAPE   C2414994   7.097   5.896   9.821 -0.6391  0.0031  0.3477
  138SAPE   H4R14995   7.096   5.855   9.717  1.1972  0.4611  0.1158
  138SAPE   H4S14996   7.152   5.992   9.814 -0.5398 -0.0287  0.6789
  138SAPE   C2514997   6.960   5.936   9.856  0.2783 -0.2931 -0.1584
  138SAPE   H5R14998   6.939   5.941   9.964 -0.3968  0.4079 -0.3114
  138SAPE   C2614999   6.854   5.977   9.783  0.0607  0.3945  0.2402
  138SAPE   H6R15000   6.765   6.016   9.836  1.5811  3.3928  0.8407
  138SAPE   C2715001   6.850   5.984   9.630 -0.0437  0.0572 -0.4081
  138SAPE   H7R15002   6.950   5.974   9.582  1.1490  0.3884  1.8616
  138SAPE   H7S15003   6.826   6.089   9.605  0.5808  0.6338  1.2646
  138SAPE   C2815004   6.754   5.883   9.582  0.0623  0.3593  0.1964
  138SAPE   H8R15005   6.798   5.783   9.568  3.1490  1.6022  0.4262
  138SAPE   C2915006   6.634   5.907   9.538  0.6140 -0.8766 -0.2120
  138SAPE   H9R15007   6.569   5.819   9.526  0.8978 -0.8482 -2.3063
  138SAPE  C21015008   6.565   6.042   9.547  0.2819 -0.7981  0.7859
  138SAPE  H10R15009   6.626   6.125   9.590  0.6651 -1.0300  0.6903
  138SAPE  H10S15010   6.477   6.025   9.614 -1.1743 -0.2900 -0.9319
  138SAPE  C21115011   6.504   6.091   9.412  0.1401  0.0032 -0.4688
  138SAPE  H11R15012   6.445   6.019   9.354  1.3655 -0.1302 -1.6240
  138SAPE  C21215013   6.511   6.213   9.353 -0.5823 -0.1441 -0.2430
  138SAPE  H12R15014   6.468   6.237   9.255  1.2286  2.5134 -0.4885
  138SAPE  C21315015   6.579   6.337   9.414 -0.2282  0.6148 -0.1167
  138SAPE  H13R15016   6.597   6.332   9.524  2.6369  1.1260 -0.4677
  138SAPE  H13S15017   6.510   6.422   9.397 -0.2312  0.7199  0.3870
  138SAPE  C21415018   6.704   6.376   9.341 -0.3501 -0.6200  0.2442
  138SAPE  H14R15019   6.681   6.399   9.236  1.8395 -0.6520 -0.2782
  138SAPE  C21515020   6.829   6.399   9.393  0.5968  0.2764  0.5709
  138SAPE  H15R15021   6.905   6.438   9.324  0.9401 -1.6883 -0.2197
  138SAPE  C21615022   6.867   6.384   9.536 -0.3320  0.3759  0.4422
  138SAPE  H16R15023   6.796   6.338   9.607  0.0340 -2.2233 -0.7700
  138SAPE  H16S15024   6.881   6.489   9.569 -1.1519  0.5511  0.2459
  138SAPE  C21715025   7.002   6.312   9.558 -0.2574 -0.2704 -0.0654
  138SAPE  H17R15026   7.080   6.352   9.491 -0.5567  2.5152  1.1013
  138SAPE  H17S15027   6.997   6.204   9.529  0.3198  0.4775 -3.3676
  138SAPE  C21815028   7.043   6.321   9.709 -0.3280 -0.2475 -0.4241
  138SAPE  H18R15029   6.971   6.263   9.771  0.2950 -0.1324  0.4321
  138SAPE  H18S15030   7.029   6.424   9.748 -1.7567 -1.5054  2.7132
  138SAPE  C21915031   7.190   6.285   9.739  0.3797 -0.0344 -0.3812
  138SAPE  H19R15032   7.239   6.358   9.671  0.0483  0.1394 -0.4351
  138SAPE  H19S15033   7.207   6.181   9.702  0.7536 -0.5808  1.2612
  138SAPE  C22015034   7.234   6.312   9.883 -0.2542 -0.0007 -0.0735
  138SAPE  H20R15035   7.196   6.413   9.906  0.1260  0.1169  0.0403
  138SAPE  H20S15036   7.343   6.333   9.888 -0.3233  0.9162 -1.6452
  138SAPE  H20T15037   7.199   6.238   9.958  1.1315 -0.5540  0.0559
  138SAPE   C3315038   7.602   5.311  10.019 -0.6061  0.3899  0.5333
  138SAPE   H3X15039   7.663   5.243  10.081 -0.0985 -1.9045 -2.2666
  138SAPE   H3Y15040   7.617   5.414  10.057 -2.0116  1.1541 -0.8608
  138SAPE   C3415041   7.662   5.320   9.877  0.0337 -0.2921 -0.2421
  138SAPE   H4X15042   7.599   5.246   9.823 -0.5420 -0.5636  0.7929
  138SAPE   H4Y15043   7.766   5.284   9.890 -0.4006 -1.1226  1.1414
  138SAPE   C3515044   7.669   5.462   9.806  0.6855  0.7144 -0.6423
  138SAPE   H5X15045   7.742   5.529   9.858  1.5360  0.8277 -1.9337
  138SAPE   H5Y15046   7.568   5.506   9.797  0.0143 -0.5246  0.4820
  138SAPE   C3615047   7.722   5.442   9.668 -0.8632 -0.9584 -0.0656
  138SAPE   H6X15048   7.678   5.349   9.628  0.6701 -1.0289 -1.7443
  138SAPE   H6Y15049   7.833   5.438   9.669 -0.8903 -1.6426  0.3354
  138SAPE   C3715050   7.705   5.567   9.570 -0.7550  0.0817 -0.5528
  138SAPE   H7X15051   7.789   5.638   9.582 -0.6519  0.0073 -0.8265
  138SAPE   H7Y15052   7.605   5.614   9.587 -0.0316  1.2766  0.6161
  138SAPE   C3815053   7.710   5.513   9.429  0.1636  0.2729 -0.0704
  138SAPE   H8X15054   7.632   5.434   9.426  0.3876  0.0066  0.7623
  138SAPE   H8Y15055   7.808   5.474   9.394  0.1584  0.5696 -0.4266
  138SAPE   C3915056   7.661   5.613   9.327  0.1366  0.0781 -0.4145
  138SAPE   H9X15057   7.564   5.654   9.361 -0.7120 -1.0507 -1.3776
  138SAPE   H9Y15058   7.656   5.562   9.228  0.8245  2.4966 -1.7727
  138SAPE  C31015059   7.760   5.718   9.314  0.0539 -0.0013 -0.2896
  138SAPE  H10X15060   7.859   5.683   9.352  0.6508 -0.1236 -1.8971
  138SAPE  H10Y15061   7.725   5.803   9.376 -0.8988  0.0343 -0.8634
  138SAPE  C31115062   7.777   5.771   9.172  0.2895  0.3248 -0.5832
  138SAPE  H11X15063   7.804   5.698   9.093  1.1046 -0.6512  0.5649
  138SAPE  H11Y15064   7.848   5.856   9.177  1.0653 -0.3552  0.3996
  138SAPE  C31215065   7.650   5.845   9.131  0.2439 -0.5088 -0.3543
  138SAPE  H12X15066   7.619   5.920   9.206  1.7358  0.7145 -0.9116
  138SAPE  H12Y15067   7.570   5.772   9.104 -0.7273 -0.7920  2.8992
  138SAPE  C31315068   7.680   5.931   9.008  0.7230 -0.3137  0.3453
  138SAPE  H13X15069   7.697   5.873   8.915  0.9990  2.7573 -1.6979
  138SAPE  H13Y15070   7.768   5.997   9.025  2.2990 -2.3995  0.7156
  138SAPE  C31415071   7.563   6.023   8.972 -0.0856 -0.6648 -0.5735
  138SAPE  H14X15072   7.535   6.085   9.060  2.9781 -0.2658  0.2388
  138SAPE  H14Y15073   7.479   5.959   8.938 -0.7768 -0.0584 -0.0503
  138SAPE  C31515074   7.589   6.125   8.861  0.0640 -0.1250  0.7958
  138SAPE  H15X15075   7.604   6.071   8.765 -1.0744  0.8267  0.0641
  138SAPE  H15Y15076   7.688   6.172   8.882  0.7242 -1.4324  0.7084
  138SAPE  C31615077   7.476   6.234   8.835  0.5124  0.0400  0.6618
  138SAPE  H16X15078   7.490   6.305   8.919 -3.1681  0.9848  0.6462
  138SAPE  H16Y15079   7.375   6.197   8.860  0.9015 -3.1826 -1.8089
  138SAPE  C31715080   7.478   6.307   8.701  0.0264 -0.1511 -0.0617
  138SAPE  H17X15081   7.422   6.254   8.620 -0.8583  0.1273  0.3592
  138SAPE  H17Y15082   7.585   6.309   8.672 -0.3833  2.2251 -1.7613
  138SAPE  C31815083   7.417   6.444   8.701 -0.0782 -0.4104  0.0804
  138SAPE  H18X15084   7.433   6.496   8.797 -0.2629 -2.6188  1.3871
  138SAPE  H18Y15085   7.308   6.433   8.684  0.0351 -0.7723 -0.4712
  138SAPE  H18Z15086   7.443   6.499   8.608  0.7433 -1.8133 -0.5739
  139SAPE     N15087   0.418   4.152  10.646  0.1778  0.7762 -0.5141
  139SAPE   HN115088   0.393   4.250  10.670  2.2430  0.8923  1.5207
  139SAPE   HN215089   0.363   4.104  10.720  0.6120  4.0012  2.1274
  139SAPE   HN315090   0.520   4.145  10.665  0.3951  3.9670  0.0670
  139SAPE   C1215091   0.379   4.120  10.506  0.3381  0.7580  0.4780
  139SAPE  H12A15092   0.273   4.087  10.512  0.5464 -0.1169 -0.2534
  139SAPE  H12B15093   0.449   4.043  10.466  1.2445  1.0232  1.5202
  139SAPE   C1115094   0.389   4.248  10.421  0.4699  0.2087 -0.1277
  139SAPE  H11A15095   0.382   4.223  10.313 -2.0796 -0.3842  0.1097
  139SAPE  H11B15096   0.491   4.292  10.429  1.3043 -0.3714 -4.8396
  139SAPE     P15097   0.325   4.495  10.458 -0.0534 -0.4167  0.2129
  139SAPE   O1315098   0.210   4.564  10.520 -0.4204  0.7278 -0.3448
  139SAPE   O1415099   0.455   4.515  10.519 -0.4077  0.2936 -0.1799
  139SAPE   O1215100   0.292   4.346  10.450  0.0565 -0.1148 -0.2225
  139SAPE   O1115101   0.342   4.519  10.303 -0.0554 -0.2136  0.3554
  139SAPE    C115102   0.272   4.449  10.196 -0.3174 -0.5123 -0.1919
  139SAPE    HA15103   0.321   4.354  10.166 -0.1745 -0.3075 -0.6188
  139SAPE    HB15104   0.171   4.417  10.231 -1.2022  0.8190 -1.3675
  139SAPE    C215105   0.250   4.548  10.081  0.0288 -0.1410 -0.3578
  139SAPE    HS15106   0.177   4.510  10.006  0.5854  0.7020 -1.3661
  139SAPE   O2115107   0.378   4.563  10.018  0.7397  0.3705  0.5937
  139SAPE   C2115108   0.400   4.468   9.929  0.1578 -0.3690 -0.1002
  139SAPE   O2215109   0.324   4.380   9.892 -0.4912  0.1996  0.4925
  139SAPE   C2215110   0.539   4.498   9.865  0.3174  0.1583  0.0961
  139SAPE   H2R15111   0.544   4.592   9.805  2.4542 -1.1309 -1.9415
  139SAPE   H2S15112   0.614   4.493   9.947 -2.3958  0.2314  2.7345
  139SAPE    C315113   0.209   4.694  10.121 -0.3636 -0.6238 -0.2159
  139SAPE    HX15114   0.297   4.735  10.174  0.6048 -0.3919 -1.9216
  139SAPE    HY15115   0.119   4.676  10.183 -1.6893 -2.6764 -2.5387
  139SAPE   O3115116   0.176   4.775  10.002  0.3321  0.0742  0.4252
  139SAPE   C3115117   0.176   4.912  10.022  0.6152 -0.2505 -0.2788
  139SAPE   O3215118   0.199   4.958  10.129 -0.4849  0.2533 -0.7134
  139SAPE   C3215119   0.145   4.991   9.896  0.5600 -0.6537 -0.0990
  139SAPE   H2X15120   0.043   5.033   9.904  1.0616  0.4124  1.0912
  139SAPE   H2Y15121   0.157   4.929   9.805  3.7491  0.6413 -0.7228
  139SAPE   C2315122   0.565   4.387   9.760  0.1670  0.3733  0.2446
  139SAPE   H3R15123   0.553   4.280   9.789 -1.5945  0.8978  1.6168
  139SAPE   H3S15124   0.674   4.386   9.736  0.5643 -1.4527  1.8348
  139SAPE   C2415125   0.490   4.423   9.632 -0.2258 -0.0149 -0.8939
  139SAPE   H4R15126   0.526   4.526   9.612  0.8454  0.0867  1.2128
  139SAPE   H4S15127   0.379   4.411   9.638 -0.0778 -2.5821 -1.9222
  139SAPE   C2515128   0.525   4.325   9.521 -0.7592  0.1159 -0.7315
  139SAPE   H5R15129   0.463   4.234   9.510 -0.1013 -0.7134  1.6196
  139SAPE   C2615130   0.633   4.333   9.438 -0.2875  0.6874  0.4526
  139SAPE   H6R15131   0.656   4.251   9.367 -1.6561  0.3594  0.3693
  139SAPE   C2715132   0.730   4.450   9.431 -0.2832 -0.6407 -0.7671
  139SAPE   H7R15133   0.757   4.485   9.533 -2.5113  1.0331 -0.6782
  139SAPE   H7S15134   0.674   4.537   9.389 -0.7551 -0.4412  0.2656
  139SAPE   C2815135   0.853   4.406   9.353  0.2029 -0.6952 -0.2275
  139SAPE   H8R15136   0.919   4.329   9.395  0.6480 -0.3741 -0.3299
  139SAPE   C2915137   0.892   4.463   9.240  0.3552  0.1404  0.3634
  139SAPE   H9R15138   0.988   4.427   9.201  0.4227 -0.6651  1.2472
  139SAPE  C21015139   0.825   4.581   9.176  0.6994 -0.4493 -0.4519
  139SAPE  H10R15140   0.793   4.657   9.251  0.3785  0.5478 -1.5698
  139SAPE  H10S15141   0.731   4.545   9.129  0.0585  0.0085  0.4322
  139SAPE  C21115142   0.911   4.655   9.079 -0.2247 -0.3439 -0.0931
  139SAPE  H11R15143   0.990   4.711   9.132 -1.2887 -0.9172  2.2214
  139SAPE  C21215144   0.914   4.652   8.943  0.0363 -0.4456 -0.1837
  139SAPE  H12R15145   0.990   4.719   8.900 -0.0299 -1.0026 -1.2023
  139SAPE  C21315146   0.834   4.573   8.847  0.2060  0.0485  0.1712
  139SAPE  H13R15147   0.822   4.619   8.746  1.5411  0.3368  0.1291
  139SAPE  H13S15148   0.729   4.550   8.876 -0.1574 -3.3303 -3.0736
  139SAPE  C21415149   0.885   4.435   8.827 -0.3229 -0.5231 -0.8757
  139SAPE  H14R15150   0.910   4.387   8.923  2.3561  0.5658 -0.9390
  139SAPE  C21515151   0.918   4.366   8.712 -0.4309  0.0152  0.5671
  139SAPE  H15R15152   0.968   4.269   8.722  0.6899  0.5255  0.1420
  139SAPE  C21615153   0.900   4.408   8.572 -0.8836  0.0478 -0.7972
  139SAPE  H16R15154   0.850   4.507   8.572  0.9145  1.0017 -1.7231
  139SAPE  H16S15155   0.823   4.340   8.528 -0.8915 -1.7621  1.8067
  139SAPE  C21715156   1.029   4.400   8.507 -0.1573 -1.1987  0.2476
  139SAPE  H17R15157   1.111   4.444   8.568  0.3425  1.5086 -2.1182
  139SAPE  H17S15158   1.044   4.463   8.416 -0.0453  1.4015  1.9624
  139SAPE  C21815159   1.068   4.258   8.462  0.5068  0.1894  0.4880
  139SAPE  H18R15160   1.015   4.241   8.366  0.3659  2.1074  0.1837
  139SAPE  H18S15161   1.020   4.191   8.535  0.7450  2.1950  2.6105
  139SAPE  C21915162   1.222   4.240   8.443  0.1368 -0.7469  0.0521
  139SAPE  H19R15163   1.271   4.247   8.543 -2.6106 -1.3050  1.5469
  139SAPE  H19S15164   1.251   4.337   8.396 -1.7002 -1.5684 -3.0357
  139SAPE  C22015165   1.265   4.121   8.357 -0.5844 -0.2966 -0.2693
  139SAPE  H20R15166   1.267   4.144   8.248  1.5739 -2.7410 -0.8498
  139SAPE  H20S15167   1.197   4.035   8.376 -0.6300  0.1084  1.5753
  139SAPE  H20T15168   1.366   4.085   8.386  0.1990  2.4368  0.6946
  139SAPE   C3315169   0.243   5.109   9.893 -0.1249 -0.3689 -0.2816
  139SAPE   H3X15170   0.342   5.092   9.940  0.6322  1.8465 -0.9095
  139SAPE   H3Y15171   0.212   5.185   9.968 -0.0771  1.1681 -1.7541
  139SAPE   C3415172   0.252   5.195   9.770  0.1595 -0.3920 -0.6553
  139SAPE   H4X15173   0.156   5.246   9.748 -0.1589 -1.1146 -0.9623
  139SAPE   H4Y15174   0.276   5.124   9.688 -1.2156 -1.7532  0.0699
  139SAPE   C3515175   0.374   5.295   9.772  0.7108  0.0262  0.5973
  139SAPE   H5X15176   0.470   5.243   9.795  1.7797  0.2781 -2.7173
  139SAPE   H5Y15177   0.361   5.361   9.860  0.5204  0.0238  0.5704
  139SAPE   C3615178   0.378   5.374   9.637 -0.0613  0.3482 -0.2650
  139SAPE   H6X15179   0.279   5.426   9.633 -1.1286 -1.6668 -2.0655
  139SAPE   H6Y15180   0.370   5.305   9.550 -1.6291 -0.2419  0.3073
  139SAPE   C3715181   0.489   5.470   9.621  0.0944 -0.4823 -0.2045
  139SAPE   H7X15182   0.585   5.417   9.638 -0.1954  0.0284  4.3768
  139SAPE   H7Y15183   0.491   5.545   9.704  1.1563 -0.7290  0.0058
  139SAPE   C3815184   0.490   5.534   9.483  0.7310 -0.4116 -0.2077
  139SAPE   H8X15185   0.507   5.451   9.411  2.3617 -0.4907  0.2081
  139SAPE   H8Y15186   0.576   5.604   9.473  2.6744 -2.5705  0.3226
  139SAPE   C3915187   0.360   5.603   9.440 -0.4324 -0.2682 -0.0063
  139SAPE   H9X15188   0.333   5.666   9.527  1.9910  1.0737 -0.1440
  139SAPE   H9Y15189   0.281   5.528   9.415  1.2553 -2.1997  0.1931
  139SAPE  C31015190   0.382   5.712   9.330 -0.9341  0.7287 -0.6345
  139SAPE  H10X15191   0.471   5.773   9.355 -1.1961  0.9146 -0.1344
  139SAPE  H10Y15192   0.302   5.789   9.326 -0.2051  1.7292  2.0256
  139SAPE  C31115193   0.422   5.646   9.197 -0.1531  0.2322 -0.5415
  139SAPE  H11X15194   0.339   5.578   9.166 -2.7011  3.2538 -0.8369
  139SAPE  H11Y15195   0.522   5.600   9.208 -0.5067 -0.6747 -0.9861
  139SAPE  C31215196   0.433   5.743   9.079  0.3928  0.0741 -0.2648
  139SAPE  H12X15197   0.520   5.808   9.101  1.1201 -0.1716 -2.1960
  139SAPE  H12Y15198   0.344   5.809   9.084  0.6612  0.5271 -1.0754
  139SAPE  C31315199   0.434   5.667   8.946 -0.2269  0.0237 -0.1927
  139SAPE  H13X15200   0.357   5.589   8.963  0.4122 -0.2771  1.5214
  139SAPE  H13Y15201   0.523   5.600   8.944 -0.8617 -0.8675 -2.1862
  139SAPE  C31415202   0.415   5.749   8.817  0.2170 -0.0133 -0.4237
  139SAPE  H14X15203   0.388   5.680   8.734 -0.8081 -0.4408  0.2520
  139SAPE  H14Y15204   0.510   5.796   8.783 -0.5747  3.0729  1.2667
  139SAPE  C31515205   0.302   5.853   8.822 -0.0365  0.5955  0.1819
  139SAPE  H15X15206   0.329   5.932   8.895 -0.7048  1.5171 -0.5401
  139SAPE  H15Y15207   0.206   5.807   8.853 -0.8616  0.6641 -2.1104
  139SAPE  C31615208   0.278   5.929   8.694  1.1071  0.6275 -0.0689
  139SAPE  H16X15209   0.374   5.974   8.660  0.9670 -0.4223 -2.0084
  139SAPE  H16Y15210   0.231   5.857   8.624 -0.4580  2.1799 -0.6833
  139SAPE  C31715211   0.170   6.044   8.714  0.2922 -0.6124 -0.2497
  139SAPE  H17X15212   0.197   6.106   8.803 -2.5991  2.5958 -1.3623
  139SAPE  H17Y15213   0.072   5.996   8.735  0.2634 -1.2557 -1.7305
  139SAPE  C31815214   0.152   6.129   8.588  0.5631 -0.2556  0.3788
  139SAPE  H18X15215   0.128   6.052   8.511 -1.8522  0.1068  0.6874
  139SAPE  H18Y15216   0.250   6.170   8.555  1.2541 -0.7370  1.7448
  139SAPE  H18Z15217   0.071   6.202   8.610  0.9750  0.2129  0.3609
  140SAPE     N15218   3.930   2.224  10.703  0.0396  0.7526  0.1741
  140SAPE   HN115219   3.849   2.200  10.642 -0.2516 -0.2485  0.9274
  140SAPE   HN215220   4.004   2.278  10.654 -0.6022  2.1178  0.6548
  140SAPE   HN315221   3.966   2.132  10.736 -0.9547  0.5545  0.7219
  140SAPE   C1215222   3.881   2.300  10.825 -0.1962  0.1626 -0.5937
  140SAPE  H12A15223   3.784   2.350  10.808  0.1262  1.9549  2.1590
  140SAPE  H12B15224   3.942   2.392  10.836 -0.1997 -0.1294  3.2620
  140SAPE   C1115225   3.869   2.221  10.954  0.3099  0.2218  0.3877
  140SAPE  H11A15226   3.807   2.276  11.028 -0.8539 -1.6922  0.8864
  140SAPE  H11B15227   3.972   2.212  10.994  0.2749 -2.5161  0.0801
  140SAPE     P15228   3.680   2.028  10.932  0.4684 -0.2503  0.0607
  140SAPE   O1315229   3.668   1.906  10.856 -0.5358 -0.0031  0.2397
  140SAPE   O1415230   3.627   2.030  11.073 -0.4167  0.3225  0.3897
  140SAPE   O1215231   3.832   2.083  10.933  0.0790  0.3095 -0.3984
  140SAPE   O1115232   3.617   2.149  10.852  0.1647  0.5243 -0.0286
  140SAPE    C115233   3.476   2.170  10.859  0.5124 -0.1775  0.3883
  140SAPE    HA15234   3.426   2.072  10.876  0.1877 -0.4004 -1.6150
  140SAPE    HB15235   3.455   2.242  10.941  2.4969  1.5416 -0.5291
  140SAPE    C215236   3.415   2.205  10.723  0.0117 -0.2464 -0.1012
  140SAPE    HS15237   3.305   2.219  10.734  0.6212  3.9092  2.5534
  140SAPE   O2115238   3.443   2.089  10.640 -0.6924  0.1114  0.4389
  140SAPE   C2115239   3.372   1.980  10.659  0.4969 -0.3996 -0.1744
  140SAPE   O2215240   3.267   1.975  10.728  0.4560 -0.1913  0.1150
  140SAPE   C2215241   3.437   1.865  10.584  0.4567  0.3703 -0.2897
  140SAPE   H2R15242   3.525   1.829  10.642  0.1035  1.5703  1.0216
  140SAPE   H2S15243   3.353   1.794  10.575  0.0632  0.8572 -0.5090
  140SAPE    C315244   3.473   2.333  10.664  0.3991  0.0652  0.1414
  140SAPE    HX15245   3.583   2.323  10.651  0.3681 -0.5882  0.3322
  140SAPE    HY15246   3.450   2.407  10.744  0.1365  0.0167  0.1135
  140SAPE   O3115247   3.397   2.363  10.543 -0.5780  0.4429  0.2503
  140SAPE   C3115248   3.459   2.368  10.433  0.2477 -0.6284 -0.6063
  140SAPE   O3215249   3.567   2.319  10.398  0.2120  0.2424  0.3717
  140SAPE   C3215250   3.374   2.452  10.339  0.4680  0.0576  0.6054
  140SAPE   H2X15251   3.405   2.557  10.355 -0.5024  0.4746 -0.1694
  140SAPE   H2Y15252   3.267   2.431  10.360  0.1349 -0.9920 -1.8204
  140SAPE   C2315253   3.488   1.906  10.444 -0.3299 -0.0660 -0.4005
  140SAPE   H3R15254   3.578   1.968  10.464 -0.4063  0.2856 -1.1083
  140SAPE   H3S15255   3.416   1.977  10.398  0.5677 -0.2133 -2.1292
  140SAPE   C2415256   3.526   1.794  10.357  0.2522  0.7997 -0.0530
  140SAPE   H4R15257   3.529   1.836  10.254  1.3403 -0.8744 -0.7458
  140SAPE   H4S15258   3.448   1.716  10.340  1.5013 -0.2217 -1.3206
  140SAPE   C2515259   3.647   1.714  10.395  0.7219 -0.0387 -0.3007
  140SAPE   H5R15260   3.650   1.674  10.497 -2.7280 -1.7161 -0.7221
  140SAPE   C2615261   3.754   1.696  10.317  0.4158  0.4385 -0.3303
  140SAPE   H6R15262   3.834   1.631  10.353  1.8574  2.4114  0.1866
  140SAPE   C2715263   3.780   1.735  10.172  0.1835  0.0490 -0.5861
  140SAPE   H7R15264   3.864   1.808  10.164  2.7218 -2.5083  1.0100
  140SAPE   H7S15265   3.695   1.786  10.121  0.3707  1.1070  0.1185
  140SAPE   C2815266   3.813   1.611  10.090 -0.4385  0.5073  0.0960
  140SAPE   H8R15267   3.811   1.520  10.151 -1.0908 -0.6895 -1.6182
  140SAPE   C2915268   3.875   1.612   9.971  0.1842  0.2045  0.5801
  140SAPE   H9R15269   3.867   1.516   9.919 -0.3671 -0.4901  1.8916
  140SAPE  C21015270   3.912   1.740   9.893 -0.0726  0.0620  0.0376
  140SAPE  H10R15271   3.933   1.824   9.962  1.6188 -1.4243  1.4570
  140SAPE  H10S15272   3.838   1.776   9.818  0.1648  0.0850 -0.1875
  140SAPE  C21115273   4.045   1.710   9.822 -0.0877 -0.1558  0.6088
  140SAPE  H11R15274   4.138   1.743   9.869  0.0904 -0.3190  0.3730
  140SAPE  C21215275   4.051   1.647   9.699 -0.2196  0.1176 -0.6490
  140SAPE  H12R15276   4.155   1.639   9.662  1.0892  0.3700  2.6536
  140SAPE  C21315277   3.948   1.581   9.613 -0.6679 -0.4159  0.0340
  140SAPE  H13R15278   3.870   1.657   9.589  0.8995  0.6990 -1.8674
  140SAPE  H13S15279   3.906   1.499   9.674 -1.0287 -0.7861 -0.7006
  140SAPE  C21415280   4.009   1.530   9.484  0.1644  0.4968  0.1654
  140SAPE  H14R15281   4.110   1.489   9.494  0.3539  0.5790 -1.1847
  140SAPE  C21515282   3.944   1.533   9.363 -0.1093 -0.2648  0.3320
  140SAPE  H15R15283   4.003   1.500   9.276  0.8847 -1.4436  1.4235
  140SAPE  C21615284   3.807   1.575   9.329 -0.0464  0.0213  0.0410
  140SAPE  H16R15285   3.740   1.571   9.417  0.0393 -1.3475  0.0717
  140SAPE  H16S15286   3.762   1.499   9.260  1.2014 -1.3813  0.7238
  140SAPE  C21715287   3.799   1.717   9.269  0.6656  0.0101  0.2796
  140SAPE  H17R15288   3.808   1.788   9.354 -0.7730 -1.0804  1.4029
  140SAPE  H17S15289   3.693   1.740   9.242  0.9421  0.5506 -0.3674
  140SAPE  C21815290   3.888   1.744   9.146  0.1052  0.1219 -0.5489
  140SAPE  H18R15291   3.997   1.757   9.162  0.4411  0.2375 -2.6202
  140SAPE  H18S15292   3.849   1.842   9.112 -0.9305  0.5471  1.6978
  140SAPE  C21915293   3.867   1.633   9.039 -0.2218  0.8425  0.0151
  140SAPE  H19R15294   3.758   1.621   9.021 -0.3020  1.7620 -0.1480
  140SAPE  H19S15295   3.911   1.541   9.082 -1.0190  1.1475  1.5234
  140SAPE  C22015296   3.917   1.655   8.897  0.3492  0.9682  0.5960
  140SAPE  H20R15297   4.027   1.668   8.898  0.2494  1.9686  0.0145
  140SAPE  H20S15298   3.871   1.743   8.848  0.1006 -0.2186 -1.4147
  140SAPE  H20T15299   3.887   1.575   8.827 -1.2872  1.8955  0.1896
  140SAPE   C3315300   3.397   2.428  10.185  0.3930 -0.4934  0.0984
  140SAPE   H3X15301   3.378   2.319  10.170  1.0626 -0.7552  1.0445
  140SAPE   H3Y15302   3.503   2.442  10.154  1.4108 -1.2701  2.9138
  140SAPE   C3415303   3.298   2.507  10.099  0.6113 -0.9176  1.0558
  140SAPE   H4X15304   3.307   2.612  10.135 -1.9360 -0.6329  1.0308
  140SAPE   H4Y15305   3.188   2.492  10.112  0.4458  1.3324  2.9903
  140SAPE   C3515306   3.343   2.495   9.950 -0.3433 -0.4638 -0.1461
  140SAPE   H5X15307   3.409   2.406   9.943 -0.4135 -0.7862  2.3023
  140SAPE   H5Y15308   3.412   2.576   9.917 -1.8625  1.4624  1.1613
  140SAPE   C3615309   3.231   2.470   9.850 -0.7050  0.4900  0.1919
  140SAPE   H6X15310   3.145   2.528   9.891  0.0818  1.2296  0.8370
  140SAPE   H6Y15311   3.202   2.362   9.843 -2.2813  0.7581  1.6861
  140SAPE   C3715312   3.271   2.532   9.714  0.2577  0.5455  0.3336
  140SAPE   H7X15313   3.337   2.620   9.731  2.7575 -1.7531  4.0590
  140SAPE   H7Y15314   3.175   2.558   9.663 -1.3047 -1.3947  2.0975
  140SAPE   C3815315   3.347   2.435   9.625  0.2072 -0.8171  0.4793
  140SAPE   H8X15316   3.282   2.345   9.618 -1.7314  0.5987 -1.3203
  140SAPE   H8Y15317   3.447   2.415   9.667  0.7338 -0.5477 -0.6003
  140SAPE   C3915318   3.379   2.507   9.489 -0.1883  0.5823 -0.4598
  140SAPE   H9X15319   3.448   2.438   9.436  0.5709  1.5109 -0.7126
  140SAPE   H9Y15320   3.434   2.603   9.506  0.6995  0.1175 -0.6172
  140SAPE  C31015321   3.276   2.530   9.381  1.7680  0.0916  0.5603
  140SAPE  H10X15322   3.205   2.601   9.430  0.6406 -0.7510  0.1941
  140SAPE  H10Y15323   3.219   2.440   9.349 -0.8979  2.0418 -0.6587
  140SAPE  C31115324   3.315   2.598   9.250 -0.1582 -0.1905  0.1168
  140SAPE  H11X15325   3.386   2.531   9.197 -0.3360  0.2808 -0.7395
  140SAPE  H11Y15326   3.375   2.688   9.274 -0.9302 -0.0162  1.5249
  140SAPE  C31215327   3.195   2.645   9.167 -0.3361 -0.3320  0.0007
  140SAPE  H12X15328   3.159   2.731   9.227 -0.2883 -1.8448  2.3094
  140SAPE  H12Y15329   3.120   2.565   9.149 -0.1863 -0.5738  0.4491
  140SAPE  C31315330   3.239   2.710   9.034  0.2890  0.1914  0.2902
  140SAPE  H13X15331   3.327   2.775   9.057  1.6228 -1.1438 -0.8541
  140SAPE  H13Y15332   3.160   2.768   8.982 -0.3307 -1.0917 -0.2306
  140SAPE  C31415333   3.291   2.608   8.928 -0.4088 -0.9196  0.0503
  140SAPE  H14X15334   3.204   2.548   8.893  1.3780 -2.3239 -2.3270
  140SAPE  H14Y15335   3.364   2.536   8.969  0.9912 -0.1948 -1.0955
  140SAPE  C31515336   3.350   2.672   8.803  0.2529  0.1110  1.2283
  140SAPE  H15X15337   3.271   2.735   8.757  2.1174  0.7506 -1.3387
  140SAPE  H15Y15338   3.381   2.589   8.735 -1.0710 -2.0996  3.1746
  140SAPE  C31615339   3.474   2.764   8.830 -0.3316 -1.1374  0.3978
  140SAPE  H16X15340   3.446   2.848   8.897  1.8291 -0.4815  0.5674
  140SAPE  H16Y15341   3.494   2.804   8.728  0.1470 -0.8926  0.5860
  140SAPE  C31715342   3.603   2.706   8.896  0.0607  0.6976 -0.7972
  140SAPE  H17X15343   3.656   2.645   8.820 -1.8022 -1.1008 -0.7280
  140SAPE  H17Y15344   3.583   2.630   8.974  3.9216 -0.0256 -0.3163
  140SAPE  C31815345   3.693   2.805   8.956 -0.3386 -0.5942 -0.4601
  140SAPE  H18X15346   3.761   2.856   8.884  2.1067  0.5872  2.4540
  140SAPE  H18Y15347   3.740   2.771   9.051 -1.8920  0.0699  0.5866
  140SAPE  H18Z15348   3.626   2.886   8.992 -0.3517 -0.1847 -1.3779
  141SAPE     N15349   3.603   3.863  10.581 -0.2252  0.2185 -0.5628
  141SAPE   HN115350   3.517   3.911  10.547 -0.0469  2.2485  1.5901
  141SAPE   HN215351   3.655   3.922  10.650 -1.9601  0.8270  0.2749
  141SAPE   HN315352   3.664   3.836  10.501  0.7184 -0.1502  0.2541
  141SAPE   C1215353   3.565   3.737  10.652 -0.2264 -0.5612  0.0498
  141SAPE  H12A15354   3.604   3.747  10.756  0.6336 -1.0966 -0.2091
  141SAPE  H12B15355   3.618   3.655  10.600 -0.8095 -0.4636 -0.7080
  141SAPE   C1115356   3.409   3.713  10.660  0.1893 -0.5529  0.4695
  141SAPE  H11A15357   3.360   3.710  10.561  1.1710 -1.1148 -0.0041
  141SAPE  H11B15358   3.371   3.808  10.704 -2.9874 -0.5618 -1.8919
  141SAPE     P15359   3.297   3.569  10.850  0.5755 -0.1139 -0.6867
  141SAPE   O1315360   3.367   3.479  10.934 -0.4962 -0.2069 -0.6009
  141SAPE   O1415361   3.247   3.690  10.923 -0.4927 -0.0796 -0.2336
  141SAPE   O1215362   3.380   3.593  10.728 -0.0300 -0.0024  0.3008
  141SAPE   O1115363   3.177   3.495  10.797  0.4350 -0.1474  0.1695
  141SAPE    C115364   3.087   3.546  10.698 -0.0855  0.7129 -0.4847
  141SAPE    HA15365   2.984   3.540  10.737  0.3409 -0.0438  0.5850
  141SAPE    HB15366   3.114   3.644  10.653  0.3055  1.1515  0.6689
  141SAPE    C215367   3.089   3.449  10.579 -0.0376  0.2244  0.1589
  141SAPE    HS15368   3.090   3.347  10.623 -0.2428  0.1886  0.0833
  141SAPE   O2115369   3.206   3.485  10.511  0.5978  0.5049 -0.1069
  141SAPE   C2115370   3.277   3.384  10.458  0.4328 -0.8620  0.0322
  141SAPE   O2215371   3.238   3.277  10.427  0.3928  0.1573  0.0309
  141SAPE   C2215372   3.417   3.426  10.416 -0.0566  0.1928  0.2148
  141SAPE   H2R15373   3.462   3.484  10.500  0.0218  1.5917 -0.7581
  141SAPE   H2S15374   3.469   3.331  10.390  0.2988  0.0558  1.3698
  141SAPE    C315375   2.960   3.465  10.497 -0.1491 -0.4581 -0.2321
  141SAPE    HX15376   2.938   3.571  10.473 -1.9013 -1.0036 -1.2493
  141SAPE    HY15377   2.875   3.429  10.560 -0.3089 -0.5695 -0.5105
  141SAPE   O3115378   2.969   3.382  10.382 -0.0590  0.3249  0.4832
  141SAPE   C3115379   3.007   3.434  10.265 -0.1559 -0.0430 -0.4085
  141SAPE   O3215380   3.053   3.544  10.237 -0.3193 -0.5053 -0.1508
  141SAPE   C3215381   2.979   3.329  10.155 -0.3377  0.4544  0.2130
  141SAPE   H2X15382   2.869   3.332  10.138 -0.1763  1.6231 -0.7804
  141SAPE   H2Y15383   3.022   3.234  10.194 -0.5090  0.1333 -0.3719
  141SAPE   C2315384   3.427   3.533  10.296 -0.8922 -0.1090 -0.5815
  141SAPE   H3R15385   3.399   3.630  10.341 -0.2956 -0.7906  1.3675
  141SAPE   H3S15386   3.364   3.504  10.210 -0.3621 -2.1214 -0.3496
  141SAPE   C2415387   3.569   3.557  10.232 -0.7193  0.0017 -0.2128
  141SAPE   H4R15388   3.650   3.583  10.303 -0.4811 -0.0931 -0.4510
  141SAPE   H4S15389   3.555   3.645  10.165 -2.5262 -0.8345 -0.9987
  141SAPE   C2515390   3.619   3.434  10.150  0.0785 -1.2601 -0.3514
  141SAPE   H5R15391   3.668   3.364  10.219  0.1916  0.3911  1.3309
  141SAPE   C2615392   3.602   3.408  10.024  0.0042  0.5325  1.1980
  141SAPE   H6R15393   3.654   3.318   9.987 -0.1379  1.6533 -2.1211
  141SAPE   C2715394   3.533   3.487   9.918  0.4023  0.0854  0.5305
  141SAPE   H7R15395   3.611   3.541   9.861  0.3879 -2.0016 -1.5891
  141SAPE   H7S15396   3.475   3.570   9.965 -0.2529  0.3157 -0.6652
  141SAPE   C2815397   3.440   3.411   9.834  0.6323  0.1992  0.0696
  141SAPE   H8R15398   3.377   3.342   9.892  0.2594 -0.0847 -0.6597
  141SAPE   C2915399   3.416   3.429   9.701  0.3535  0.2842 -0.6661
  141SAPE   H9R15400   3.341   3.371   9.644 -1.2482  0.6974  0.9110
  141SAPE  C21015401   3.487   3.535   9.620 -0.2330 -0.7079  0.2676
  141SAPE  H10R15402   3.591   3.557   9.654  0.2827  0.4240 -1.8461
  141SAPE  H10S15403   3.431   3.630   9.630  0.6821 -0.1678  0.4507
  141SAPE  C21115404   3.485   3.519   9.469 -0.1550 -0.0727 -0.1999
  141SAPE  H11R15405   3.437   3.424   9.439  0.8217 -0.7480  0.3257
  141SAPE  C21215406   3.538   3.596   9.372  0.9126 -0.4168  0.2213
  141SAPE  H12R15407   3.525   3.563   9.268  0.2867 -2.5918  0.9373
  141SAPE  C21315408   3.614   3.723   9.385 -0.1085  0.3606 -0.5621
  141SAPE  H13R15409   3.724   3.715   9.374 -0.2151  0.2469 -1.6991
  141SAPE  H13S15410   3.608   3.760   9.489  0.8357  5.4133 -2.0572
  141SAPE  C21415411   3.565   3.829   9.289 -0.2837  0.9293  1.1605
  141SAPE  H14R15412   3.476   3.888   9.318  1.0892  2.4086  2.5631
  141SAPE  C21515413   3.628   3.873   9.179 -0.2536  0.0909  1.1397
  141SAPE  H15R15414   3.586   3.958   9.123  1.4747 -0.4765 -1.1733
  141SAPE  C21615415   3.755   3.815   9.119  0.3846  0.9893  0.6195
  141SAPE  H16R15416   3.778   3.717   9.166 -2.3138 -0.2711 -0.4619
  141SAPE  H16S15417   3.839   3.885   9.142  1.0687  0.4929 -0.2826
  141SAPE  C21715418   3.750   3.790   8.969 -0.5469 -0.0595  0.5694
  141SAPE  H17R15419   3.854   3.763   8.939 -0.7208  1.0220 -1.1315
  141SAPE  H17S15420   3.719   3.883   8.918  0.5454  1.0076  1.7892
  141SAPE  C21815421   3.675   3.671   8.921  0.3075 -0.7438  0.6399
  141SAPE  H18R15422   3.566   3.690   8.910  0.5317  0.6628  0.6380
  141SAPE  H18S15423   3.683   3.600   9.006 -0.1295  0.5167  1.7782
  141SAPE  C21915424   3.725   3.607   8.796 -0.0567 -0.6004  0.8933
  141SAPE  H19R15425   3.670   3.511   8.782 -0.3000 -0.3026 -0.2137
  141SAPE  H19S15426   3.832   3.575   8.801  0.4859  0.8791 -0.6771
  141SAPE  C22015427   3.703   3.696   8.677  0.3824  0.2227 -0.1711
  141SAPE  H20R15428   3.598   3.684   8.642 -1.1715  2.0712  3.3887
  141SAPE  H20S15429   3.773   3.671   8.594  1.5443 -0.1180  0.8844
  141SAPE  H20T15430   3.725   3.802   8.702  1.2639  0.4138 -1.6384
  141SAPE   C3315431   3.043   3.366  10.021 -0.3443 -0.5597 -0.6257
  141SAPE   H3X15432   3.151   3.383  10.041 -0.7389  0.3935  0.8720
  141SAPE   H3Y15433   2.996   3.466  10.004 -0.6610 -0.5934  0.0226
  141SAPE   C3415434   2.996   3.274   9.906 -0.1808 -0.0663 -0.3932
  141SAPE   H4X15435   2.889   3.299   9.889 -0.8080 -0.9599  1.8264
  141SAPE   H4Y15436   2.996   3.172   9.951  1.8200  0.7986  1.7793
  141SAPE   C3515437   3.070   3.302   9.772 -0.0369  0.1468 -0.7466
  141SAPE   H5X15438   3.180   3.290   9.777 -0.0103 -0.8300 -2.7803
  141SAPE   H5Y15439   3.041   3.408   9.756 -0.8844  0.1920  0.8462
  141SAPE   C3615440   3.015   3.208   9.660  0.2595  0.0824  0.5086
  141SAPE   H6X15441   2.915   3.238   9.621  0.2621 -2.2267 -1.4766
  141SAPE   H6Y15442   3.019   3.100   9.685  3.1896  0.0519  0.2388
  141SAPE   C3715443   3.105   3.214   9.531  0.3606 -0.5877  0.0763
  141SAPE   H7X15444   3.080   3.131   9.462 -1.4878 -1.2022  1.3759
  141SAPE   H7Y15445   3.214   3.197   9.541  0.3480 -1.2593 -0.8767
  141SAPE   C3815446   3.090   3.354   9.462 -0.1826 -0.4942 -0.6349
  141SAPE   H8X15447   3.135   3.432   9.527  0.1730 -0.1254 -1.3032
  141SAPE   H8Y15448   2.981   3.365   9.445 -0.9498 -2.2510  2.4787
  141SAPE   C3915449   3.164   3.349   9.327 -0.1988  0.7002  0.4891
  141SAPE   H9X15450   3.121   3.259   9.279  0.6177 -0.3204  1.6170
  141SAPE   H9Y15451   3.269   3.337   9.359 -0.4865  1.1067  1.6437
  141SAPE  C31015452   3.153   3.473   9.232  0.0790  0.0017 -0.0758
  141SAPE  H10X15453   3.231   3.547   9.260  1.2192 -1.1279 -0.1647
  141SAPE  H10Y15454   3.058   3.530   9.226  0.5366  0.8395  0.3443
  141SAPE  C31115455   3.179   3.428   9.088 -0.2670 -0.4951  0.1589
  141SAPE  H11X15456   3.085   3.407   9.033  0.1346  0.1020 -0.7833
  141SAPE  H11Y15457   3.235   3.334   9.107  1.2532  0.5471  1.0755
  141SAPE  C31215458   3.270   3.537   9.012  0.4005 -0.1845  0.4561
  141SAPE  H12X15459   3.358   3.549   9.079  1.0278  3.2909 -0.8040
  141SAPE  H12Y15460   3.220   3.635   9.003  0.0770 -0.3481  0.4783
  141SAPE  C31315461   3.330   3.507   8.874 -0.1731  0.2086  0.2358
  141SAPE  H13X15462   3.413   3.434   8.883  0.0971  0.0813 -2.4980
  141SAPE  H13Y15463   3.386   3.596   8.839  0.0791 -0.2542 -0.5819
  141SAPE  C31415464   3.226   3.441   8.774 -0.7410 -0.2707 -0.3326
  141SAPE  H14X15465   3.155   3.519   8.739  1.1255  1.8159  0.2934
  141SAPE  H14Y15466   3.173   3.352   8.813 -2.0247  0.4055 -0.4776
  141SAPE  C31515467   3.295   3.396   8.642  0.2336  0.1222  0.3000
  141SAPE  H15X15468   3.399   3.433   8.639  1.3875 -2.9249 -1.2119
  141SAPE  H15Y15469   3.246   3.438   8.552  1.0221 -2.3736 -1.3780
  141SAPE  C31615470   3.304   3.239   8.633 -0.7110  0.1559  0.0500
  141SAPE  H16X15471   3.350   3.196   8.725 -1.2355  1.5013  0.9817
  141SAPE  H16Y15472   3.354   3.207   8.539 -2.3867 -0.4056 -0.6843
  141SAPE  C31715473   3.161   3.172   8.626  0.0417  0.0221 -0.2307
  141SAPE  H17X15474   3.135   3.161   8.518 -0.4896 -0.2983 -0.0760
  141SAPE  H17Y15475   3.084   3.247   8.654  0.7683  1.0006 -0.7938
  141SAPE  C31815476   3.144   3.042   8.694  0.2082  0.0810  0.3941
  141SAPE  H18X15477   3.214   2.966   8.654 -1.5692 -1.7424  0.5853
  141SAPE  H18Y15478   3.042   3.001   8.682  0.5383 -0.4626 -0.6929
  141SAPE  H18Z15479   3.148   3.044   8.805 -0.9587 -1.1228  0.4819
  142SAPE     N15480   2.846   1.024  10.999 -0.8037 -0.8073  0.8526
  142SAPE   HN115481   2.826   1.070  10.908 -0.8128 -0.3395  1.0861
  142SAPE   HN215482   2.889   0.932  10.977  1.4265 -0.0190  1.5794
  142SAPE   HN315483   2.754   1.009  11.045 -1.8267  1.0077 -0.4672
  142SAPE   C1215484   2.936   1.106  11.084 -0.1328  0.1568  0.5675
  142SAPE  H12A15485   2.966   1.038  11.166 -2.8543  0.3561  1.8725
  142SAPE  H12B15486   2.870   1.184  11.129 -0.2512  1.3887 -1.5971
  142SAPE   C1115487   3.051   1.173  11.004  0.4286  0.6118  1.0771
  142SAPE  H11A15488   2.998   1.237  10.930  0.6082 -0.4135  0.0542
  142SAPE  H11B15489   3.098   1.084  10.958 -1.1019 -0.0274  0.6761
  142SAPE     P15490   3.291   1.258  11.034  0.1035  0.3304  0.1151
  142SAPE   O1315491   3.356   1.383  11.068  0.0322 -0.2628 -0.5900
  142SAPE   O1415492   3.354   1.134  11.074  0.2098  0.1124 -0.3810
  142SAPE   O1215493   3.140   1.253  11.086 -0.5115  0.1817  0.0571
  142SAPE   O1115494   3.277   1.256  10.872  0.2441 -0.2803  0.1787
  142SAPE    C115495   3.251   1.381  10.803  0.6037  0.1547  1.2280
  142SAPE    HA15496   3.148   1.417  10.825 -0.1150 -1.4214  0.5829
  142SAPE    HB15497   3.328   1.455  10.835  1.2812  0.6151 -1.2673
  142SAPE    C215498   3.255   1.376  10.653  0.2982  0.3658 -0.0420
  142SAPE    HS15499   3.189   1.457  10.616 -0.1758  0.1243  0.2635
  142SAPE   O2115500   3.213   1.255  10.594  0.1950 -0.2805 -0.3994
  142SAPE   C2115501   3.097   1.216  10.618  0.2531  0.6831 -0.0806
  142SAPE   O2215502   3.016   1.270  10.693  0.1884 -0.3127 -0.1672
  142SAPE   C2215503   3.076   1.092  10.535  0.0247 -0.0359  0.2034
  142SAPE   H2R15504   3.166   1.026  10.540  1.4425  1.8954  1.3243
  142SAPE   H2S15505   2.999   1.033  10.590 -0.4587  0.6298  0.2423
  142SAPE    C315506   3.403   1.400  10.604  0.1879 -0.0193 -0.0259
  142SAPE    HX15507   3.474   1.330  10.652  0.2885 -1.3990 -2.0949
  142SAPE    HY15508   3.435   1.501  10.638 -1.5918  0.1377  1.3396
  142SAPE   O3115509   3.423   1.390  10.452  0.0296 -0.4064 -0.8967
  142SAPE   C3115510   3.551   1.358  10.416 -0.9769  0.6788  0.3035
  142SAPE   O3215511   3.641   1.339  10.493 -0.4123  0.2591 -0.1596
  142SAPE   C3215512   3.556   1.339  10.268 -0.0854 -0.1569  0.1719
  142SAPE   H2X15513   3.526   1.433  10.217 -0.8743 -0.9259 -0.8142
  142SAPE   H2Y15514   3.478   1.262  10.254  1.0125 -1.7596  2.2264
  142SAPE   C2315515   3.009   1.107  10.396  0.0225 -0.5524 -0.8160
  142SAPE   H3R15516   2.906   1.148  10.400  0.1289 -0.3559 -0.0525
  142SAPE   H3S15517   2.992   1.009  10.345 -2.2479  0.1144 -1.4441
  142SAPE   C2415518   3.071   1.212  10.306 -0.0380 -0.1319 -0.5897
  142SAPE   H4R15519   3.076   1.300  10.374  1.6337  2.5032 -3.8348
  142SAPE   H4S15520   3.009   1.248  10.222  0.1608  1.4044 -0.1137
  142SAPE   C2515521   3.215   1.193  10.264  0.2015  0.6108  0.4487
  142SAPE   H5R15522   3.289   1.215  10.342  0.4681 -0.7888  0.6137
  142SAPE   C2615523   3.257   1.140  10.149 -0.6300  0.2989  0.7231
  142SAPE   H6R15524   3.366   1.141  10.135 -0.7093  3.1437 -0.1726
  142SAPE   C2715525   3.164   1.099  10.034  0.4267 -0.2800  0.8891
  142SAPE   H7R15526   3.177   1.178   9.957 -1.7116 -0.3199  0.4360
  142SAPE   H7S15527   3.059   1.102  10.068  0.5402  0.9952  1.1596
  142SAPE   C2815528   3.187   0.960   9.976  0.0365  0.2473 -0.2290
  142SAPE   H8R15529   3.216   0.884  10.050 -0.9058 -0.4265 -0.5302
  142SAPE   C2915530   3.179   0.924   9.848 -0.3886 -0.5944  0.2600
  142SAPE   H9R15531   3.219   0.824   9.824  2.3738  0.2356  1.0310
  142SAPE  C21015532   3.158   1.013   9.729  0.2670 -0.3459 -0.3300
  142SAPE  H10R15533   3.261   1.038   9.695  0.7718 -0.2969  1.1378
  142SAPE  H10S15534   3.093   1.101   9.751 -0.4671 -1.0456  0.3659
  142SAPE  C21115535   3.069   0.942   9.621  0.1379  0.9534 -0.1530
  142SAPE  H11R15536   2.988   0.879   9.660  1.1893 -0.3060  0.0508
  142SAPE  C21215537   3.096   0.941   9.489 -0.8442 -0.1127 -0.0263
  142SAPE  H12R15538   3.029   0.892   9.418 -2.8618  1.9433  0.3443
  142SAPE  C21315539   3.205   1.020   9.419 -0.2168 -0.1621 -0.4074
  142SAPE  H13R15540   3.301   1.017   9.475  0.0397 -1.7276 -0.8691
  142SAPE  H13S15541   3.163   1.123   9.420  0.0712 -0.0410 -0.6012
  142SAPE  C21415542   3.225   0.987   9.274 -0.1357  0.7195 -0.0838
  142SAPE  H14R15543   3.156   0.913   9.230  0.5853 -0.6828  1.0726
  142SAPE  C21515544   3.319   1.043   9.201  0.2207  0.7009  1.0639
  142SAPE  H15R15545   3.337   1.013   9.097  0.5711  2.0468  0.7159
  142SAPE  C21615546   3.422   1.140   9.256  0.1967  0.1075 -0.3416
  142SAPE  H16R15547   3.443   1.139   9.365  0.9652 -0.8711 -0.4847
  142SAPE  H16S15548   3.382   1.241   9.236  0.3555  0.3439  0.4966
  142SAPE  C21715549   3.557   1.136   9.175  0.1501  0.4346  0.2686
  142SAPE  H17R15550   3.533   1.120   9.067 -2.1678  0.5723  0.7041
  142SAPE  H17S15551   3.610   1.041   9.199  1.3639  0.3950 -2.2246
  142SAPE  C21815552   3.655   1.248   9.193  0.5200 -0.0145 -0.3697
  142SAPE  H18R15553   3.710   1.254   9.289  3.4101  1.8658 -1.9870
  142SAPE  H18S15554   3.597   1.339   9.169  0.7648  0.0378 -0.7705
  142SAPE  C21915555   3.762   1.250   9.088  0.5585  0.3232  0.0558
  142SAPE  H19R15556   3.805   1.147   9.084  0.8063  0.4607 -2.3869
  142SAPE  H19S15557   3.837   1.321   9.127 -0.2680  0.4980  1.3900
  142SAPE  C22015558   3.718   1.309   8.951  0.1849  0.6589  0.1831
  142SAPE  H20R15559   3.650   1.239   8.898 -0.2848  0.2171  1.3372
  142SAPE  H20S15560   3.802   1.309   8.879  0.8533  0.6411  0.9445
  142SAPE  H20T15561   3.675   1.411   8.953 -1.1957  0.1331  3.1743
  142SAPE   C3315562   3.676   1.279  10.207  0.5413  0.7594  0.3858
  142SAPE   H3X15563   3.678   1.172  10.238 -0.5800  0.6356  0.0437
  142SAPE   H3Y15564   3.771   1.337  10.213  0.9896  0.2681 -1.4086
  142SAPE   C3415565   3.648   1.265  10.053 -0.0603 -0.1817 -0.0439
  142SAPE   H4X15566   3.638   1.369  10.017 -1.7395 -0.0724  0.6597
  142SAPE   H4Y15567   3.557   1.204  10.037 -1.4455  0.7465  3.3112
  142SAPE   C3515568   3.771   1.230   9.975 -0.1576 -1.0102 -0.3623
  142SAPE   H5X15569   3.798   1.124   9.992  1.6531 -0.8022 -1.6089
  142SAPE   H5Y15570   3.856   1.290  10.013 -0.4337 -0.7440 -0.1649
  142SAPE   C3615571   3.756   1.256   9.822 -1.4297  0.5317 -0.1771
  142SAPE   H6X15572   3.753   1.362   9.790 -3.0099  0.5090 -0.1705
  142SAPE   H6Y15573   3.655   1.222   9.792 -1.4630  0.1671  0.3382
  142SAPE   C3715574   3.867   1.183   9.746 -0.6063  0.1156 -0.2363
  142SAPE   H7X15575   3.857   1.078   9.781  2.0795  0.5959  2.4605
  142SAPE   H7Y15576   3.967   1.229   9.762  0.9234 -2.7941 -0.7244
  142SAPE   C3815577   3.844   1.161   9.585 -0.1198  0.0040  0.2302
  142SAPE   H8X15578   3.821   1.260   9.540 -0.3658  1.7333  3.8417
  142SAPE   H8Y15579   3.766   1.083   9.568  0.7417 -0.5997 -1.1615
  142SAPE   C3915580   3.974   1.119   9.516 -0.4813 -0.0399 -0.0047
  142SAPE   H9X15581   4.022   1.038   9.575 -1.7901 -1.2923 -0.6083
  142SAPE   H9Y15582   4.046   1.203   9.527  1.0574 -1.1242 -1.2948
  142SAPE  C31015583   3.972   1.094   9.362 -0.3768 -0.0284 -0.2403
  142SAPE  H10X15584   3.908   1.177   9.325 -2.5120 -0.3303  2.4532
  142SAPE  H10Y15585   3.932   0.994   9.338 -0.1946  0.3273 -2.1257
  142SAPE  C31115586   4.108   1.092   9.298 -0.5991  0.3038  0.4952
  142SAPE  H11X15587   4.197   1.050   9.349 -0.1421  1.9462  1.0844
  142SAPE  H11Y15588   4.131   1.200   9.303  1.7712 -0.0815 -0.5905
  142SAPE  C31215589   4.107   1.031   9.160 -0.5684  0.1346 -0.5370
  142SAPE  H12X15590   4.039   1.086   9.091  0.6609  0.0646 -1.8645
  142SAPE  H12Y15591   4.077   0.924   9.164  0.4994 -0.1937 -1.0090
  142SAPE  C31315592   4.245   1.041   9.093  0.2340 -0.6172 -0.3181
  142SAPE  H13X15593   4.319   0.985   9.153 -0.7125 -2.0693 -0.4492
  142SAPE  H13Y15594   4.275   1.148   9.090 -0.4977 -0.4194 -1.2794
  142SAPE  C31415595   4.238   0.993   8.947  0.1773  0.1926  0.2148
  142SAPE  H14X15596   4.142   1.031   8.904 -0.9746 -1.8981  0.7680
  142SAPE  H14Y15597   4.220   0.884   8.936 -0.4703  0.3073  0.0527
  142SAPE  C31515598   4.355   1.037   8.868 -0.2212  0.0114 -0.0031
  142SAPE  H15X15599   4.447   0.986   8.903  0.2399  0.2710 -0.8047
  142SAPE  H15Y15600   4.368   1.147   8.877 -1.2079  0.2475 -1.2438
  142SAPE  C31615601   4.342   1.030   8.714 -0.6220  0.1627  0.0951
  142SAPE  H16X15602   4.275   1.111   8.679 -2.3473 -1.1776  0.1085
  142SAPE  H16Y15603   4.293   0.931   8.695  0.9336 -0.5682 -0.2882
  142SAPE  C31715604   4.474   1.041   8.639 -0.0082  0.3374 -0.2210
  142SAPE  H17X15605   4.557   1.002   8.702  0.0205  1.2445  0.3330
  142SAPE  H17Y15606   4.503   1.147   8.621  1.5363 -0.3937 -2.5231
  142SAPE  C31815607   4.479   0.979   8.504  0.8115  0.7945 -0.3442
  142SAPE  H18X15608   4.565   1.000   8.436  0.5452  1.5337 -0.4594
  142SAPE  H18Y15609   4.388   1.005   8.446  0.5410 -1.7126 -1.1797
  142SAPE  H18Z15610   4.478   0.868   8.506 -1.9490  0.6817 -2.0714
  143SAPE     N15611   5.311   2.731  11.322  0.5379 -0.5550 -0.9493
  143SAPE   HN115612   5.375   2.651  11.337 -0.9823 -1.6371  0.1089
  143SAPE   HN215613   5.329   2.809  11.389  1.1608 -1.9490  0.5643
  143SAPE   HN315614   5.216   2.701  11.351  0.5245  1.4724  1.4540
  143SAPE   C1215615   5.340   2.775  11.181  0.6082 -0.8950  0.0815
  143SAPE  H12A15616   5.445   2.810  11.173  0.4313 -0.6040 -1.1060
  143SAPE  H12B15617   5.271   2.858  11.154 -0.9836 -2.1723  0.0881
  143SAPE   C1115618   5.309   2.664  11.076 -0.1642 -0.0622 -0.2669
  143SAPE  H11A15619   5.377   2.579  11.098  0.3862  0.5607  0.5174
  143SAPE  H11B15620   5.331   2.689  10.970  1.9759  0.6366  0.3036
  143SAPE     P15621   5.058   2.663  10.995  0.5241 -0.2276 -0.2751
  143SAPE   O1315622   4.928   2.625  11.054 -0.4772  0.7146  0.5639
  143SAPE   O1415623   5.079   2.803  10.960  0.3265  0.5270 -0.5625
  143SAPE   O1215624   5.172   2.623  11.095 -0.0627  0.6108  0.4868
  143SAPE   O1115625   5.085   2.574  10.862  0.3509 -0.2670 -0.1983
  143SAPE    C115626   5.118   2.435  10.890  0.3346 -0.5532  0.0246
  143SAPE    HA15627   5.222   2.436  10.930 -0.1933  1.0761  1.5399
  143SAPE    HB15628   5.048   2.395  10.967  0.6945 -0.7907  0.2359
  143SAPE    C215629   5.122   2.334  10.769  0.0543 -0.4578 -0.6636
  143SAPE    HS15630   5.116   2.235  10.819 -3.2739  0.2083  0.5078
  143SAPE   O2115631   5.248   2.360  10.704  0.1497  0.1658 -0.7833
  143SAPE   C2115632   5.322   2.242  10.678  0.6739  0.4460 -0.5643
  143SAPE   O2215633   5.281   2.132  10.698 -0.1950  0.2588 -0.2543
  143SAPE   C2215634   5.458   2.281  10.614 -0.4353  0.0357 -0.2717
  143SAPE   H2R15635   5.476   2.388  10.635  0.7574 -0.2286  0.1404
  143SAPE   H2S15636   5.529   2.215  10.669  0.8477  0.4692 -1.3423
  143SAPE    C315637   5.005   2.352  10.673  0.1219  0.1843  0.2281
  143SAPE    HX15638   4.999   2.457  10.637  2.6580  0.3847  0.2553
  143SAPE    HY15639   4.917   2.325  10.736  1.8630  0.7321  3.0667
  143SAPE   O3115640   5.009   2.263  10.564  0.3352 -0.0640 -0.2889
  143SAPE   C3115641   4.973   2.137  10.594  0.0192 -0.6309 -0.2260
  143SAPE   O3215642   4.934   2.096  10.703 -0.0022  0.1726  0.2109
  143SAPE   C3215643   4.982   2.050  10.462  0.5664  0.2185 -0.5949
  143SAPE   H2X15644   4.909   2.097  10.393 -1.9656 -0.3201  1.5591
  143SAPE   H2Y15645   4.936   1.955  10.496 -1.0275  1.5317  1.0921
  143SAPE   C2315646   5.476   2.246  10.466  0.0358  0.3221  0.5779
  143SAPE   H3R15647   5.458   2.137  10.458  1.1379  0.2470 -1.7358
  143SAPE   H3S15648   5.576   2.259  10.420  0.3582 -1.3365  0.7388
  143SAPE   C2415649   5.373   2.320  10.372 -0.1652 -0.2115  0.0880
  143SAPE   H4R15650   5.290   2.348  10.440  1.4529  1.6062  1.4224
  143SAPE   H4S15651   5.336   2.253  10.291  1.6135  0.0922 -1.0394
  143SAPE   C2515652   5.433   2.442  10.303  0.7473 -1.2378  0.0664
  143SAPE   H5R15653   5.446   2.525  10.374  0.0508  1.2598 -2.5200
  143SAPE   C2615654   5.460   2.462  10.173 -0.4841  0.1615 -0.1898
  143SAPE   H6R15655   5.535   2.538  10.146  2.6902 -1.5738  2.8822
  143SAPE   C2715656   5.443   2.364  10.062 -0.1132  0.1608  0.5275
  143SAPE   H7R15657   5.438   2.261  10.103  0.2081  0.3536  1.0681
  143SAPE   H7S15658   5.538   2.368  10.004  1.4238  1.3242  2.9361
  143SAPE   C2815659   5.324   2.412   9.981  1.1453 -0.3369  0.6472
  143SAPE   H8R15660   5.244   2.474  10.026  1.6768 -0.2936  1.5552
  143SAPE   C2915661   5.303   2.373   9.851  0.0454 -0.0592  0.3011
  143SAPE   H9R15662   5.216   2.409   9.794  2.4702  3.4113 -1.6066
  143SAPE  C21015663   5.398   2.284   9.769  0.6911  0.1907 -0.0952
  143SAPE  H10R15664   5.426   2.190   9.820 -0.3565 -0.8994 -1.4680
  143SAPE  H10S15665   5.492   2.341   9.753  1.8149 -1.0109  1.8440
  143SAPE  C21115666   5.333   2.235   9.639 -0.6310 -0.3463  0.6198
  143SAPE  H11R15667   5.282   2.137   9.638 -1.5340  0.1157  0.1290
  143SAPE  C21215668   5.331   2.308   9.528 -0.1907  0.2690 -0.4168
  143SAPE  H12R15669   5.313   2.242   9.442  0.3510  0.4635 -0.6845
  143SAPE  C21315670   5.392   2.446   9.502 -0.0754 -0.2054  0.3481
  143SAPE  H13R15671   5.405   2.490   9.603 -1.4753 -0.2946  0.5941
  143SAPE  H13S15672   5.323   2.510   9.443  2.9738  0.2069 -3.1849
  143SAPE  C21415673   5.523   2.430   9.430 -0.1118  0.4183  0.6461
  143SAPE  H14R15674   5.600   2.380   9.491 -0.0184  1.2834  1.2502
  143SAPE  C21515675   5.552   2.470   9.304 -0.3586 -0.1065 -0.0839
  143SAPE  H15R15676   5.653   2.457   9.261 -0.1264  0.6548  0.2063
  143SAPE  C21615677   5.452   2.543   9.210 -0.1456 -0.2867  0.1633
  143SAPE  H16R15678   5.447   2.648   9.245 -0.4728 -0.0631 -0.5524
  143SAPE  H16S15679   5.355   2.489   9.205  0.1839 -0.7652 -2.2356
  143SAPE  C21715680   5.509   2.542   9.066 -0.2285 -0.5484  0.1422
  143SAPE  H17R15681   5.610   2.586   9.050 -0.4156 -0.1563  0.0220
  143SAPE  H17S15682   5.438   2.603   9.007 -1.7805 -3.2442 -0.9781
  143SAPE  C21815683   5.513   2.405   9.003 -0.3747  0.0653 -0.4725
  143SAPE  H18R15684   5.423   2.347   9.034 -1.1094  0.6630 -1.4316
  143SAPE  H18S15685   5.604   2.361   9.049  0.8677  1.7412 -1.2485
  143SAPE  C21915686   5.534   2.428   8.850  0.4160  0.3785  0.2493
  143SAPE  H19R15687   5.641   2.449   8.829  0.4920 -0.9414 -0.8032
  143SAPE  H19S15688   5.479   2.522   8.827  3.7284  2.0213 -1.6372
  143SAPE  C22015689   5.496   2.311   8.757  0.3248  0.1557  0.1211
  143SAPE  H20R15690   5.388   2.287   8.765  0.3362 -0.4511 -1.4024
  143SAPE  H20S15691   5.551   2.223   8.796  0.8973  0.1538 -0.6864
  143SAPE  H20T15692   5.514   2.332   8.650 -4.1942  2.9019 -0.3714
  143SAPE   C3315693   5.126   2.039  10.403 -0.6330  0.1416  0.1371
  143SAPE   H3X15694   5.197   2.002  10.479  0.3475 -1.4283 -1.4677
  143SAPE   H3Y15695   5.164   2.140  10.376  1.3969 -0.1637  1.6350
  143SAPE   C3415696   5.130   1.953  10.278 -0.3470  0.5606 -0.1891
  143SAPE   H4X15697   5.053   1.988  10.205 -0.9105  2.2463  1.1602
  143SAPE   H4Y15698   5.102   1.852  10.316 -1.8561  0.8794 -0.3967
  143SAPE   C3515699   5.275   1.933  10.226 -0.1122 -0.2023 -0.2132
  143SAPE   H5X15700   5.325   1.905  10.321 -2.6115  4.6135  2.9444
  143SAPE   H5Y15701   5.318   2.032  10.201 -0.1126 -0.1187  0.1198
  143SAPE   C3615702   5.269   1.829  10.113 -0.3270  1.0139  0.0228
  143SAPE   H6X15703   5.221   1.735  10.148 -0.8114  0.5226 -1.8558
  143SAPE   H6Y15704   5.371   1.795  10.085 -1.0738 -0.8623 -0.5582
  143SAPE   C3715705   5.223   1.884   9.984 -0.4608 -0.0461  1.2378
  143SAPE   H7X15706   5.298   1.965   9.968 -1.6626  0.8159 -0.3605
  143SAPE   H7Y15707   5.123   1.932   9.987 -0.7236 -0.5769  1.0251
  143SAPE   C3815708   5.223   1.799   9.852  0.1667  0.4714 -0.3979
  143SAPE   H8X15709   5.151   1.716   9.867  0.1991  0.5282  0.0658
  143SAPE   H8Y15710   5.326   1.758   9.841  0.6003 -0.0306  3.8575
  143SAPE   C3915711   5.194   1.886   9.731  0.2058 -0.2396 -0.0253
  143SAPE   H9X15712   5.285   1.945   9.705 -0.2143 -0.0534 -1.1626
  143SAPE   H9Y15713   5.121   1.961   9.767 -0.3544 -0.8085  0.0363
  143SAPE  C31015714   5.163   1.823   9.598  0.4091 -0.0996 -0.1142
  143SAPE  H10X15715   5.127   1.894   9.521 -0.8701 -0.3988  0.1983
  143SAPE  H10Y15716   5.085   1.744   9.608  0.5889 -0.2143  0.4090
  143SAPE  C31115717   5.293   1.751   9.540  0.2633 -0.0488 -0.1782
  143SAPE  H11X15718   5.333   1.680   9.615 -0.8385  0.0522  0.5191
  143SAPE  H11Y15719   5.380   1.818   9.525 -0.6959  1.1579 -0.5410
  143SAPE  C31215720   5.242   1.697   9.411  0.1712 -0.0663  0.4593
  143SAPE  H12X15721   5.202   1.773   9.341 -2.4780 -2.5251 -0.9277
  143SAPE  H12Y15722   5.146   1.642   9.426 -0.0572  0.5561  1.3107
  143SAPE  C31315723   5.336   1.604   9.335 -0.3643  0.3868 -0.5169
  143SAPE  H13X15724   5.383   1.522   9.392 -0.3731  0.3382 -0.5799
  143SAPE  H13Y15725   5.411   1.663   9.277 -0.0030 -0.1504 -0.5960
  143SAPE  C31415726   5.258   1.537   9.218 -0.5525 -0.2257  0.0849
  143SAPE  H14X15727   5.202   1.620   9.169 -0.0440 -1.2010 -2.2702
  143SAPE  H14Y15728   5.183   1.463   9.253  0.4969 -2.1074 -1.4403
  143SAPE  C31515729   5.368   1.481   9.119 -0.0791 -0.3056  0.0175
  143SAPE  H15X15730   5.428   1.569   9.087  2.4222 -2.0550 -0.3559
  143SAPE  H15Y15731   5.325   1.432   9.030 -1.3622 -0.4095  0.6641
  143SAPE  C31615732   5.475   1.382   9.173 -0.7845 -0.1289 -0.1056
  143SAPE  H16X15733   5.428   1.287   9.208  1.0993 -0.0678  3.0283
  143SAPE  H16Y15734   5.529   1.421   9.262 -0.7264 -0.6014  0.0686
  143SAPE  C31715735   5.580   1.339   9.080 -0.3508 -1.0094 -0.2197
  143SAPE  H17X15736   5.531   1.275   9.004 -1.8013  0.9109 -1.0003
  143SAPE  H17Y15737   5.662   1.280   9.126  0.5100  0.9599  0.9244
  143SAPE  C31815738   5.644   1.462   9.003  0.1329  0.3100 -0.2869
  143SAPE  H18X15739   5.717   1.438   8.923  0.9857  0.4646  0.4306
  143SAPE  H18Y15740   5.686   1.534   9.076 -2.3055  1.0131  0.5173
  143SAPE  H18Z15741   5.570   1.524   8.948  0.8397 -0.8368 -2.6918
  144SAPE     N15742   3.454   6.508  10.568 -0.2509  0.8204  0.0206
  144SAPE   HN115743   3.379   6.574  10.540 -0.6039  1.4481  2.2771
  144SAPE   HN215744   3.545   6.557  10.568  0.2170  0.1460 -2.9026
  144SAPE   HN315745   3.470   6.422  10.511 -0.2270 -1.4876  3.2264
  144SAPE   C1215746   3.420   6.468  10.709  0.0439  0.4092 -0.0632
  144SAPE  H12A15747   3.470   6.546  10.770 -1.1245  1.0356  0.1295
  144SAPE  H12B15748   3.466   6.369  10.727  0.7879  1.0161  1.5464
  144SAPE   C1115749   3.272   6.463  10.737  0.3583  0.6043 -0.1717
  144SAPE  H11A15750   3.211   6.556  10.738 -1.9999 -0.8544 -0.7363
  144SAPE  H11B15751   3.274   6.422  10.840  1.2127 -0.0217 -0.4191
  144SAPE     P15752   3.079   6.298  10.698 -0.1397 -0.1832 -0.3291
  144SAPE   O1315753   3.078   6.275  10.845  0.4567  0.2315 -0.3502
  144SAPE   O1415754   2.967   6.379  10.640 -0.3029 -0.3391 -0.6131
  144SAPE   O1215755   3.214   6.365  10.655 -0.0200  0.2847  0.5585
  144SAPE   O1115756   3.078   6.163  10.625 -0.4220 -0.2731  0.5122
  144SAPE    C115757   3.206   6.107  10.584 -0.2731 -0.6241  0.5667
  144SAPE    HA15758   3.285   6.101  10.662  0.3399  0.2200  0.0271
  144SAPE    HB15759   3.190   5.997  10.571 -2.5224 -0.3087  0.2993
  144SAPE    C215760   3.240   6.151  10.442 -0.1039 -0.1173  0.1723
  144SAPE    HS15761   3.259   6.260  10.449  0.8966 -0.3791  3.3061
  144SAPE   O2115762   3.134   6.106  10.357  0.6246 -0.2529 -0.2958
  144SAPE   C2115763   3.121   6.196  10.249  0.2127  0.0406 -0.3110
  144SAPE   O2215764   3.182   6.302  10.235  0.3453  0.0971  0.6598
  144SAPE   C2215765   2.995   6.153  10.162 -0.0122  0.4662 -1.0156
  144SAPE   H2R15766   3.020   6.050  10.130  0.8482 -0.1104  1.3396
  144SAPE   H2S15767   2.911   6.142  10.234  0.5224 -2.6297 -0.7277
  144SAPE    C315768   3.374   6.083  10.406  0.0221 -0.3875  0.2935
  144SAPE    HX15769   3.355   5.973  10.400 -0.1657 -0.2681 -2.6553
  144SAPE    HY15770   3.449   6.095  10.487 -0.4237  0.4505  0.5941
  144SAPE   O3115771   3.424   6.129  10.279  0.0004  0.7642 -0.2153
  144SAPE   C3115772   3.469   6.255  10.284 -0.7204  0.0225  0.3574
  144SAPE   O3215773   3.484   6.327  10.378 -0.0690 -0.2374  0.3062
  144SAPE   C3215774   3.482   6.309  10.138  0.3854 -0.6199  0.5819
  144SAPE   H2X15775   3.395   6.378  10.128  1.2016  0.3554  0.1039
  144SAPE   H2Y15776   3.476   6.230  10.061 -0.9663  0.7123 -0.7671
  144SAPE   C2315777   2.970   6.240  10.039 -0.1140 -0.4747  0.2802
  144SAPE   H3R15778   2.957   6.346  10.072 -2.0782 -0.4823 -0.3156
  144SAPE   H3S15779   2.866   6.215  10.007  0.2769 -1.9473  0.1026
  144SAPE   C2415780   3.074   6.235   9.924 -0.2918 -0.0796  0.6847
  144SAPE   H4R15781   3.171   6.269   9.967 -1.9193  3.3804  1.9833
  144SAPE   H4S15782   3.036   6.313   9.855  1.6169 -1.0605 -1.6064
  144SAPE   C2515783   3.088   6.108   9.849  0.4478  0.0679 -0.4035
  144SAPE   H5R15784   3.142   6.025   9.896  1.6431  1.9765  1.7942
  144SAPE   C2615785   3.061   6.088   9.720 -0.9920 -0.1762 -0.4955
  144SAPE   H6R15786   3.069   5.984   9.684  1.2757  0.2585 -1.4609
  144SAPE   C2715787   3.007   6.185   9.612 -0.5835  0.0521 -0.3180
  144SAPE   H7R15788   2.981   6.285   9.652  0.4184  0.9346 -1.7807
  144SAPE   H7S15789   2.913   6.137   9.577 -1.2872  0.4530  0.9542
  144SAPE   C2815790   3.109   6.187   9.496  0.2866  0.0808  0.2429
  144SAPE   H8R15791   3.215   6.190   9.525 -0.2953 -0.4861  2.6971
  144SAPE   C2915792   3.068   6.201   9.369 -0.1264 -0.4408  0.0929
  144SAPE   H9R15793   3.146   6.217   9.292 -1.0336 -0.4450 -0.8539
  144SAPE  C21015794   2.925   6.212   9.306 -0.3505 -0.2610 -0.6445
  144SAPE  H10R15795   2.917   6.303   9.243 -0.7670 -2.1911 -3.6035
  144SAPE  H10S15796   2.851   6.230   9.387  1.2463  0.2212  0.7660
  144SAPE  C21115797   2.878   6.091   9.233  0.4236  0.5431 -0.0345
  144SAPE  H11R15798   2.850   6.010   9.301  0.4521  0.7619  0.2402
  144SAPE  C21215799   2.845   6.075   9.105  0.7784  0.3166 -0.0948
  144SAPE  H12R15800   2.833   5.973   9.067  1.5998  0.5081 -0.9211
  144SAPE  C21315801   2.843   6.194   9.011  0.6420 -0.2035  0.3314
  144SAPE  H13R15802   2.840   6.284   9.076 -0.5078  1.1177 -1.4881
  144SAPE  H13S15803   2.752   6.202   8.948  0.5666  0.2506  0.4936
  144SAPE  C21415804   2.977   6.199   8.936 -0.4867 -0.0075 -0.6308
  144SAPE  H14R15805   3.061   6.210   9.005  0.3190 -0.5075 -1.5126
  144SAPE  C21515806   3.003   6.179   8.801  0.1087 -0.4634  0.3271
  144SAPE  H15R15807   3.107   6.183   8.765  0.0739 -3.3171 -0.3394
  144SAPE  C21615808   2.897   6.149   8.700  0.3826  0.1096  0.8299
  144SAPE  H16R15809   2.921   6.200   8.605  3.4063 -1.4796  0.6033
  144SAPE  H16S15810   2.799   6.180   8.742  1.1708  0.4710  2.5146
  144SAPE  C21715811   2.884   5.997   8.668 -0.3290  0.7491 -0.5077
  144SAPE  H17R15812   2.879   5.944   8.766  1.4419  2.7916  0.7957
  144SAPE  H17S15813   2.981   5.972   8.621  0.9573  0.7363  1.9931
  144SAPE  C21815814   2.760   5.944   8.592  0.6610 -0.2569 -0.0931
  144SAPE  H18R15815   2.673   5.947   8.660  0.2020 -0.1052 -0.6819
  144SAPE  H18S15816   2.786   5.838   8.571  2.2524  0.2546 -0.9006
  144SAPE  C21915817   2.735   6.011   8.461  0.2269 -0.0869 -0.3020
  144SAPE  H19R15818   2.832   6.022   8.409  0.0464 -1.9104 -1.1084
  144SAPE  H19S15819   2.691   6.113   8.467  0.8557  0.1250  1.0323
  144SAPE  C22015820   2.641   5.933   8.374  0.1031  0.0042 -0.4808
  144SAPE  H20R15821   2.691   5.842   8.334  1.2255 -0.2084  1.2941
  144SAPE  H20S15822   2.595   5.987   8.288 -0.8570  0.5964  0.3786
  144SAPE  H20T15823   2.551   5.904   8.432  0.6045  0.4243  0.5429
  144SAPE   C3315824   3.607   6.385  10.104  0.1755  0.0341 -0.3114
  144SAPE   H3X15825   3.694   6.316  10.111 -1.3156 -1.6918  3.2104
  144SAPE   H3Y15826   3.626   6.463  10.182 -3.5347  1.0455 -0.2551
  144SAPE   C3415827   3.605   6.441   9.963  0.1192  0.3255 -0.0879
  144SAPE   H4X15828   3.702   6.490   9.939  0.1254 -0.6741 -2.4101
  144SAPE   H4Y15829   3.523   6.515   9.972  0.1617  0.2489  1.0852
  144SAPE   C3515830   3.560   6.349   9.847 -0.2453  0.5968  0.1081
  144SAPE   H5X15831   3.450   6.336   9.851 -0.1021 -0.3996  2.7918
  144SAPE   H5Y15832   3.600   6.247   9.862 -1.6746  0.0657  0.4255
  144SAPE   C3615833   3.609   6.413   9.719  0.3815 -0.7492 -0.0456
  144SAPE   H6X15834   3.718   6.433   9.729  0.1709  0.0669  0.7981
  144SAPE   H6Y15835   3.559   6.512   9.707 -1.3855 -1.4206  1.3096
  144SAPE   C3715836   3.573   6.323   9.600  0.3706 -0.0093 -0.2000
  144SAPE   H7X15837   3.474   6.278   9.619 -0.1536  0.0668 -2.4524
  144SAPE   H7Y15838   3.640   6.235   9.603 -0.1350 -0.3836  0.4032
  144SAPE   C3815839   3.585   6.386   9.460 -0.4770 -0.8644 -0.4490
  144SAPE   H8X15840   3.690   6.416   9.440 -1.4587  1.3714 -2.7761
  144SAPE   H8Y15841   3.526   6.481   9.459 -0.8610 -1.0742  0.7054
  144SAPE   C3915842   3.544   6.303   9.337  0.6204  0.9855  0.1591
  144SAPE   H9X15843   3.448   6.247   9.351  1.4637 -0.6016 -0.1300
  144SAPE   H9Y15844   3.621   6.223   9.329 -1.6184 -1.4653  1.4057
  144SAPE  C31015845   3.533   6.395   9.210 -0.5693  0.3179 -0.4499
  144SAPE  H10X15846   3.634   6.437   9.195 -1.1160  1.7946 -0.1239
  144SAPE  H10Y15847   3.476   6.481   9.252 -1.0350 -0.6450  0.9671
  144SAPE  C31115848   3.476   6.338   9.088 -0.7044  0.3800 -0.2092
  144SAPE  H11X15849   3.373   6.311   9.119 -1.2797  0.9870 -1.5145
  144SAPE  H11Y15850   3.527   6.244   9.057 -1.7958 -0.6557  1.0170
  144SAPE  C31215851   3.471   6.432   8.964 -0.3700 -0.3667 -0.0382
  144SAPE  H12X15852   3.569   6.443   8.913 -0.0176  1.2637  0.9316
  144SAPE  H12Y15853   3.442   6.529   9.009 -0.7659 -1.5700  2.4954
  144SAPE  C31315854   3.367   6.381   8.871  0.3371  0.1885  0.3531
  144SAPE  H13X15855   3.264   6.379   8.913  1.1979  0.1534  2.6033
  144SAPE  H13Y15856   3.394   6.281   8.831  1.1772  0.5787 -0.0806
  144SAPE  C31415857   3.363   6.473   8.749  0.1260 -0.5967  0.6804
  144SAPE  H14X15858   3.460   6.462   8.696 -1.8636 -1.1733 -3.2724
  144SAPE  H14Y15859   3.365   6.579   8.782  0.7673 -0.0619 -0.9561
  144SAPE  C31515860   3.239   6.462   8.657 -0.1199  0.8764  0.1382
  144SAPE  H15X15861   3.150   6.491   8.717  0.6320 -1.8994  2.8471
  144SAPE  H15Y15862   3.229   6.353   8.635  1.8377  0.5169  0.8291
  144SAPE  C31615863   3.228   6.536   8.519 -0.6062 -0.5201  0.5927
  144SAPE  H16X15864   3.309   6.500   8.451  0.8636  2.8360  0.3326
  144SAPE  H16Y15865   3.239   6.647   8.525  0.8691 -0.7173  3.1200
  144SAPE  C31715866   3.101   6.502   8.436 -0.7025  0.0688  0.1623
  144SAPE  H17X15867   3.112   6.403   8.386  0.8566  0.7659 -0.9864
  144SAPE  H17Y15868   3.108   6.571   8.350  1.4173  1.5674  1.4522
  144SAPE  C31815869   2.963   6.509   8.502 -0.3376  0.6628  0.3997
  144SAPE  H18X15870   2.953   6.418   8.566  0.4798 -1.6292 -2.5109
  144SAPE  H18Y15871   2.885   6.514   8.423 -0.0726  0.7983  0.1447
  144SAPE  H18Z15872   2.951   6.601   8.563  1.4592  0.4023  1.2151
  145SAPE     N15873   4.975   1.518  11.122 -0.1308  0.0310 -0.0716
  145SAPE   HN115874   5.016   1.518  11.218  1.7928 -2.3352 -0.7863
  145SAPE   HN215875   4.986   1.615  11.086  1.6008  0.0675  0.4514
  145SAPE   HN315876   4.875   1.491  11.117 -0.1534 -0.1563  1.1422
  145SAPE   C1215877   5.070   1.427  11.043 -0.7463  0.3749 -0.3595
  145SAPE  H12A15878   5.019   1.413  10.945  0.5822  0.2881 -1.0701
  145SAPE  H12B15879   5.074   1.328  11.094 -2.8603  0.6213  0.3945
  145SAPE   C1115880   5.212   1.489  11.016 -0.8961  0.2917 -0.5575
  145SAPE  H11A15881   5.208   1.573  10.943  1.1369  1.1499  0.2415
  145SAPE  H11B15882   5.270   1.415  10.957  2.2798  2.3583 -0.2920
  145SAPE     P15883   5.365   1.445  11.232 -0.0333  0.2097  0.3274
  145SAPE   O1315884   5.421   1.535  11.336  0.4356  1.0355  0.3986
  145SAPE   O1415885   5.287   1.328  11.278 -0.0567  0.3003  0.0262
  145SAPE   O1215886   5.286   1.526  11.136 -0.5578 -0.2077  0.2790
  145SAPE   O1115887   5.484   1.402  11.129 -0.4530 -0.1326 -0.0252
  145SAPE    C115888   5.573   1.498  11.082 -0.0830  0.3185 -0.8598
  145SAPE    HA15889   5.560   1.595  11.134 -1.1949 -0.3586  0.1879
  145SAPE    HB15890   5.677   1.463  11.101 -0.3814 -0.0079  0.2573
  145SAPE    C215891   5.563   1.524  10.933 -0.2488 -0.7995  0.4574
  145SAPE    HS15892   5.483   1.598  10.911  0.5484 -0.0936 -0.1268
  145SAPE   O2115893   5.558   1.402  10.861  0.6642 -0.1207 -0.3072
  145SAPE   C2115894   5.477   1.388  10.760  0.0045 -0.3472 -0.2807
  145SAPE   O2215895   5.410   1.479  10.705  0.1007  0.5594 -0.0516
  145SAPE   C2215896   5.467   1.239  10.726 -1.1212 -0.2062  0.2091
  145SAPE   H2R15897   5.560   1.191  10.762 -1.1587 -0.9918 -0.6808
  145SAPE   H2S15898   5.385   1.191  10.784 -0.5478 -2.5819 -0.8198
  145SAPE    C315899   5.697   1.591  10.881  0.1364 -0.0605 -0.7206
  145SAPE    HX15900   5.770   1.513  10.851  0.0776 -0.8344  1.0253
  145SAPE    HY15901   5.750   1.650  10.958 -1.5649 -0.5390  0.8993
  145SAPE   O3115902   5.653   1.685  10.780 -0.0286 -0.5059  0.4184
  145SAPE   C3115903   5.743   1.775  10.747  0.0597  0.1459  0.7183
  145SAPE   O3215904   5.855   1.783  10.792  0.3602  0.1868 -0.2773
  145SAPE   C3215905   5.679   1.853  10.633  0.1063 -0.9886  0.1174
  145SAPE   H2X15906   5.627   1.936  10.685  0.8767  0.0105 -0.6659
  145SAPE   H2Y15907   5.603   1.794  10.579 -0.6478 -0.3576  0.4661
  145SAPE   C2315908   5.435   1.214  10.580 -0.4552  0.2909 -0.7553
  145SAPE   H3R15909   5.361   1.290  10.547  0.3830  0.0713 -3.3290
  145SAPE   H3S15910   5.407   1.107  10.571  1.5969 -0.3628  0.1095
  145SAPE   C2415911   5.560   1.238  10.493  0.8361 -0.2888  0.4174
  145SAPE   H4R15912   5.602   1.337  10.520 -1.7642  1.2646 -0.8381
  145SAPE   H4S15913   5.524   1.260  10.391  1.8745  0.6409  0.2402
  145SAPE   C2515914   5.652   1.123  10.496 -0.2256  0.5578  0.0179
  145SAPE   H5R15915   5.737   1.119  10.565  1.8392 -1.5627 -2.4592
  145SAPE   C2615916   5.642   1.019  10.413  0.2579 -0.3874  0.4651
  145SAPE   H6R15917   5.708   0.933  10.427  0.3403 -1.0431 -3.0845
  145SAPE   C2715918   5.533   1.011  10.303  0.2085 -0.4496 -0.4208
  145SAPE   H7R15919   5.553   1.087  10.225  3.3421 -0.3988  0.2846
  145SAPE   H7S15920   5.435   1.031  10.352 -0.4303 -2.2662 -0.8636
  145SAPE   C2815921   5.520   0.878  10.243  0.0249  0.5546  0.0700
  145SAPE   H8R15922   5.535   0.792  10.310  2.7547  0.7926 -0.1143
  145SAPE   C2915923   5.509   0.851  10.114 -0.1589  0.3468  0.2555
  145SAPE   H9R15924   5.504   0.745  10.089  2.5524  0.0866  0.4913
  145SAPE  C21015925   5.488   0.948  10.002  0.4825 -0.0780 -0.6070
  145SAPE  H10R15926   5.567   0.936   9.924 -0.0662  1.3450 -1.4235
  145SAPE  H10S15927   5.489   1.054  10.036  2.1070 -0.6801  1.4307
  145SAPE  C21115928   5.360   0.920   9.934  0.4222 -0.4934 -0.1971
  145SAPE  H11R15929   5.272   0.952   9.992  0.8063  0.5690 -0.1714
  145SAPE  C21215930   5.333   0.849   9.822  0.2247  0.0610 -0.5381
  145SAPE  H12R15931   5.226   0.838   9.799  0.1827  0.5127 -0.5656
  145SAPE  C21315932   5.441   0.776   9.746 -0.4438 -0.0049 -0.1655
  145SAPE  H13R15933   5.488   0.703   9.815 -1.1404  1.0812  1.5363
  145SAPE  H13S15934   5.528   0.839   9.716 -0.1290 -0.5430 -0.3817
  145SAPE  C21415935   5.398   0.700   9.626  0.2540 -0.1405  0.0583
  145SAPE  H14R15936   5.414   0.591   9.634 -0.0859 -0.2307 -0.4499
  145SAPE  C21515937   5.339   0.745   9.506  0.2584 -0.9959  0.2099
  145SAPE  H15R15938   5.311   0.674   9.426  0.1748  0.4639 -1.1019
  145SAPE  C21615939   5.308   0.891   9.471 -0.8779  0.0564  0.3936
  145SAPE  H16R15940   5.335   0.949   9.562  0.0655 -1.2655  0.9867
  145SAPE  H16S15941   5.200   0.908   9.452 -1.4135 -3.3836 -0.3787
  145SAPE  C21715942   5.382   0.955   9.350  0.2815 -0.6103  0.1507
  145SAPE  H17R15943   5.373   1.064   9.372  1.6030 -0.3902 -0.2839
  145SAPE  H17S15944   5.325   0.935   9.257  0.7681  1.4703 -0.6734
  145SAPE  C21815945   5.534   0.938   9.340 -0.1406 -0.0320 -0.5504
  145SAPE  H18R15946   5.573   0.837   9.314 -0.2993 -0.5280  1.0248
  145SAPE  H18S15947   5.595   0.972   9.426 -1.6912  0.2437  0.4729
  145SAPE  C21915948   5.595   1.026   9.228 -0.1396  0.6282  0.3015
  145SAPE  H19R15949   5.704   1.013   9.247 -0.4969 -0.4884  1.7900
  145SAPE  H19S15950   5.582   1.134   9.248 -2.5235  0.2021  1.4261
  145SAPE  C22015951   5.562   0.980   9.087  0.7946  0.0797  0.2320
  145SAPE  H20R15952   5.614   0.886   9.058  0.6468  0.3878 -1.1194
  145SAPE  H20S15953   5.589   1.055   9.010  0.6963 -0.3392 -0.2109
  145SAPE  H20T15954   5.455   0.953   9.071  0.3338  2.3993 -1.0926
  145SAPE   C3315955   5.776   1.912  10.527 -0.9584  0.4278  0.4825
  145SAPE   H3X15956   5.788   1.838  10.445  1.6300 -0.7291  1.8115
  145SAPE   H3Y15957   5.879   1.934  10.561 -0.0791 -1.1771 -0.9925
  145SAPE   C3415958   5.744   2.043  10.458  0.2487 -0.3496 -0.7691
  145SAPE   H4X15959   5.745   2.127  10.530  0.4089 -1.6188  0.7795
  145SAPE   H4Y15960   5.645   2.034  10.409  0.7439 -0.9421 -1.7056
  145SAPE   C3515961   5.840   2.067  10.338 -0.1965 -0.6725  0.3884
  145SAPE   H5X15962   5.846   1.975  10.276 -2.0274 -0.3955 -0.2594
  145SAPE   H5Y15963   5.940   2.092  10.379 -0.2967  1.2839 -0.4441
  145SAPE   C3615964   5.797   2.190  10.251  0.3022  0.0182  0.5379
  145SAPE   H6X15965   5.809   2.280  10.314  1.7207  0.8885 -0.9068
  145SAPE   H6Y15966   5.697   2.175  10.204  0.7652 -3.0779  0.2807
  145SAPE   C3715967   5.882   2.205  10.122  0.2896  0.4267  1.0787
  145SAPE   H7X15968   5.883   2.098  10.092 -1.8234  0.3234  1.2489
  145SAPE   H7Y15969   5.985   2.241  10.147  1.4883 -0.7898 -1.6208
  145SAPE   C3815970   5.836   2.295  10.005 -0.4848  0.4500  0.1942
  145SAPE   H8X15971   5.830   2.399  10.043 -0.0298  0.8077 -0.7077
  145SAPE   H8Y15972   5.735   2.267   9.967  0.5236 -3.0852 -0.2479
  145SAPE   C3915973   5.940   2.289   9.883  0.2835 -0.3967  0.5523
  145SAPE   H9X15974   5.957   2.181   9.861 -0.0478 -0.5781  1.1489
  145SAPE   H9Y15975   6.030   2.340   9.922 -0.3307  1.0183  0.1626
  145SAPE  C31015976   5.891   2.373   9.759  0.1571  0.3229  0.3815
  145SAPE  H10X15977   5.894   2.484   9.773  2.0968  0.3480 -0.0103
  145SAPE  H10Y15978   5.787   2.338   9.739  0.5641 -1.5099  1.2542
  145SAPE  C31115979   5.961   2.335   9.626 -0.4589 -0.1606 -0.3257
  145SAPE  H11X15980   5.989   2.228   9.623  0.9147  0.1498  0.4569
  145SAPE  H11Y15981   6.054   2.396   9.636 -0.7065 -0.1125  2.6951
  145SAPE  C31215982   5.883   2.347   9.492  0.3537 -0.3166 -0.6313
  145SAPE  H12X15983   5.851   2.449   9.460 -0.3119 -0.6882 -1.1706
  145SAPE  H12Y15984   5.793   2.282   9.494  0.1850 -0.1829  3.1874
  145SAPE  C31315985   5.988   2.314   9.387  0.0624  0.4960  0.8382
  145SAPE  H13X15986   6.000   2.208   9.418 -4.1789 -1.4882 -3.0134
  145SAPE  H13Y15987   6.077   2.378   9.401  0.7973 -0.4079  0.3992
  145SAPE  C31415988   5.929   2.329   9.252 -0.8975 -0.0370  0.0393
  145SAPE  H14X15989   5.890   2.432   9.236 -0.8658 -0.0510 -0.1342
  145SAPE  H14Y15990   5.835   2.269   9.246 -0.9522 -0.0543  0.9518
  145SAPE  C31515991   6.032   2.285   9.143  0.4371 -0.0719  0.2971
  145SAPE  H15X15992   6.048   2.175   9.146 -0.9473 -0.4114 -2.0816
  145SAPE  H15Y15993   6.130   2.335   9.161  0.0565  1.2206 -1.0523
  145SAPE  C31615994   6.009   2.331   8.998  0.2825 -0.2458  0.1865
  145SAPE  H16X15995   6.101   2.319   8.938  0.6886 -1.6284  1.0311
  145SAPE  H16Y15996   5.980   2.438   9.002 -0.3367 -0.4188  0.4410
  145SAPE  C31715997   5.895   2.254   8.932 -0.2771  0.6225 -0.6349
  145SAPE  H17X15998   5.868   2.285   8.829 -2.0866 -1.3371 -0.8064
  145SAPE  H17Y15999   5.809   2.287   8.994 -1.8856  0.3645 -2.6366
  145SAPE  C31816000   5.915   2.103   8.931  0.4933 -0.3720 -0.4044
  145SAPE  H18X16001   6.012   2.072   8.887  1.5471  0.8720  0.9254
  145SAPE  H18Y16002   5.834   2.051   8.876  0.2980  0.6943 -1.1439
  145SAPE  H18Z16003   5.904   2.067   9.036  1.6427  0.5012  0.0371
  146SAPE     N16004   4.589   1.648  11.110 -0.3534  0.3073 -0.3076
  146SAPE   HN116005   4.488   1.648  11.136  0.0518  0.6353  1.4170
  146SAPE   HN216006   4.621   1.551  11.095  0.2215  0.3878  0.3543
  146SAPE   HN316007   4.637   1.680  11.197  0.3900 -1.5109 -0.0161
  146SAPE   C1216008   4.617   1.731  10.991 -0.6986  0.6716  0.0714
  146SAPE  H12A16009   4.661   1.672  10.908 -0.7591 -0.6389  0.9444
  146SAPE  H12B16010   4.704   1.796  11.014  1.9066 -2.1213 -1.2882
  146SAPE   C1116011   4.501   1.816  10.950 -0.3750 -0.0452  0.1235
  146SAPE  H11A16012   4.407   1.758  10.965  1.6666 -2.8427  3.4210
  146SAPE  H11B16013   4.504   1.836  10.841  2.1766  0.5556  0.2562
  146SAPE     P16014   4.572   2.072  10.993  0.2283  0.1873  0.1774
  146SAPE   O1316015   4.489   2.181  11.040 -0.1100  0.9638 -0.1189
  146SAPE   O1416016   4.706   2.068  11.051 -0.0450  0.0381  0.3627
  146SAPE   O1216017   4.506   1.934  11.031  0.0802  0.3183 -0.1623
  146SAPE   O1116018   4.586   2.077  10.839 -0.0637 -0.7955 -0.1663
  146SAPE    C116019   4.466   2.093  10.767 -0.5268  0.1525  0.3921
  146SAPE    HA16020   4.384   2.022  10.790 -0.5805 -0.1850 -0.7385
  146SAPE    HB16021   4.423   2.193  10.788  2.0817  1.3061  0.5780
  146SAPE    C216022   4.491   2.071  10.615 -0.5344 -0.4785  0.2439
  146SAPE    HS16023   4.390   2.066  10.571  0.0644 -1.4485 -1.0899
  146SAPE   O2116024   4.558   1.945  10.583 -0.1374 -0.6177 -0.0585
  146SAPE   C2116025   4.524   1.879  10.466 -0.1467  1.1025 -0.0269
  146SAPE   O2216026   4.436   1.916  10.394  0.4539  0.2492  0.2084
  146SAPE   C2216027   4.615   1.759  10.430  0.0358 -0.6420 -0.2824
  146SAPE   H2R16028   4.706   1.767  10.492 -0.5542  0.7840  0.4696
  146SAPE   H2S16029   4.570   1.664  10.466  0.9187 -0.1266  2.4000
  146SAPE    C316030   4.583   2.184  10.557  0.4687  0.2735 -0.3519
  146SAPE    HX16031   4.687   2.164  10.589  1.2613  1.7777 -1.8072
  146SAPE    HY16032   4.547   2.278  10.604 -1.4407  0.3867 -1.8885
  146SAPE   O3116033   4.587   2.186  10.421 -0.5583 -0.2725  0.6702
  146SAPE   C3116034   4.481   2.245  10.363  0.2649 -0.1698 -0.8323
  146SAPE   O3216035   4.376   2.283  10.417 -0.0687  0.2767  0.2985
  146SAPE   C3216036   4.501   2.260  10.214  0.1752 -0.2230  0.3029
  146SAPE   H2X16037   4.577   2.184  10.184  0.2755 -0.3122  0.7641
  146SAPE   H2Y16038   4.532   2.363  10.187 -3.2155  0.4196 -1.6166
  146SAPE   C2316039   4.659   1.775  10.280 -0.2757  0.3968 -0.1379
  146SAPE   H3R16040   4.662   1.879  10.242 -3.1997  0.3016 -0.8862
  146SAPE   H3S16041   4.567   1.739  10.230  0.1774 -3.5024  1.4435
  146SAPE   C2416042   4.786   1.695  10.238 -0.1482  0.4579 -0.0753
  146SAPE   H4R16043   4.866   1.729  10.308  0.0057 -0.7223  0.3340
  146SAPE   H4S16044   4.824   1.717  10.136  1.5349 -2.3219 -0.1383
  146SAPE   C2516045   4.767   1.551  10.238  0.5324  0.0713 -0.8188
  146SAPE   H5R16046   4.751   1.504  10.337 -3.3360  1.3082 -0.7155
  146SAPE   C2616047   4.743   1.470  10.133  0.7378 -0.3478 -1.1271
  146SAPE   H6R16048   4.725   1.365  10.158  1.6438 -0.0975  0.7328
  146SAPE   C2716049   4.738   1.505   9.983  0.0942 -0.0762  0.7343
  146SAPE   H7R16050   4.661   1.581   9.959  0.4986  0.2152  0.3208
  146SAPE   H7S16051   4.701   1.414   9.930 -0.3455 -0.6910  2.0715
  146SAPE   C2816052   4.869   1.553   9.925 -1.0506  0.0949  0.0015
  146SAPE   H8R16053   4.905   1.655   9.947 -1.3955  0.0111  1.0169
  146SAPE   C2916054   4.937   1.485   9.827 -0.2301  0.4698 -0.2526
  146SAPE   H9R16055   5.034   1.521   9.789 -0.4941  1.1094 -0.3385
  146SAPE  C21016056   4.891   1.364   9.744  0.4056 -0.3692  0.0626
  146SAPE  H10R16057   4.860   1.400   9.643  2.3893  2.3097  0.2841
  146SAPE  H10S16058   4.802   1.311   9.782  0.2850 -1.1657 -1.2804
  146SAPE  C21116059   5.006   1.266   9.752  0.0515 -0.8723 -0.1500
  146SAPE  H11R16060   5.059   1.265   9.849 -0.0932  1.5571  0.0231
  146SAPE  C21216061   5.045   1.190   9.649  0.5868 -0.3162  0.3171
  146SAPE  H12R16062   5.118   1.109   9.666  1.6016  0.8475  1.8082
  146SAPE  C21316063   4.974   1.179   9.518 -0.2815 -0.3861 -0.0880
  146SAPE  H13R16064   4.875   1.228   9.513  0.1356  0.7795  1.9613
  146SAPE  H13S16065   4.954   1.069   9.511  1.2267 -0.6239 -1.0700
  146SAPE  C21416066   5.052   1.210   9.396  0.2746  0.0615  0.3034
  146SAPE  H14R16067   5.114   1.299   9.413 -0.2073  0.0769  2.1880
  146SAPE  C21516068   5.039   1.160   9.270 -0.3791 -0.1334  0.1616
  146SAPE  H15R16069   5.090   1.197   9.180  0.9229 -0.3343  0.7943
  146SAPE  C21616070   4.935   1.063   9.219  0.8956  0.1533 -0.2183
  146SAPE  H16R16071   4.858   1.053   9.298  0.9674  0.2569 -0.1346
  146SAPE  H16S16072   4.986   0.967   9.196  0.2779  0.1488 -1.6794
  146SAPE  C21716073   4.848   1.115   9.108 -0.4712 -0.6408 -0.1759
  146SAPE  H17R16074   4.915   1.168   9.037  1.4824 -0.6183  1.5760
  146SAPE  H17S16075   4.781   1.198   9.139  0.0737  0.0278 -0.7529
  146SAPE  C21816076   4.773   1.008   9.028 -0.3646  0.6639  0.2556
  146SAPE  H18R16077   4.733   1.054   8.935 -0.5113  1.7081  0.8147
  146SAPE  H18S16078   4.683   0.979   9.087  0.2856  2.5199  2.2677
  146SAPE  C21916079   4.850   0.891   8.984 -1.1733 -0.5625  0.5153
  146SAPE  H19R16080   4.879   0.837   9.077 -1.2625  0.0573  0.9141
  146SAPE  H19S16081   4.943   0.918   8.931 -1.1646 -1.2045  0.1909
  146SAPE  C22016082   4.780   0.785   8.897 -0.1143  0.3035  0.0301
  146SAPE  H20R16083   4.705   0.740   8.966 -1.3846 -0.1349 -1.5718
  146SAPE  H20S16084   4.854   0.707   8.869 -0.6213  0.3057 -1.4160
  146SAPE  H20T16085   4.734   0.828   8.805 -0.0159  0.0133 -0.1560
  146SAPE   C3316086   4.369   2.235  10.136  0.0864  0.5718 -0.2214
  146SAPE   H3X16087   4.366   2.286  10.038  2.6769  0.2123 -0.5560
  146SAPE   H3Y16088   4.278   2.254  10.198 -0.6235  1.1731 -1.4155
  146SAPE   C3416089   4.348   2.084  10.109 -0.3154  0.2560 -0.1418
  146SAPE   H4X16090   4.241   2.058  10.112 -0.5536  1.0767 -0.8808
  146SAPE   H4Y16091   4.393   2.011  10.179 -1.7423 -1.4972 -1.0057
  146SAPE   C3516092   4.406   2.035   9.973  0.5087  0.0140  0.5294
  146SAPE   H5X16093   4.518   2.033   9.975  0.5654 -3.1997  0.1932
  146SAPE   H5Y16094   4.365   2.108   9.901 -0.8908 -1.8917 -0.6992
  146SAPE   C3616095   4.366   1.901   9.920  0.1698  0.0292 -0.5304
  146SAPE   H6X16096   4.258   1.904   9.897  0.2035 -2.0213 -1.1884
  146SAPE   H6Y16097   4.393   1.830  10.002 -0.0993  0.1178 -0.3652
  146SAPE   C3716098   4.439   1.854   9.793 -0.0873  0.4250 -0.0965
  146SAPE   H7X16099   4.435   1.935   9.718 -0.5598  0.1429 -0.3792
  146SAPE   H7Y16100   4.389   1.761   9.757  2.6213 -1.6229  1.0600
  146SAPE   C3816101   4.587   1.822   9.820  0.5389 -0.2038 -0.3713
  146SAPE   H8X16102   4.595   1.758   9.911 -2.4516  0.9848  0.8256
  146SAPE   H8Y16103   4.644   1.911   9.853  0.6848 -0.3105 -0.3341
  146SAPE   C3916104   4.660   1.757   9.712 -0.7995 -0.1660 -0.9132
  146SAPE   H9X16105   4.627   1.651   9.700  3.9301 -1.6600 -2.8618
  146SAPE   H9Y16106   4.767   1.755   9.742 -1.2572 -0.4614  0.7880
  146SAPE  C31016107   4.647   1.824   9.577 -0.0529  0.3431 -0.2698
  146SAPE  H10X16108   4.682   1.930   9.585  2.4165 -0.3227 -1.3684
  146SAPE  H10Y16109   4.540   1.827   9.545 -0.7850 -0.2831  1.9016
  146SAPE  C31116110   4.739   1.751   9.479 -0.0728 -0.1093  0.2451
  146SAPE  H11X16111   4.705   1.645   9.478 -3.0435  0.7720 -0.4441
  146SAPE  H11Y16112   4.848   1.754   9.501 -0.1734 -0.2995  0.7898
  146SAPE  C31216113   4.712   1.791   9.329  0.0761 -0.1939 -0.0083
  146SAPE  H12X16114   4.718   1.902   9.330 -0.6995 -0.1440 -0.0643
  146SAPE  H12Y16115   4.606   1.766   9.305 -0.3041  1.1586  0.1763
  146SAPE  C31316116   4.810   1.720   9.232 -0.2079 -0.1189 -0.3302
  146SAPE  H13X16117   4.813   1.614   9.265 -0.9208  0.8379  3.3298
  146SAPE  H13Y16118   4.917   1.749   9.240 -0.7286  1.9762 -0.4979
  146SAPE  C31416119   4.756   1.714   9.086  0.6478 -0.5109  0.8349
  146SAPE  H14X16120   4.772   1.816   9.043  1.0983 -0.5343  0.9442
  146SAPE  H14Y16121   4.646   1.706   9.095  0.3884  0.4612 -0.9477
  146SAPE  C31516122   4.817   1.602   8.994 -0.2948 -0.4409 -0.5562
  146SAPE  H15X16123   4.828   1.511   9.056 -2.0738  0.4684  1.1931
  146SAPE  H15Y16124   4.915   1.637   8.955 -0.1356  2.0994  1.8258
  146SAPE  C31616125   4.713   1.570   8.877 -0.7465  0.0329  0.2695
  146SAPE  H16X16126   4.687   1.667   8.829 -0.0094 -0.2287 -0.6749
  146SAPE  H16Y16127   4.625   1.526   8.928 -0.5418 -1.1639 -0.3973
  146SAPE  C31716128   4.789   1.476   8.779 -0.3684  0.0789 -0.3991
  146SAPE  H17X16129   4.808   1.379   8.829 -1.0660 -0.6249 -1.4684
  146SAPE  H17Y16130   4.892   1.516   8.764  0.2362 -0.7956  1.1709
  146SAPE  C31816131   4.722   1.442   8.643 -0.3913 -0.4545 -0.1024
  146SAPE  H18X16132   4.625   1.387   8.645 -1.5689  1.4924 -0.5371
  146SAPE  H18Y16133   4.792   1.375   8.589  3.0400  2.7605  0.0040
  146SAPE  H18Z16134   4.701   1.532   8.581 -0.9798 -2.1240 -2.4833
  147SAPE     N16135   1.230   5.485   6.362 -0.0438  0.1814  0.0602
  147SAPE   HN116136   1.242   5.577   6.315 -1.5995  0.1946 -0.3915
  147SAPE   HN216137   1.220   5.414   6.286 -0.8884 -0.9276  1.1736
  147SAPE   HN316138   1.139   5.473   6.410  0.1580 -2.5192 -0.0759
  147SAPE   C1216139   1.352   5.455   6.455  0.3058  0.2625 -0.5618
  147SAPE  H12A16140   1.326   5.354   6.491  0.2550  0.0666 -1.1297
  147SAPE  H12B16141   1.360   5.526   6.540  2.6011  0.8563 -1.1928
  147SAPE   C1116142   1.478   5.453   6.377 -0.1758 -0.2811  0.6756
  147SAPE  H11A16143   1.560   5.420   6.443  1.2166  1.0167 -0.3496
  147SAPE  H11B16144   1.502   5.559   6.356 -0.9016 -0.2535 -0.0646
  147SAPE     P16145   1.607   5.382   6.173 -0.2617 -0.1258 -0.6405
  147SAPE   O1316146   1.642   5.236   6.163 -0.1533 -0.4050  0.6291
  147SAPE   O1416147   1.588   5.459   6.050  0.3836 -0.4907  0.0166
  147SAPE   O1216148   1.463   5.385   6.249  0.0354 -0.2809 -0.3036
  147SAPE   O1116149   1.708   5.464   6.254  0.1534  0.2609 -0.2181
  147SAPE    C116150   1.829   5.410   6.298 -0.1118  0.3115 -0.5089
  147SAPE    HA16151   1.835   5.301   6.318 -1.4049  0.1236 -1.1034
  147SAPE    HB16152   1.896   5.422   6.210 -0.2119 -1.8804 -0.9374
  147SAPE    C216153   1.890   5.469   6.430 -0.3145 -0.1321  0.6561
  147SAPE    HS16154   1.999   5.446   6.429 -0.4782 -1.0659  1.8530
  147SAPE   O2116155   1.829   5.407   6.540 -0.2586 -0.3162 -0.0946
  147SAPE   C2116156   1.887   5.299   6.586 -0.7037 -0.1742 -0.3712
  147SAPE   O2216157   1.984   5.244   6.537 -0.0961  0.5876 -0.1118
  147SAPE   C2216158   1.818   5.256   6.715 -0.5529  0.7512 -0.0399
  147SAPE   H2R16159   1.743   5.328   6.754 -0.0119  1.9373 -1.1145
  147SAPE   H2S16160   1.777   5.153   6.715  0.3406  0.3655  1.3467
  147SAPE    C316161   1.871   5.622   6.445  0.0607 -0.5694 -0.3170
  147SAPE    HX16162   1.771   5.659   6.415  1.0927  2.9248  0.1523
  147SAPE    HY16163   1.937   5.664   6.366  0.0627  0.6140  0.3054
  147SAPE   O3116164   1.902   5.679   6.578  0.3790  0.0642  0.1822
  147SAPE   C3116165   1.934   5.809   6.575  0.4197  0.6195  0.2036
  147SAPE   O3216166   1.937   5.869   6.468  0.0540 -0.4694 -0.3650
  147SAPE   C3216167   1.973   5.853   6.716 -0.1167  0.2574 -0.3204
  147SAPE   H2X16168   2.033   5.946   6.712 -1.2065  1.1983  2.4494
  147SAPE   H2Y16169   2.039   5.778   6.763  0.9142  1.0015 -0.5481
  147SAPE   C2316170   1.942   5.250   6.816  0.4232  0.0183  0.1946
  147SAPE   H3R16171   2.009   5.178   6.764 -1.4938  0.6711 -3.5879
  147SAPE   H3S16172   1.919   5.196   6.910 -3.7657  0.2942 -0.4855
  147SAPE   C2416173   2.012   5.381   6.831  0.2842 -0.4121  0.3773
  147SAPE   H4R16174   2.039   5.425   6.733  1.4659 -0.1307  0.8227
  147SAPE   H4S16175   2.103   5.356   6.890  0.8663 -3.1618 -1.5315
  147SAPE   C2516176   1.921   5.476   6.918 -0.1405  0.4893 -0.6704
  147SAPE   H5R16177   1.850   5.526   6.851  0.6604 -0.8478 -2.6170
  147SAPE   C2616178   1.933   5.505   7.050 -0.1136  0.1548  0.0349
  147SAPE   H6R16179   1.873   5.582   7.101 -0.9010 -0.9711  0.8718
  147SAPE   C2716180   2.033   5.439   7.138  0.6787  0.8944 -0.1614
  147SAPE   H7R16181   2.104   5.520   7.166  0.8950  0.7374 -0.2443
  147SAPE   H7S16182   2.095   5.353   7.102  0.4213  1.0779 -1.0761
  147SAPE   C2816183   1.957   5.375   7.255  0.0897  0.2734 -1.1475
  147SAPE   H8R16184   1.875   5.307   7.228 -0.0174  1.5222 -4.4572
  147SAPE   C2916185   1.987   5.395   7.388 -0.0571 -0.2718 -0.2413
  147SAPE   H9R16186   1.931   5.335   7.462 -2.0523  0.3804 -1.1623
  147SAPE  C21016187   2.094   5.474   7.446 -0.5787  0.3262 -0.1610
  147SAPE  H10R16188   2.181   5.496   7.380 -2.0036  1.6667 -1.6447
  147SAPE  H10S16189   2.140   5.421   7.533 -3.1112 -0.0141  1.0533
  147SAPE  C21116190   2.048   5.611   7.491  0.8815  0.1467  0.4688
  147SAPE  H11R16191   1.998   5.678   7.419 -0.5224 -1.6205 -0.2593
  147SAPE  C21216192   2.046   5.666   7.611  0.3110 -0.3502 -0.3892
  147SAPE  H12R16193   1.994   5.762   7.627  1.2286 -0.0344  0.8565
  147SAPE  C21316194   2.101   5.610   7.734 -0.9976  0.0459  0.0602
  147SAPE  H13R16195   2.151   5.513   7.716  1.3276  1.0069  0.9633
  147SAPE  H13S16196   2.022   5.588   7.809 -2.6573  0.0180 -1.6241
  147SAPE  C21416197   2.194   5.699   7.806  0.1295 -1.3094 -0.0322
  147SAPE  H14R16198   2.247   5.769   7.740 -1.9786  1.6737  1.1956
  147SAPE  C21516199   2.214   5.709   7.935  0.3737 -0.2289 -0.4386
  147SAPE  H15R16200   2.291   5.779   7.970  0.6575 -0.9958  0.5317
  147SAPE  C21616201   2.153   5.636   8.048 -0.6198  0.0258  0.2265
  147SAPE  H16R16202   2.045   5.660   8.050 -0.2083  1.9697  2.5257
  147SAPE  H16S16203   2.192   5.693   8.135  1.4251 -2.3397  0.9774
  147SAPE  C21716204   2.179   5.489   8.054 -0.8069  0.3930  0.2443
  147SAPE  H17R16205   2.286   5.467   8.077 -1.3610 -3.5293 -0.2547
  147SAPE  H17S16206   2.160   5.441   7.955 -2.6166 -1.4267  1.4082
  147SAPE  C21816207   2.094   5.410   8.153  0.5805  0.3563  0.4092
  147SAPE  H18R16208   2.117   5.301   8.151 -1.5667 -0.1501 -1.4967
  147SAPE  H18S16209   1.990   5.416   8.113  1.2481 -1.7913 -1.9142
  147SAPE  C21916210   2.094   5.468   8.296 -0.0592  0.0687 -0.3099
  147SAPE  H19R16211   2.122   5.574   8.283 -0.0926 -0.1369 -2.5722
  147SAPE  H19S16212   2.172   5.414   8.354  1.5873  2.7906  0.1607
  147SAPE  C22016213   1.959   5.454   8.362 -0.4132 -0.1187  0.3198
  147SAPE  H20R16214   1.927   5.348   8.357  1.1785 -0.6718  1.1395
  147SAPE  H20S16215   1.880   5.507   8.305  0.3059 -1.0768 -1.6783
  147SAPE  H20T16216   1.957   5.496   8.464 -2.5602 -0.7857  0.5993
  147SAPE   C3316217   1.850   5.868   6.813  0.2679  0.3826  0.1365
  147SAPE   H3X16218   1.813   5.765   6.834  1.3733  0.0319  0.4641
  147SAPE   H3Y16219   1.761   5.907   6.760  0.7890  0.6342 -0.5784
  147SAPE   C3416220   1.883   5.948   6.936  0.2106  0.1498 -0.6115
  147SAPE   H4X16221   1.798   5.927   7.005  0.3183 -1.0282 -0.8166
  147SAPE   H4Y16222   1.884   6.056   6.911 -0.2481  0.3365  0.1420
  147SAPE   C3516223   2.001   5.898   7.019 -0.1337 -0.5456 -0.1785
  147SAPE   H5X16224   2.096   5.904   6.962  0.4590  1.5002  0.9429
  147SAPE   H5Y16225   1.998   5.795   7.063 -0.2202 -0.5538 -0.2063
  147SAPE   C3616226   2.026   5.982   7.148 -0.1861 -0.5813  0.0358
  147SAPE   H6X16227   1.938   5.993   7.215  0.8960  2.8899  1.0910
  147SAPE   H6Y16228   2.048   6.089   7.128 -0.5164 -0.3229  0.9700
  147SAPE   C3716229   2.139   5.918   7.234  0.3409  0.7756  0.7797
  147SAPE   H7X16230   2.218   5.885   7.163 -1.0593  0.5729 -0.7697
  147SAPE   H7Y16231   2.088   5.835   7.288  0.5910  0.0343 -0.0805
  147SAPE   C3816232   2.205   6.020   7.335  0.3378  0.0994  0.5263
  147SAPE   H8X16233   2.128   6.098   7.353 -0.5046 -0.7850  0.8940
  147SAPE   H8Y16234   2.282   6.068   7.271 -1.2614  2.3986  0.2000
  147SAPE   C3916235   2.258   5.944   7.458  0.5923 -0.4560  0.3524
  147SAPE   H9X16236   2.344   5.878   7.432  1.2977  0.2049  0.9415
  147SAPE   H9Y16237   2.192   5.876   7.515  1.2395 -1.4750 -0.0759
  147SAPE  C31016238   2.308   6.056   7.552  0.2135 -0.4272  0.6563
  147SAPE  H10X16239   2.230   6.134   7.559 -1.0786 -1.5462 -0.5517
  147SAPE  H10Y16240   2.403   6.094   7.509  0.3297 -2.5781 -1.2242
  147SAPE  C31116241   2.334   6.015   7.694 -0.0632  0.1145 -0.6002
  147SAPE  H11X16242   2.396   5.923   7.701  0.3843  0.4956  0.6046
  147SAPE  H11Y16243   2.233   5.987   7.732  0.0975 -0.4269 -0.5587
  147SAPE  C31216244   2.399   6.129   7.778  0.7420  0.2903 -0.7842
  147SAPE  H12X16245   2.337   6.218   7.757  3.2453  2.1749 -0.6831
  147SAPE  H12Y16246   2.495   6.166   7.737 -0.1924  2.1254 -1.4206
  147SAPE  C31316247   2.391   6.105   7.933  0.2192  0.9355  0.7103
  147SAPE  H13X16248   2.405   5.997   7.953  0.5998  1.3006  2.6278
  147SAPE  H13Y16249   2.287   6.116   7.971 -1.0938 -0.6494 -2.0782
  147SAPE  C31416250   2.481   6.192   8.011  0.5166 -0.8203 -0.0950
  147SAPE  H14X16251   2.577   6.204   7.957 -0.3124  1.9394 -1.0968
  147SAPE  H14Y16252   2.501   6.133   8.104  0.7919 -0.9256 -0.2200
  147SAPE  C31516253   2.412   6.327   8.039 -0.9739 -0.5140 -0.3775
  147SAPE  H15X16254   2.322   6.305   8.101 -0.7828 -2.3283 -0.7061
  147SAPE  H15Y16255   2.372   6.383   7.952  1.9386  1.5562 -0.5263
  147SAPE  C31616256   2.497   6.431   8.117  0.1946  0.0341  0.2446
  147SAPE  H16X16257   2.430   6.518   8.135 -1.7968 -1.9194  2.9469
  147SAPE  H16Y16258   2.585   6.461   8.057 -0.8449  1.8644 -0.4862
  147SAPE  C31716259   2.535   6.386   8.257 -0.3439 -0.8237  0.5134
  147SAPE  H17X16260   2.608   6.303   8.251 -0.0721 -0.6211  0.9589
  147SAPE  H17Y16261   2.450   6.339   8.311 -0.8674  1.6276  1.9672
  147SAPE  C31816262   2.594   6.493   8.340  0.0732 -0.2737  0.1386
  147SAPE  H18X16263   2.531   6.583   8.361 -0.1934 -0.7583  1.5288
  147SAPE  H18Y16264   2.682   6.538   8.289 -0.4027 -0.2598 -0.6826
  147SAPE  H18Z16265   2.641   6.449   8.431 -0.2495 -0.7612  0.0719
  148SAPE     N16266   0.186   3.757   6.701  0.3754 -0.0165 -0.1234
  148SAPE   HN116267   0.194   3.702   6.613 -1.0133  2.0379 -1.6420
  148SAPE   HN216268   0.106   3.823   6.704  0.7655  0.4355  0.7777
  148SAPE   HN316269   0.271   3.817   6.699 -0.2891  0.9496 -0.2793
  148SAPE   C1216270   0.184   3.660   6.811  0.0195  0.1972  0.1590
  148SAPE  H12A16271   0.082   3.616   6.816  0.5797 -1.3693 -1.1984
  148SAPE  H12B16272   0.203   3.715   6.906 -1.6934 -0.9082  1.1984
  148SAPE   C1116273   0.291   3.551   6.797 -0.3852  0.0709 -0.6389
  148SAPE  H11A16274   0.298   3.492   6.891 -1.5180 -0.4118 -0.8406
  148SAPE  H11B16275   0.382   3.614   6.786 -1.9548  2.5370 -0.0597
  148SAPE     P16276   0.328   3.331   6.663  0.3150 -0.0058  0.1573
  148SAPE   O1316277   0.255   3.271   6.546  0.3345 -0.3829 -0.4242
  148SAPE   O1416278   0.471   3.349   6.647 -0.6918 -0.0992  0.3426
  148SAPE   O1216279   0.265   3.478   6.679  0.1924  0.3842  0.2642
  148SAPE   O1116280   0.294   3.245   6.793  0.0051  0.2360 -0.5765
  148SAPE    C116281   0.159   3.181   6.807 -0.3455 -0.0018  0.4225
  148SAPE    HA16282   0.077   3.252   6.785  1.4014  1.7087 -0.9705
  148SAPE    HB16283   0.162   3.099   6.732  3.0951  0.5231 -0.1852
  148SAPE    C216284   0.138   3.125   6.949 -0.3578  0.6498 -0.2240
  148SAPE    HS16285   0.035   3.084   6.960  0.3451 -0.6832  2.0521
  148SAPE   O2116286   0.163   3.216   7.057 -0.4703 -0.0051  0.3390
  148SAPE   C2116287   0.102   3.336   7.064 -0.0895  0.8413 -0.1695
  148SAPE   O2216288   0.025   3.375   6.980 -0.0406 -0.4543  0.5104
  148SAPE   C2216289   0.116   3.409   7.186 -0.4648 -0.2571 -0.6511
  148SAPE   H2R16290   0.011   3.420   7.220 -0.3951  1.1907 -0.8437
  148SAPE   H2S16291   0.183   3.342   7.245 -0.2396 -1.8172 -2.5544
  148SAPE    C316292   0.231   3.006   6.975  0.5085 -0.0499 -0.4350
  148SAPE    HX16293   0.340   3.026   6.968  1.3145 -3.6014  0.2634
  148SAPE    HY16294   0.223   2.935   6.890 -1.9499  0.7064 -0.9164
  148SAPE   O3116295   0.205   2.944   7.101  0.2550  0.6171 -0.3065
  148SAPE   C3116296   0.279   2.978   7.205 -0.2536 -0.1373 -0.2041
  148SAPE   O3216297   0.363   3.067   7.208 -0.1184 -0.1194  0.1582
  148SAPE   C3216298   0.222   2.905   7.328  0.0923  0.1140 -0.8502
  148SAPE   H2X16299   0.302   2.833   7.356 -0.4514 -0.1298  0.1336
  148SAPE   H2Y16300   0.123   2.861   7.305 -0.5732  0.4167  1.2305
  148SAPE   C2316301   0.172   3.551   7.172 -0.2724  0.2801 -0.3698
  148SAPE   H3R16302   0.109   3.599   7.094 -2.1336 -0.2832  0.7067
  148SAPE   H3S16303   0.278   3.539   7.141  0.1939  0.5651  1.0310
  148SAPE   C2416304   0.172   3.634   7.304  0.4874 -0.0054 -0.4312
  148SAPE   H4R16305   0.074   3.655   7.352  0.3122 -0.9276 -0.3519
  148SAPE   H4S16306   0.206   3.736   7.279  0.2634  0.1249 -0.2139
  148SAPE   C2516307   0.263   3.569   7.405  0.1476  0.3863  0.0268
  148SAPE   H5R16308   0.319   3.485   7.361  0.1195  0.7720 -0.7649
  148SAPE   C2616309   0.283   3.603   7.536  0.3868 -0.2609 -0.2332
  148SAPE   H6R16310   0.351   3.553   7.605  0.1756  0.1212  0.2565
  148SAPE   C2716311   0.206   3.711   7.605  0.0978  0.3473 -0.0830
  148SAPE   H7R16312   0.096   3.700   7.593  0.1795  0.4719 -0.9986
  148SAPE   H7S16313   0.225   3.813   7.565  0.2589 -0.3518 -1.8729
  148SAPE   C2816314   0.226   3.730   7.751  0.2560 -0.1303 -0.5655
  148SAPE   H8R16315   0.204   3.837   7.767  0.5358  0.0331 -1.2301
  148SAPE   C2916316   0.254   3.653   7.859  0.7056  0.1795  0.3911
  148SAPE   H9R16317   0.284   3.707   7.950  0.4172 -0.9093  1.1589
  148SAPE  C21016318   0.265   3.497   7.864 -0.1637  0.2129 -0.1929
  148SAPE  H10R16319   0.310   3.455   7.771  1.0546  0.8209  0.1040
  148SAPE  H10S16320   0.167   3.445   7.873  0.6036 -0.9661  1.9963
  148SAPE  C21116321   0.354   3.466   7.979 -0.3498 -0.2406  0.2296
  148SAPE  H11R16322   0.460   3.461   7.949 -0.2787  0.4099  0.3691
  148SAPE  C21216323   0.319   3.477   8.111 -0.3502 -0.2601 -0.6073
  148SAPE  H12R16324   0.398   3.443   8.180  0.8187 -0.9641 -2.2102
  148SAPE  C21316325   0.188   3.512   8.175  0.2372 -0.7190  0.0719
  148SAPE  H13R16326   0.128   3.419   8.179  1.5387 -1.6206 -0.7104
  148SAPE  H13S16327   0.134   3.587   8.114  0.2235 -0.4884  0.3619
  148SAPE  C21416328   0.193   3.592   8.299 -0.6742  0.3380 -1.2329
  148SAPE  H14R16329   0.271   3.670   8.298  0.8753 -1.0973  0.6946
  148SAPE  C21516330   0.129   3.577   8.416  0.0574 -0.2216  0.0231
  148SAPE  H15R16331   0.159   3.647   8.496  1.4183  1.2838 -1.7255
  148SAPE  C21616332   0.029   3.469   8.448  0.4855  0.2701 -0.6980
  148SAPE  H16R16333  -0.040   3.456   8.362  0.3376  0.8473 -0.6719
  148SAPE  H16S16334  -0.035   3.492   8.535  0.2834  0.3761 -0.8739
  148SAPE  C21716335   0.098   3.332   8.482  0.5109  0.0996 -0.3242
  148SAPE  H17R16336   0.172   3.344   8.564 -1.4287  0.4964  1.4578
  148SAPE  H17S16337   0.145   3.295   8.388 -3.1372 -1.7303 -1.6506
  148SAPE  C21816338  -0.002   3.215   8.535 -0.3414 -0.8974  0.1306
  148SAPE  H18R16339  -0.085   3.197   8.464 -0.0586 -2.2842  0.1345
  148SAPE  H18S16340  -0.058   3.271   8.614  0.6853  1.3636 -0.6400
  148SAPE  C21916341   0.068   3.091   8.597 -0.5560  0.3536 -0.4590
  148SAPE  H19R16342   0.018   3.040   8.681 -0.7329  0.2204 -0.6448
  148SAPE  H19S16343   0.165   3.117   8.644 -0.3401 -1.6277  0.2597
  148SAPE  C22016344   0.087   2.988   8.482 -0.3789 -0.4032 -0.3469
  148SAPE  H20R16345   0.132   2.893   8.519  0.8256  0.0005 -0.7370
  148SAPE  H20S16346   0.157   3.031   8.407 -0.5715 -0.8871 -0.8140
  148SAPE  H20T16347  -0.005   2.966   8.424 -0.6209 -0.6791  0.1373
  148SAPE   C3316348   0.219   3.002   7.447 -0.4456 -0.2399  0.7253
  148SAPE   H3X16349   0.311   3.064   7.457  0.4878 -1.2159 -1.3049
  148SAPE   H3Y16350   0.217   2.943   7.540 -0.9174 -1.3286  0.0397
  148SAPE   C3416351   0.081   3.080   7.451  0.1977 -0.1607 -1.0116
  148SAPE   H4X16352  -0.009   3.015   7.452 -1.5038  1.9971  1.5085
  148SAPE   H4Y16353   0.088   3.143   7.359  0.0209  0.4880 -0.5914
  148SAPE   C3516354   0.073   3.176   7.567  0.4419 -0.2919  0.0973
  148SAPE   H5X16355   0.147   3.258   7.556  2.2212 -1.8617 -0.1923
  148SAPE   H5Y16356   0.103   3.114   7.654  0.3791 -1.6775 -0.8235
  148SAPE   C3616357  -0.079   3.218   7.583 -0.3540 -0.1815  0.1021
  148SAPE   H6X16358  -0.122   3.267   7.494  0.0607 -1.0575 -0.6026
  148SAPE   H6Y16359  -0.081   3.288   7.669  1.0281  1.2380 -0.9667
  148SAPE   C3716360  -0.164   3.104   7.627  0.1235  0.2218  0.6676
  148SAPE   H7X16361  -0.119   3.030   7.696 -0.5415  0.0749  0.9501
  148SAPE   H7Y16362  -0.187   3.040   7.539  0.8762 -0.0262  0.6440
  148SAPE   C3816363  -0.301   3.155   7.683 -0.0745  0.2732  0.1821
  148SAPE   H8X16364  -0.354   3.209   7.601 -2.8879 -0.9435  1.0820
  148SAPE   H8Y16365  -0.290   3.225   7.769  0.3041  1.8572 -1.0906
  148SAPE   C3916366  -0.389   3.041   7.729 -0.0015 -0.1999  0.0512
  148SAPE   H9X16367  -0.433   3.059   7.829 -1.9659 -1.6831 -0.4871
  148SAPE   H9Y16368  -0.326   2.950   7.742  0.1629  0.0360  0.9735
  148SAPE  C31016369  -0.507   3.008   7.631 -1.2219 -0.5570 -0.6473
  148SAPE  H10X16370  -0.468   3.034   7.530 -0.8662 -0.2573 -0.4367
  148SAPE  H10Y16371  -0.588   3.078   7.660  1.2843  1.7169  1.4840
  148SAPE  C31116372  -0.547   2.857   7.619 -0.2381 -0.0259 -0.0019
  148SAPE  H11X16373  -0.561   2.806   7.716 -0.5204  1.4024  0.7334
  148SAPE  H11Y16374  -0.460   2.812   7.566  1.1228 -2.7777  4.0616
  148SAPE  C31216375  -0.670   2.828   7.536  0.8485  0.0026  0.4762
  148SAPE  H12X16376  -0.659   2.887   7.442 -0.2445 -0.4600  0.0378
  148SAPE  H12Y16377  -0.765   2.849   7.590  1.1177  0.0921  0.9190
  148SAPE  C31316378  -0.691   2.676   7.503 -0.3701 -0.4261 -0.2698
  148SAPE  H13X16379  -0.801   2.664   7.497 -0.5759 -0.1284  2.1579
  148SAPE  H13Y16380  -0.657   2.616   7.589 -1.9186  0.3184  0.9001
  148SAPE  C31416381  -0.610   2.632   7.384 -0.3663  0.6853  0.4053
  148SAPE  H14X16382  -0.504   2.659   7.400  0.8083 -2.5620 -1.0884
  148SAPE  H14Y16383  -0.640   2.690   7.294 -1.9482  0.3630  0.6863
  148SAPE  C31516384  -0.636   2.486   7.342  0.3816 -0.8757  0.0014
  148SAPE  H15X16385  -0.743   2.480   7.314  0.1576  0.8130  0.3999
  148SAPE  H15Y16386  -0.635   2.423   7.434 -2.6969  0.0762  0.8022
  148SAPE  C31616387  -0.548   2.437   7.229  0.3508 -0.2019  0.3998
  148SAPE  H16X16388  -0.560   2.326   7.226 -0.4722 -0.0961 -1.6216
  148SAPE  H16Y16389  -0.442   2.470   7.234  0.0474  0.7375  0.9393
  148SAPE  C31716390  -0.597   2.474   7.090 -0.3709  0.2745  0.8478
  148SAPE  H17X16391  -0.552   2.573   7.071 -0.7334  0.4110  0.6867
  148SAPE  H17Y16392  -0.707   2.488   7.100 -0.2991  0.7334  1.0313
  148SAPE  C31816393  -0.555   2.379   6.972  0.2006  0.3269  0.3016
  148SAPE  H18X16394  -0.447   2.357   6.963 -0.0242 -1.1877  1.0233
  148SAPE  H18Y16395  -0.593   2.413   6.874  0.0289 -1.0529 -0.1244
  148SAPE  H18Z16396  -0.598   2.277   6.981 -0.5152  0.6781  1.0459
  149SAPE     N16397   0.901   3.456   6.782 -0.4545  0.1187 -0.1325
  149SAPE   HN116398   1.000   3.447   6.812 -0.4015  0.1254 -0.3025
  149SAPE   HN216399   0.835   3.425   6.856 -2.3542  0.0258 -1.7791
  149SAPE   HN316400   0.891   3.387   6.704  2.8568 -1.8285  0.9666
  149SAPE   C1216401   0.883   3.595   6.729 -0.7531 -0.3748 -0.8495
  149SAPE  H12A16402   0.962   3.606   6.652  1.7322  0.9227  1.7069
  149SAPE  H12B16403   0.904   3.664   6.814 -2.1100 -1.1921  0.2025
  149SAPE   C1116404   0.744   3.622   6.677 -0.3104  0.4299  0.1492
  149SAPE  H11A16405   0.661   3.606   6.749 -2.7858  1.6324 -2.2257
  149SAPE  H11B16406   0.735   3.561   6.585 -1.3425  2.3695 -1.1270
  149SAPE     P16407   0.642   3.827   6.557  0.7060 -0.0533 -0.3526
  149SAPE   O1316408   0.716   3.884   6.444  0.2465 -0.2097  0.0832
  149SAPE   O1416409   0.533   3.728   6.527  0.2831  0.0372  0.1226
  149SAPE   O1216410   0.754   3.758   6.637 -0.1033 -1.2116  0.6589
  149SAPE   O1116411   0.590   3.938   6.661 -0.6819  0.1675  0.0232
  149SAPE    C116412   0.701   4.014   6.713  0.0288  1.1773 -0.3531
  149SAPE    HA16413   0.779   4.038   6.638  0.7976 -0.1437 -0.0158
  149SAPE    HB16414   0.661   4.110   6.751 -0.5306  0.7339  0.1946
  149SAPE    C216415   0.764   3.974   6.850 -0.6131 -0.4149  0.0297
  149SAPE    HS16416   0.861   3.922   6.838 -0.6520 -1.1241  2.2810
  149SAPE   O2116417   0.672   3.907   6.935  0.2569  0.2456  0.2787
  149SAPE   C2116418   0.721   3.811   7.017 -0.1045 -0.3231  0.9866
  149SAPE   O2216419   0.837   3.778   7.027  0.7728 -0.0169  0.1788
  149SAPE   C2216420   0.598   3.732   7.066 -0.6424  0.0507  0.0915
  149SAPE   H2R16421   0.528   3.808   7.105 -0.1869 -0.0607  1.1565
  149SAPE   H2S16422   0.565   3.671   6.979  2.0654 -1.2531 -0.1529
  149SAPE    C316423   0.808   4.100   6.933 -0.4396 -0.6236  0.2153
  149SAPE    HX16424   0.718   4.151   6.974 -0.0425  0.0788  0.2270
  149SAPE    HY16425   0.849   4.178   6.865  1.2777  0.4104  2.3215
  149SAPE   O3116426   0.897   4.078   7.047  0.1772 -0.0536  0.6940
  149SAPE   C3116427   1.021   4.057   7.010  0.1503 -0.2115  0.3178
  149SAPE   O3216428   1.060   4.042   6.894 -0.1027  0.1792 -0.5210
  149SAPE   C3216429   1.096   4.067   7.137  0.1808  0.1041 -0.4180
  149SAPE   H2X16430   1.062   3.978   7.195  0.5043  1.0286  1.2554
  149SAPE   H2Y16431   1.056   4.155   7.192  1.3421  0.0778  0.5125
  149SAPE   C2316432   0.633   3.634   7.183 -0.0270  0.2395 -0.2593
  149SAPE   H3R16433   0.714   3.565   7.151 -0.5071 -0.2098 -0.5097
  149SAPE   H3S16434   0.554   3.556   7.191  1.5406 -1.3865 -0.0634
  149SAPE   C2416435   0.634   3.708   7.311  0.3246 -0.5376  0.2917
  149SAPE   H4R16436   0.597   3.639   7.390  2.4782 -1.3292  0.6911
  149SAPE   H4S16437   0.570   3.797   7.297 -0.6501 -0.9863  1.6099
  149SAPE   C2516438   0.772   3.756   7.351  0.1191  0.1834 -0.1241
  149SAPE   H5R16439   0.838   3.793   7.271  1.1842  2.2937  1.5909
  149SAPE   C2616440   0.821   3.769   7.478 -0.2796 -0.0419 -0.3291
  149SAPE   H6R16441   0.911   3.825   7.509 -0.4187 -1.2279  2.4801
  149SAPE   C2716442   0.740   3.747   7.603 -0.2513 -0.6256  0.2722
  149SAPE   H7R16443   0.632   3.728   7.588 -0.5897  0.9622  0.5570
  149SAPE   H7S16444   0.746   3.845   7.656  1.7222  0.1657 -1.2880
  149SAPE   C2816445   0.795   3.644   7.695 -0.0240  0.3870  0.5597
  149SAPE   H8R16446   0.863   3.571   7.648 -2.0793 -0.4329 -1.3233
  149SAPE   C2916447   0.765   3.631   7.825 -0.0863 -0.3782  0.4154
  149SAPE   H9R16448   0.813   3.551   7.883  2.4050 -0.6980 -1.9224
  149SAPE  C21016449   0.672   3.723   7.905 -0.5148 -0.1139 -0.2958
  149SAPE  H10R16450   0.582   3.667   7.939  0.3469 -2.2225 -1.3345
  149SAPE  H10S16451   0.639   3.813   7.849  0.4203  2.7882  3.3842
  149SAPE  C21116452   0.755   3.762   8.021  0.6726 -0.2412 -0.0178
  149SAPE  H11R16453   0.809   3.857   8.009  1.0946 -0.5360 -0.5091
  149SAPE  C21216454   0.749   3.705   8.143  0.5445 -0.3609  0.0782
  149SAPE  H12R16455   0.817   3.744   8.221  1.2867 -0.9099 -0.2746
  149SAPE  C21316456   0.662   3.591   8.184 -0.7018  0.3815 -0.5083
  149SAPE  H13R16457   0.722   3.503   8.215 -1.6295 -0.0839 -0.0098
  149SAPE  H13S16458   0.591   3.553   8.109 -1.5833  2.5975 -0.8910
  149SAPE  C21416459   0.585   3.648   8.297  0.0774 -0.8566 -0.3624
  149SAPE  H14R16460   0.506   3.718   8.270  0.3872  0.0186  0.8959
  149SAPE  C21516461   0.598   3.631   8.429  0.4516 -0.4260  0.2646
  149SAPE  H15R16462   0.531   3.686   8.497 -1.0359  0.9115 -2.1532
  149SAPE  C21616463   0.706   3.547   8.489 -0.5050 -0.3745  0.2985
  149SAPE  H16R16464   0.792   3.608   8.523 -0.9359  0.1056  0.5414
  149SAPE  H16S16465   0.738   3.463   8.423  0.3690 -0.0023  0.2454
  149SAPE  C21716466   0.655   3.480   8.619  0.0947  0.1758 -0.0307
  149SAPE  H17R16467   0.727   3.399   8.644 -1.3356 -1.5088 -1.1465
  149SAPE  H17S16468   0.553   3.436   8.615  1.1712 -2.4550 -0.1308
  149SAPE  C21816469   0.656   3.592   8.728  0.6330 -0.8397 -1.1996
  149SAPE  H18R16470   0.587   3.679   8.716  1.6359  0.0096 -1.0138
  149SAPE  H18S16471   0.758   3.636   8.738  0.7790 -0.8801 -2.4655
  149SAPE  C21916472   0.629   3.527   8.867 -0.5310  0.1022 -0.0120
  149SAPE  H19R16473   0.702   3.449   8.898 -0.6234  0.7624  2.0008
  149SAPE  H19S16474   0.534   3.470   8.857 -0.0776 -0.4765 -1.3419
  149SAPE  C22016475   0.611   3.627   8.982  0.3437  0.4381  0.2898
  149SAPE  H20R16476   0.668   3.719   8.958 -0.3454  0.6718 -0.4885
  149SAPE  H20S16477   0.632   3.578   9.079  0.1876 -0.1522  0.0298
  149SAPE  H20T16478   0.501   3.642   8.978  0.7188  3.7573 -1.2238
  149SAPE   C3316479   1.253   4.053   7.142  0.7729 -0.3587 -0.5751
  149SAPE   H3X16480   1.293   4.137   7.081  1.1215  0.0685  0.2224
  149SAPE   H3Y16481   1.289   3.963   7.089  0.0952 -0.1961 -1.3280
  149SAPE   C3416482   1.303   4.057   7.286  0.0989  0.0349 -0.5703
  149SAPE   H4X16483   1.268   3.974   7.352  0.8350 -0.6191 -0.9838
  149SAPE   H4Y16484   1.263   4.150   7.331 -0.2022 -1.5579  2.7527
  149SAPE   C3516485   1.459   4.056   7.300  0.5516 -0.3423 -0.1480
  149SAPE   H5X16486   1.493   4.118   7.215 -2.1791 -0.4580 -1.4253
  149SAPE   H5Y16487   1.500   3.953   7.296  0.0931 -0.5194 -0.3756
  149SAPE   C3616488   1.488   4.121   7.437 -0.3157 -0.7492 -0.5131
  149SAPE   H6X16489   1.425   4.212   7.446  1.8663  0.8491 -0.4935
  149SAPE   H6Y16490   1.591   4.161   7.428 -1.2009  1.4766 -1.6076
  149SAPE   C3716491   1.482   4.018   7.552  0.4204  0.3427  0.0935
  149SAPE   H7X16492   1.547   3.935   7.517  0.2784  1.0031 -1.8224
  149SAPE   H7Y16493   1.379   3.977   7.558  1.0395 -1.1356  1.2762
  149SAPE   C3816494   1.535   4.056   7.690  0.0503 -0.8479 -0.0270
  149SAPE   H8X16495   1.643   4.083   7.691 -0.4905  1.5968  1.2137
  149SAPE   H8Y16496   1.521   3.979   7.769 -0.5125 -1.5747 -0.8129
  149SAPE   C3916497   1.466   4.192   7.742  0.0375  0.7484 -0.1699
  149SAPE   H9X16498   1.364   4.165   7.777  1.4843 -2.2495  2.2747
  149SAPE   H9Y16499   1.460   4.269   7.662 -0.4081  0.2804 -0.5963
  149SAPE  C31016500   1.538   4.250   7.869 -0.1419 -0.5880 -0.6581
  149SAPE  H10X16501   1.481   4.330   7.921  0.0231 -0.1231 -1.1761
  149SAPE  H10Y16502   1.636   4.289   7.836  0.6477 -0.1901  1.9526
  149SAPE  C31116503   1.569   4.149   7.978  0.3633 -0.5843 -0.2097
  149SAPE  H11X16504   1.624   4.070   7.923  0.8411 -0.4529  0.0691
  149SAPE  H11Y16505   1.476   4.108   8.023  1.4827 -2.2565  0.6589
  149SAPE  C31216506   1.662   4.216   8.085  0.2934 -0.8994 -0.2010
  149SAPE  H12X16507   1.701   4.315   8.052  0.0453 -0.6870  0.1287
  149SAPE  H12Y16508   1.759   4.162   8.087  1.9183  1.8431 -0.1163
  149SAPE  C31316509   1.606   4.227   8.223 -0.3358  0.4892 -0.0185
  149SAPE  H13X16510   1.551   4.133   8.245 -1.5138  1.6889  2.5124
  149SAPE  H13Y16511   1.534   4.310   8.238  1.3485  2.3712 -1.7472
  149SAPE  C31416512   1.728   4.243   8.314  0.5677 -0.5635  0.2859
  149SAPE  H14X16513   1.777   4.341   8.299 -3.1231  2.1250  3.7558
  149SAPE  H14Y16514   1.807   4.169   8.287  0.8416  0.3982 -1.6895
  149SAPE  C31516515   1.692   4.236   8.468 -0.7439  0.2158  0.5417
  149SAPE  H15X16516   1.787   4.254   8.521  1.4397 -0.6654 -2.7614
  149SAPE  H15Y16517   1.671   4.129   8.490  2.0852 -0.7177 -0.7625
  149SAPE  C31616518   1.585   4.329   8.525 -0.0401 -0.0243  1.1383
  149SAPE  H16X16519   1.587   4.322   8.635  2.0466 -0.2132  1.1400
  149SAPE  H16Y16520   1.495   4.289   8.474  0.5911 -1.9991  1.4707
  149SAPE  C31716521   1.613   4.477   8.503  0.8959  0.4880  0.1974
  149SAPE  H17X16522   1.652   4.494   8.401  0.1649 -1.6069 -0.4851
  149SAPE  H17Y16523   1.693   4.499   8.577  0.0884 -0.2504  1.3380
  149SAPE  C31816524   1.490   4.566   8.522  0.1148  0.5489 -0.6017
  149SAPE  H18X16525   1.414   4.537   8.445  0.9702 -2.3783 -0.4618
  149SAPE  H18Y16526   1.516   4.673   8.506 -1.4792  1.0526 -0.0934
  149SAPE  H18Z16527   1.452   4.550   8.625 -0.2646 -2.6879 -1.1265
  150SAPE     N16528   5.753   4.650   6.629  0.1603 -0.8768 -0.1519
  150SAPE   HN116529   5.777   4.581   6.703 -1.2494  2.2642  3.5838
  150SAPE   HN216530   5.703   4.730   6.673 -0.7329 -1.1408 -0.6634
  150SAPE   HN316531   5.683   4.612   6.562  1.5806 -4.8694  0.3644
  150SAPE   C1216532   5.880   4.696   6.570  0.1129  0.6175  0.8373
  150SAPE  H12A16533   5.914   4.634   6.485  2.6407  2.6090  0.2644
  150SAPE  H12B16534   5.957   4.687   6.650  0.3236 -0.3995  0.5342
  150SAPE   C1116535   5.875   4.832   6.518  0.8462 -1.0199 -0.0831
  150SAPE  H11A16536   5.821   4.895   6.591  0.7886 -0.6130 -0.4739
  150SAPE  H11B16537   5.824   4.849   6.420 -0.1582  1.2049  0.7630
  150SAPE     P16538   6.041   5.021   6.465 -0.2141 -0.7236  0.0854
  150SAPE   O1316539   6.177   5.056   6.514 -0.7578 -0.2358  0.1220
  150SAPE   O1416540   6.027   5.043   6.315  0.0809 -0.2224 -0.5555
  150SAPE   O1216541   6.009   4.874   6.501 -1.0739  0.2800 -0.1453
  150SAPE   O1116542   5.936   5.105   6.553 -0.4394  0.1386 -0.0821
  150SAPE    C116543   5.951   5.107   6.698  0.1232  0.5789  0.2467
  150SAPE    HA16544   5.850   5.103   6.743  1.1852  2.0996  3.0055
  150SAPE    HB16545   6.005   5.017   6.735 -1.0342  0.6813  2.3314
  150SAPE    C216546   6.025   5.235   6.757 -0.3862  0.3102 -0.4520
  150SAPE    HS16547   6.127   5.233   6.712  0.8626  0.1221  2.1865
  150SAPE   O2116548   6.040   5.204   6.897 -0.0119 -0.2084 -0.0300
  150SAPE   C2116549   6.099   5.299   6.972 -1.2410  0.4974  0.7000
  150SAPE   O2216550   6.178   5.389   6.932 -0.4906 -0.2176  0.0200
  150SAPE   C2216551   6.086   5.265   7.119 -0.4766 -0.2018 -0.1064
  150SAPE   H2R16552   5.986   5.219   7.129  0.0094 -0.9135  2.1121
  150SAPE   H2S16553   6.153   5.181   7.148  0.0557  0.4702  0.6507
  150SAPE    C316554   5.956   5.364   6.733 -0.1116  0.6218 -0.4952
  150SAPE    HX16555   5.980   5.385   6.626  1.3416 -0.2234 -0.3643
  150SAPE    HY16556   6.006   5.448   6.785 -0.3526 -0.1942  1.1226
  150SAPE   O3116557   5.813   5.361   6.777 -0.2052 -0.2310 -0.7816
  150SAPE   C3116558   5.778   5.403   6.898  0.2802  0.3252 -0.9153
  150SAPE   O3216559   5.853   5.448   6.984 -0.1904  0.2516  0.5016
  150SAPE   C3216560   5.632   5.362   6.916 -0.1946 -0.1354 -0.4279
  150SAPE   H2X16561   5.629   5.251   6.923  2.5531 -0.2154  0.6576
  150SAPE   H2Y16562   5.568   5.382   6.828 -2.7019  0.6904  1.4540
  150SAPE   C2316563   6.109   5.385   7.204 -0.1785  0.3889  0.4255
  150SAPE   H3R16564   6.056   5.470   7.156 -3.8204 -1.4043  0.8890
  150SAPE   H3S16565   6.218   5.399   7.217  0.8494 -2.9239 -2.7560
  150SAPE   C2416566   6.049   5.347   7.341  0.1177 -0.2506 -0.3041
  150SAPE   H4R16567   6.099   5.419   7.409 -0.7919  1.0512 -0.9701
  150SAPE   H4S16568   6.079   5.244   7.369 -2.4634 -0.5877  1.6023
  150SAPE   C2516569   5.902   5.345   7.352  0.6664 -0.5120 -0.2949
  150SAPE   H5R16570   5.858   5.311   7.257  2.0750 -0.2398 -1.0627
  150SAPE   C2616571   5.828   5.395   7.454 -0.3721  0.9658 -0.4135
  150SAPE   H6R16572   5.720   5.374   7.460 -0.0740 -0.3321  1.2140
  150SAPE   C2716573   5.880   5.463   7.578 -0.3387  0.0760 -0.2359
  150SAPE   H7R16574   5.913   5.566   7.553  0.6620  0.4844  2.4212
  150SAPE   H7S16575   5.977   5.427   7.617 -0.6780  1.6403  2.3023
  150SAPE   C2816576   5.785   5.460   7.696 -0.4608  0.2432 -0.6513
  150SAPE   H8R16577   5.689   5.405   7.695  0.6828 -1.8477 -2.3594
  150SAPE   C2916578   5.818   5.523   7.814  0.0691 -0.2221  0.7077
  150SAPE   H9R16579   5.742   5.515   7.894  0.0888 -1.4357  0.6346
  150SAPE  C21016580   5.948   5.603   7.844 -0.2423  0.1880  0.2927
  150SAPE  H10R16581   5.928   5.689   7.911  0.4965 -0.2614  1.1277
  150SAPE  H10S16582   5.990   5.641   7.749 -1.2428 -1.3170 -0.7997
  150SAPE  C21116583   6.047   5.506   7.899 -0.0318 -0.0394  0.4948
  150SAPE  H11R16584   6.077   5.424   7.833  1.7457 -1.8982  3.3774
  150SAPE  C21216585   6.102   5.503   8.018 -0.0432 -0.4238  1.0777
  150SAPE  H12R16586   6.179   5.429   8.041 -1.7215 -1.4428  3.8189
  150SAPE  C21316587   6.068   5.600   8.126  0.0074  0.0692 -0.3640
  150SAPE  H13R16588   6.001   5.552   8.200  1.4500 -2.0239 -0.3294
  150SAPE  H13S16589   6.026   5.697   8.092  1.7466  0.8213 -0.4492
  150SAPE  C21416590   6.196   5.647   8.189  0.8453  0.0052 -0.1633
  150SAPE  H14R16591   6.261   5.704   8.122  1.0429  0.6489  0.5593
  150SAPE  C21516592   6.233   5.632   8.321 -0.0636  1.0024  0.9235
  150SAPE  H15R16593   6.322   5.679   8.364  0.5456 -1.1285  2.1460
  150SAPE  C21616594   6.159   5.542   8.416  0.9023 -0.3935 -0.0243
  150SAPE  H16R16595   6.098   5.463   8.367 -0.8744  1.1478 -0.4056
  150SAPE  H16S16596   6.080   5.604   8.464  0.5348 -0.0981 -0.9971
  150SAPE  C21716597   6.255   5.492   8.528 -0.2310 -0.4363  0.4768
  150SAPE  H17R16598   6.192   5.449   8.608 -0.7343  0.6506  0.6874
  150SAPE  H17S16599   6.311   5.574   8.579 -1.8792 -1.0343  3.4743
  150SAPE  C21816600   6.363   5.391   8.480 -0.0784 -0.8769  0.7372
  150SAPE  H18R16601   6.436   5.446   8.417 -0.3402 -2.0628 -0.6289
  150SAPE  H18S16602   6.313   5.318   8.414 -1.3695  0.0194  0.6928
  150SAPE  C21916603   6.429   5.322   8.595  0.1916  0.5275  0.5548
  150SAPE  H19R16604   6.361   5.242   8.631 -0.5839  1.7990  2.0448
  150SAPE  H19S16605   6.446   5.389   8.682  2.4091 -0.1452  0.6917
  150SAPE  C22016606   6.565   5.260   8.552 -0.0529 -0.4651 -0.4282
  150SAPE  H20R16607   6.646   5.335   8.539 -0.9320  0.2762 -1.8199
  150SAPE  H20S16608   6.546   5.196   8.464 -0.5771  1.4348 -1.7588
  150SAPE  H20T16609   6.604   5.202   8.639  0.3525  3.4755  2.2770
  150SAPE   C3316610   5.575   5.428   7.043  0.1862  0.0670  0.1805
  150SAPE   H3X16611   5.564   5.538   7.025 -2.0828 -0.4891 -2.4781
  150SAPE   H3Y16612   5.645   5.405   7.126  0.1590  0.0520  0.1994
  150SAPE   C3416613   5.437   5.369   7.066 -0.5112  0.4533 -0.2964
  150SAPE   H4X16614   5.440   5.259   7.082 -0.7330  0.4642 -0.1696
  150SAPE   H4Y16615   5.378   5.384   6.973 -1.5364  1.3894  0.4793
  150SAPE   C3516616   5.362   5.428   7.180 -0.0630  0.2957  0.0095
  150SAPE   H5X16617   5.258   5.388   7.185  0.4816 -1.1809  4.3200
  150SAPE   H5Y16618   5.348   5.538   7.185 -0.1762  0.3766 -1.6597
  150SAPE   C3616619   5.424   5.376   7.314 -0.7123  0.1830 -0.6154
  150SAPE   H6X16620   5.521   5.430   7.316  0.2352 -1.0869 -4.5643
  150SAPE   H6Y16621   5.440   5.266   7.313  3.6004  0.5833  1.5862
  150SAPE   C3716622   5.349   5.418   7.440 -0.4780  0.0593  0.0168
  150SAPE   H7X16623   5.385   5.360   7.528  1.4317  1.1103 -0.0023
  150SAPE   H7Y16624   5.242   5.395   7.424 -0.8595  1.2253  0.7625
  150SAPE   C3816625   5.363   5.564   7.469  0.4130 -0.7346 -0.0122
  150SAPE   H8X16626   5.303   5.613   7.390 -1.7051 -2.7973  0.1984
  150SAPE   H8Y16627   5.469   5.590   7.452 -0.6525  4.7635  0.0583
  150SAPE   C3916628   5.331   5.606   7.615  0.0441 -0.4134 -0.6105
  150SAPE   H9X16629   5.225   5.581   7.639 -0.8999  1.8067 -2.0308
  150SAPE   H9Y16630   5.337   5.717   7.621  2.9410 -0.5304 -0.0542
  150SAPE  C31016631   5.424   5.554   7.723  0.0850  0.6928 -0.5165
  150SAPE  H10X16632   5.523   5.555   7.673  0.0244 -0.6829 -0.6973
  150SAPE  H10Y16633   5.409   5.449   7.755  2.0427  1.1048  2.0539
  150SAPE  C31116634   5.428   5.642   7.846  0.0101  0.4178 -0.5370
  150SAPE  H11X16635   5.335   5.704   7.852  0.2254  0.6562  0.4135
  150SAPE  H11Y16636   5.516   5.708   7.835  1.6912 -1.8960 -1.7161
  150SAPE  C31216637   5.434   5.551   7.968  0.0348 -0.2049  0.0833
  150SAPE  H12X16638   5.523   5.485   7.956 -0.9824 -1.8970  1.4016
  150SAPE  H12Y16639   5.360   5.468   7.969  1.9794 -2.1984 -2.8181
  150SAPE  C31316640   5.464   5.622   8.104  0.2882 -0.3501 -0.0096
  150SAPE  H13X16641   5.556   5.682   8.101  1.5314 -2.0532  1.6119
  150SAPE  H13Y16642   5.488   5.548   8.184  1.3097 -0.9915 -0.8868
  150SAPE  C31416643   5.346   5.710   8.152 -0.2354 -0.2404 -0.1357
  150SAPE  H14X16644   5.263   5.637   8.166 -0.3582  0.1402  1.2000
  150SAPE  H14Y16645   5.322   5.783   8.071  0.3071  1.6571  1.3529
  150SAPE  C31516646   5.366   5.782   8.288  0.0764  0.3489 -0.3854
  150SAPE  H15X16647   5.455   5.848   8.282  0.8416 -0.6583 -0.3674
  150SAPE  H15Y16648   5.390   5.707   8.366 -1.2223 -1.3890 -1.5825
  150SAPE  C31616649   5.255   5.881   8.331 -0.5408 -0.6634  0.6240
  150SAPE  H16X16650   5.153   5.844   8.308  0.0784 -2.0126 -0.0665
  150SAPE  H16Y16651   5.259   5.979   8.277 -0.2624  0.4080  2.5066
  150SAPE  C31716652   5.268   5.923   8.478  0.4496  0.4399 -0.3134
  150SAPE  H17X16653   5.199   6.007   8.501  0.8143  0.6220  0.1337
  150SAPE  H17Y16654   5.375   5.952   8.484  1.4475 -3.0196  2.3383
  150SAPE  C31816655   5.231   5.813   8.576  0.1074  0.6571 -0.7421
  150SAPE  H18X16656   5.136   5.759   8.555  0.8128 -0.7509 -0.4467
  150SAPE  H18Y16657   5.219   5.860   8.676  0.5074 -0.3801 -0.1898
  150SAPE  H18Z16658   5.304   5.729   8.578  1.6033  1.9294  0.4876
  151SAPE     N16659   1.341   2.643   6.171  0.5391 -0.0145 -0.3792
  151SAPE   HN116660   1.362   2.673   6.268  0.3003  1.4515 -0.7553
  151SAPE   HN216661   1.359   2.541   6.165  0.1234 -0.1713  0.8454
  151SAPE   HN316662   1.401   2.690   6.100  0.9874 -1.2787 -0.8614
  151SAPE   C1216663   1.197   2.661   6.154  0.3912 -0.0974 -0.0698
  151SAPE  H12A16664   1.177   2.636   6.048  2.1783  0.3473 -0.5429
  151SAPE  H12B16665   1.168   2.765   6.178 -0.2503 -0.6585  1.7808
  151SAPE   C1116666   1.116   2.571   6.249 -0.4816  0.1767 -0.1548
  151SAPE  H11A16667   1.009   2.600   6.244 -0.9868 -1.0324  2.1190
  151SAPE  H11B16668   1.141   2.597   6.354  2.0670 -0.4559 -0.5393
  151SAPE     P16669   1.235   2.342   6.283  0.7087  0.0256 -0.1084
  151SAPE   O1316670   1.181   2.201   6.296 -0.4951 -0.8098  0.1757
  151SAPE   O1416671   1.364   2.366   6.213  0.0704  0.3562  0.6243
  151SAPE   O1216672   1.128   2.431   6.218  0.3204  0.1714  0.1269
  151SAPE   O1116673   1.228   2.397   6.429  0.4211 -0.3983 -0.1875
  151SAPE    C116674   1.353   2.377   6.507 -0.2764  1.0884  0.1775
  151SAPE    HA16675   1.452   2.371   6.457  0.2948 -2.4984  1.4050
  151SAPE    HB16676   1.368   2.456   6.582 -0.6029  0.8685  0.4811
  151SAPE    C216677   1.346   2.246   6.598 -0.2100  0.3867  0.4759
  151SAPE    HS16678   1.315   2.162   6.532 -2.0589  1.2184  0.2136
  151SAPE   O2116679   1.253   2.273   6.702  0.1671 -0.5960  0.1278
  151SAPE   C2116680   1.207   2.174   6.770  0.0342  0.4229 -0.7976
  151SAPE   O2216681   1.243   2.059   6.767  0.1853  0.1309 -0.1239
  151SAPE   C2216682   1.125   2.230   6.889  0.1291 -0.0769  0.3109
  151SAPE   H2R16683   1.021   2.227   6.849  0.2850  0.7859 -0.1846
  151SAPE   H2S16684   1.131   2.166   6.980 -0.7192 -0.7837 -0.1156
  151SAPE    C316685   1.488   2.225   6.661  0.1254  0.8400  0.2548
  151SAPE    HX16686   1.556   2.199   6.577  1.4843 -0.0273  1.5617
  151SAPE    HY16687   1.490   2.133   6.723  0.3499  0.5180 -0.2239
  151SAPE   O3116688   1.535   2.339   6.720 -0.0743 -0.0881  0.3045
  151SAPE   C3116689   1.530   2.340   6.852 -0.1152 -0.7616  0.3411
  151SAPE   O3216690   1.512   2.254   6.928 -0.5954 -0.0408 -0.3621
  151SAPE   C3216691   1.558   2.483   6.901 -0.7668  0.0674  0.1606
  151SAPE   H2X16692   1.460   2.533   6.914  0.0698  1.6938  0.5112
  151SAPE   H2Y16693   1.599   2.546   6.818 -0.9365 -1.2139 -0.9249
  151SAPE   C2316694   1.157   2.381   6.929 -0.1509  0.3103 -0.6617
  151SAPE   H3R16695   1.109   2.447   6.854  1.1741 -0.8255 -2.5847
  151SAPE   H3S16696   1.266   2.399   6.919  0.4457 -1.8876  1.2015
  151SAPE   C2416697   1.108   2.411   7.070  0.0987  0.4312 -1.0125
  151SAPE   H4R16698   1.151   2.352   7.153 -2.8492 -0.4636  0.0295
  151SAPE   H4S16699   1.001   2.383   7.079  0.1706  0.6551  0.8569
  151SAPE   C2516700   1.104   2.560   7.093  0.3746 -0.7731 -0.1343
  151SAPE   H5R16701   1.071   2.611   7.001  1.1161 -1.8058 -1.0003
  151SAPE   C2616702   1.151   2.636   7.195 -0.1317 -0.5180  0.1430
  151SAPE   H6R16703   1.140   2.746   7.191 -1.0962 -0.6444 -1.6544
  151SAPE   C2716704   1.221   2.580   7.318  0.7249 -0.9079 -0.0533
  151SAPE   H7R16705   1.316   2.531   7.287  0.1510 -0.9784 -1.7851
  151SAPE   H7S16706   1.156   2.503   7.363  0.0136 -1.1425 -1.4319
  151SAPE   C2816707   1.269   2.673   7.426  0.4843  0.4034  0.4063
  151SAPE   H8R16708   1.378   2.681   7.418  0.6129 -2.2061 -2.3018
  151SAPE   C2916709   1.190   2.734   7.520  0.7001 -0.1301  0.6438
  151SAPE   H9R16710   1.228   2.801   7.598 -1.5919  0.8163  1.0276
  151SAPE  C21016711   1.039   2.717   7.527 -0.0122 -1.3264  0.0462
  151SAPE  H10R16712   1.026   2.608   7.545  0.5714 -1.2368  1.1191
  151SAPE  H10S16713   0.984   2.727   7.432  3.7430  2.1771 -2.1085
  151SAPE  C21116714   0.984   2.817   7.630 -0.6855 -0.4192  0.1284
  151SAPE  H11R16715   0.979   2.919   7.587 -3.9838 -0.4130  0.2634
  151SAPE  C21216716   0.948   2.800   7.761  0.2687 -0.2336  0.2824
  151SAPE  H12R16717   0.918   2.882   7.827  4.2971 -1.0052  3.4913
  151SAPE  C21316718   0.952   2.665   7.826 -0.2289 -0.0868 -0.1070
  151SAPE  H13R16719   1.046   2.609   7.808 -0.3401 -0.5405  0.6895
  151SAPE  H13S16720   0.871   2.606   7.779  0.0565 -1.2066  0.7629
  151SAPE  C21416721   0.935   2.658   7.973  0.1775 -0.2295  0.4296
  151SAPE  H14R16722   0.829   2.658   8.001 -0.7977 -0.9709 -2.7619
  151SAPE  C21516723   1.030   2.657   8.069  0.5335 -0.5987  0.6526
  151SAPE  H15R16724   1.002   2.675   8.174  0.6648  0.9459  0.4445
  151SAPE  C21616725   1.176   2.657   8.047 -0.4341 -0.5613  0.2331
  151SAPE  H16R16726   1.212   2.587   7.968 -3.3244  0.0710 -1.8214
  151SAPE  H16S16727   1.240   2.636   8.135  1.8029 -0.4314 -1.2519
  151SAPE  C21716728   1.222   2.801   8.002  0.3778 -0.2403  0.2190
  151SAPE  H17R16729   1.170   2.825   7.907 -1.7999  1.0957  1.6714
  151SAPE  H17S16730   1.332   2.803   7.987  0.3666  0.1441  0.1989
  151SAPE  C21816731   1.183   2.921   8.096  0.5500  0.1330 -0.2679
  151SAPE  H18R16732   1.076   2.948   8.081  0.7854  0.7327 -0.8484
  151SAPE  H18S16733   1.236   3.011   8.060  1.2422 -0.8737 -1.8821
  151SAPE  C21916734   1.214   2.900   8.247  0.1492  0.4849 -0.2804
  151SAPE  H19R16735   1.181   2.801   8.287  3.7257  0.5418  3.5060
  151SAPE  H19S16736   1.160   2.976   8.308  1.7138  0.6354  0.9921
  151SAPE  C22016737   1.365   2.925   8.273 -0.2621  0.6789 -0.2143
  151SAPE  H20R16738   1.387   3.029   8.240  1.0718  0.4860  0.0226
  151SAPE  H20S16739   1.398   2.916   8.378 -0.1316  1.1456 -0.2152
  151SAPE  H20T16740   1.427   2.858   8.209 -1.0292  0.6732 -0.9745
  151SAPE   C3316741   1.634   2.476   7.037  0.2756 -0.6262  0.0351
  151SAPE   H3X16742   1.739   2.442   7.023  0.7217  0.9679 -0.7537
  151SAPE   H3Y16743   1.583   2.398   7.098  0.8734 -0.3912  0.8420
  151SAPE   C3416744   1.632   2.611   7.102 -0.0149  0.2848  0.0498
  151SAPE   H4X16745   1.529   2.650   7.082 -0.0579 -0.8643 -2.2010
  151SAPE   H4Y16746   1.706   2.674   7.048  1.8325 -2.1059 -0.3532
  151SAPE   C3516747   1.645   2.598   7.258  0.0148  0.3868  0.5583
  151SAPE   H5X16748   1.750   2.563   7.269  0.0702  0.8817  1.7852
  151SAPE   H5Y16749   1.576   2.518   7.291 -0.0416  0.0487 -0.3452
  151SAPE   C3616750   1.647   2.737   7.317  0.7903 -0.4869  0.3401
  151SAPE   H6X16751   1.548   2.787   7.310 -0.0836 -1.8856  2.0489
  151SAPE   H6Y16752   1.713   2.803   7.256  0.1572 -0.8605 -0.7872
  151SAPE   C3716753   1.681   2.731   7.466  0.3012 -0.1521  1.0194
  151SAPE   H7X16754   1.770   2.666   7.480  0.1326 -0.7455 -0.4402
  151SAPE   H7Y16755   1.594   2.696   7.525  1.2887 -1.2721  1.8580
  151SAPE   C3816756   1.712   2.870   7.522 -0.3042 -0.0153  0.4755
  151SAPE   H8X16757   1.673   2.943   7.447 -2.0797 -1.5303 -0.1504
  151SAPE   H8Y16758   1.817   2.903   7.535 -0.0521  0.3588 -1.9785
  151SAPE   C3916759   1.636   2.892   7.649  0.0948  0.1289 -1.0981
  151SAPE   H9X16760   1.526   2.887   7.634 -0.0786  2.0406 -0.6775
  151SAPE   H9Y16761   1.666   2.995   7.680 -0.4093 -0.5712  1.9955
  151SAPE  C31016762   1.676   2.794   7.768  0.3524 -0.5692 -0.4101
  151SAPE  H10X16763   1.787   2.784   7.763  0.3801 -0.9388  0.7119
  151SAPE  H10Y16764   1.625   2.696   7.762  1.5219 -1.2191 -0.1132
  151SAPE  C31116765   1.646   2.848   7.906 -0.9109 -0.3991 -0.6407
  151SAPE  H11X16766   1.547   2.807   7.938 -0.7856  0.2172  0.6087
  151SAPE  H11Y16767   1.614   2.953   7.893 -2.1573 -0.2941  2.2922
  151SAPE  C31216768   1.755   2.810   8.014 -0.3127 -0.7012 -0.0799
  151SAPE  H12X16769   1.840   2.877   7.986 -0.2153 -1.0413 -0.6305
  151SAPE  H12Y16770   1.786   2.703   8.005 -1.0453 -0.9947  0.7767
  151SAPE  C31316771   1.719   2.825   8.162 -0.2389 -0.3193 -0.0626
  151SAPE  H13X16772   1.639   2.752   8.186 -1.9446  1.7444  0.8715
  151SAPE  H13Y16773   1.684   2.929   8.176  1.6621  0.4412 -0.6764
  151SAPE  C31416774   1.835   2.796   8.259  0.1276 -0.4381 -0.5872
  151SAPE  H14X16775   1.922   2.855   8.224  0.5188 -0.0795  0.9119
  151SAPE  H14Y16776   1.874   2.692   8.254  1.7249  0.0265  1.1162
  151SAPE  C31516777   1.794   2.822   8.405 -0.1304 -0.6587  0.1208
  151SAPE  H15X16778   1.765   2.926   8.431  0.3927 -1.0018  2.2266
  151SAPE  H15Y16779   1.884   2.814   8.468  0.4566  0.0751 -0.6028
  151SAPE  C31616780   1.680   2.735   8.452 -0.2637  0.7400  0.3718
  151SAPE  H16X16781   1.718   2.632   8.437 -1.6771 -0.0035  1.6611
  151SAPE  H16Y16782   1.585   2.757   8.401 -0.0973  1.9450  0.5439
  151SAPE  C31716783   1.661   2.761   8.597  0.2273 -0.2993  0.0917
  151SAPE  H17X16784   1.638   2.868   8.620  0.0957 -0.1414 -0.7576
  151SAPE  H17Y16785   1.754   2.741   8.656 -0.0077  2.6461  1.6778
  151SAPE  C31816786   1.553   2.689   8.673  0.0385 -0.2996  0.5263
  151SAPE  H18X16787   1.564   2.579   8.665  0.4249 -0.1352 -3.1448
  151SAPE  H18Y16788   1.448   2.709   8.642  0.1600  0.6785  0.6839
  151SAPE  H18Z16789   1.554   2.723   8.779  1.8871  1.1497  0.0944
  152SAPE     N16790   6.535   5.679   5.756 -0.3124  0.0947  0.5293
  152SAPE   HN116791   6.469   5.641   5.685  0.1691 -0.5229  0.4037
  152SAPE   HN216792   6.500   5.773   5.782  0.3883  0.7219 -0.7014
  152SAPE   HN316793   6.627   5.694   5.708 -1.0353  0.3421 -0.8297
  152SAPE   C1216794   6.555   5.588   5.876 -0.1464  0.0330  0.8851
  152SAPE  H12A16795   6.620   5.505   5.840  0.1907  1.2494 -1.4548
  152SAPE  H12B16796   6.458   5.552   5.916  0.6381 -1.4188  1.6043
  152SAPE   C1116797   6.634   5.661   5.980 -0.6106  0.0595 -0.4993
  152SAPE  H11A16798   6.731   5.688   5.932 -0.1403  1.4136  1.0978
  152SAPE  H11B16799   6.664   5.599   6.067 -0.0118  1.2718  0.2001
  152SAPE     P16800   6.630   5.904   6.082  0.0558  0.2447  0.0348
  152SAPE   O1316801   6.739   5.954   5.991 -0.1860  0.0055 -0.4305
  152SAPE   O1416802   6.524   6.014   6.102  0.1342 -0.0110  0.2127
  152SAPE   O1216803   6.561   5.769   6.031 -0.3592 -0.6959 -0.5176
  152SAPE   O1116804   6.695   5.862   6.216  1.0076  0.4583 -0.1236
  152SAPE    C116805   6.650   5.774   6.318  0.7186  0.1944  0.2836
  152SAPE    HA16806   6.591   5.692   6.273 -0.0958  1.7137 -1.5251
  152SAPE    HB16807   6.737   5.735   6.375  0.2129 -1.1295  0.1760
  152SAPE    C216808   6.544   5.852   6.407  1.0968 -0.1802 -0.2408
  152SAPE    HS16809   6.479   5.913   6.340 -0.1532  1.3905  2.2508
  152SAPE   O2116810   6.621   5.938   6.502  0.0813 -0.0442 -0.1151
  152SAPE   C2116811   6.563   6.049   6.545  0.1601 -0.6178  0.5464
  152SAPE   O2216812   6.452   6.089   6.515 -0.2676 -0.1687  0.5345
  152SAPE   C2216813   6.650   6.113   6.647  0.4169  0.2911 -0.7361
  152SAPE   H2R16814   6.747   6.134   6.597  0.2936  1.3831 -0.5455
  152SAPE   H2S16815   6.609   6.215   6.664  0.2392  0.2746 -1.0684
  152SAPE    C316816   6.444   5.753   6.492 -0.9441 -0.0243 -0.2348
  152SAPE    HX16817   6.510   5.683   6.548 -1.1999 -0.5647 -0.6004
  152SAPE    HY16818   6.396   5.702   6.406  0.6544 -2.6256  0.3047
  152SAPE   O3116819   6.355   5.825   6.582 -0.1092  0.5564 -0.0927
  152SAPE   C3116820   6.269   5.746   6.640  0.4802  0.4524  0.2862
  152SAPE   O3216821   6.268   5.625   6.641 -0.0637 -0.0740 -0.3622
  152SAPE   C3216822   6.167   5.836   6.709  0.5244 -0.1102 -0.0595
  152SAPE   H2X16823   6.078   5.842   6.642  1.2484 -1.5961 -1.2181
  152SAPE   H2Y16824   6.212   5.937   6.716  2.9022 -0.9334 -2.0299
  152SAPE   C2316825   6.653   6.023   6.775  0.4837 -0.6266 -0.4842
  152SAPE   H3R16826   6.725   6.083   6.835  1.0921  0.2045 -1.9868
  152SAPE   H3S16827   6.702   5.927   6.751  0.0397 -0.7101 -1.0945
  152SAPE   C2416828   6.528   6.011   6.868  0.5669 -0.1014  0.2483
  152SAPE   H4R16829   6.560   5.956   6.959 -0.5677  1.3868  1.6160
  152SAPE   H4S16830   6.435   5.963   6.830 -0.0228  0.8737  0.4238
  152SAPE   C2516831   6.484   6.150   6.903 -0.3730  0.4542  0.6188
  152SAPE   H5R16832   6.435   6.204   6.821  0.6695  1.8854  0.9015
  152SAPE   C2616833   6.508   6.224   7.017 -0.2639  0.3113 -0.0783
  152SAPE   H6R16834   6.479   6.330   7.022  5.1434  2.0304  0.3900
  152SAPE   C2716835   6.585   6.179   7.132  0.7689  0.1121 -0.7751
  152SAPE   H7R16836   6.622   6.273   7.178  1.9560 -0.8238  0.2617
  152SAPE   H7S16837   6.666   6.110   7.100  1.9804  0.4251  1.4194
  152SAPE   C2816838   6.509   6.100   7.235  0.0989  0.0313 -0.4976
  152SAPE   H8R16839   6.438   6.029   7.192 -0.7253  0.3331  0.3349
  152SAPE   C2916840   6.518   6.101   7.367  0.2139 -0.1400 -1.0471
  152SAPE   H9R16841   6.457   6.027   7.422 -1.1989  0.1416 -2.2048
  152SAPE  C21016842   6.614   6.187   7.453 -0.5939  0.4883  0.0471
  152SAPE  H10R16843   6.552   6.267   7.499 -0.2022  0.9956 -0.2923
  152SAPE  H10S16844   6.689   6.252   7.403  0.4310 -1.6715 -1.3853
  152SAPE  C21116845   6.691   6.090   7.540 -0.0115 -0.0524  0.0917
  152SAPE  H11R16846   6.725   5.994   7.499  1.3155  0.5169 -0.2001
  152SAPE  C21216847   6.720   6.120   7.666 -0.7123  0.0883  0.2906
  152SAPE  H12R16848   6.788   6.046   7.711 -0.0206 -0.4726 -1.5641
  152SAPE  C21316849   6.686   6.244   7.750 -0.1050 -0.4809  0.1219
  152SAPE  H13R16850   6.685   6.328   7.677 -2.7709 -0.5122  0.0118
  152SAPE  H13S16851   6.769   6.264   7.822 -0.1417 -1.0890  0.3386
  152SAPE  C21416852   6.555   6.239   7.821  0.3699  0.2073 -0.0017
  152SAPE  H14R16853   6.472   6.266   7.755 -0.0233 -0.4183  0.2321
  152SAPE  C21516854   6.515   6.204   7.946 -0.1744 -0.4757 -0.6526
  152SAPE  H15R16855   6.413   6.227   7.980  0.6884 -1.6260  3.2782
  152SAPE  C21616856   6.603   6.163   8.058  0.2680  0.1487  0.5535
  152SAPE  H16R16857   6.707   6.139   8.030  0.3759  0.9368  0.2337
  152SAPE  H16S16858   6.553   6.089   8.124 -0.5704  0.3488  0.1539
  152SAPE  C21716859   6.624   6.292   8.139 -0.3225  0.1609  0.3644
  152SAPE  H17R16860   6.530   6.339   8.176  0.4387  0.0866  2.5511
  152SAPE  H17S16861   6.680   6.354   8.066  2.4734 -2.1938  0.3312
  152SAPE  C21816862   6.712   6.267   8.267  0.2872  0.2318 -1.2945
  152SAPE  H18R16863   6.796   6.340   8.261 -1.1619  1.9155 -2.1288
  152SAPE  H18S16864   6.751   6.164   8.258 -0.4725 -0.1969  0.0434
  152SAPE  C21916865   6.638   6.271   8.409  0.9960 -0.3838 -0.0837
  152SAPE  H19R16866   6.700   6.216   8.483  0.1005 -0.0828  0.9155
  152SAPE  H19S16867   6.548   6.206   8.401  1.6430 -1.5549  1.5308
  152SAPE  C22016868   6.599   6.406   8.468  0.1656  0.8649  0.2547
  152SAPE  H20R16869   6.557   6.391   8.571 -0.8197 -0.6418 -0.3246
  152SAPE  H20S16870   6.517   6.452   8.409  0.8005 -1.8941 -3.0688
  152SAPE  H20T16871   6.694   6.462   8.469  1.5535 -1.3588 -0.2152
  152SAPE   C3316872   6.126   5.787   6.846 -0.3716  1.1038 -0.0002
  152SAPE   H3X16873   6.099   5.679   6.839  2.4871  0.3405 -0.7755
  152SAPE   H3Y16874   6.039   5.849   6.876  0.4277  1.1664  2.3877
  152SAPE   C3416875   6.230   5.814   6.958  0.3611  0.4928  0.7391
  152SAPE   H4X16876   6.254   5.922   6.969  3.9550  0.1010 -1.4910
  152SAPE   H4Y16877   6.327   5.770   6.925 -0.3859 -1.2499  0.7303
  152SAPE   C3516878   6.185   5.758   7.099  0.2110  0.2749  0.1352
  152SAPE   H5X16879   6.145   5.654   7.091  0.8404  0.0778 -0.5982
  152SAPE   H5Y16880   6.096   5.818   7.126 -2.0052 -2.3327 -0.8301
  152SAPE   C3616881   6.300   5.745   7.202  0.3480  0.0948  0.1131
  152SAPE   H6X16882   6.335   5.849   7.219 -0.6000  0.8669 -2.2346
  152SAPE   H6Y16883   6.384   5.692   7.154  0.3478  0.2767 -0.0914
  152SAPE   C3716884   6.268   5.684   7.333 -0.6138  0.6480 -0.2733
  152SAPE   H7X16885   6.248   5.575   7.334  0.8798  0.3543 -0.4632
  152SAPE   H7Y16886   6.174   5.735   7.363  0.0211  0.6102  1.9255
  152SAPE   C3816887   6.368   5.721   7.441 -0.5603 -0.7267  0.2481
  152SAPE   H8X16888   6.409   5.824   7.436 -2.8329  0.2030 -0.3662
  152SAPE   H8Y16889   6.458   5.656   7.438 -1.0689 -1.5584  1.6759
  152SAPE   C3916890   6.293   5.703   7.578  0.5181 -0.5332 -0.0184
  152SAPE   H9X16891   6.271   5.596   7.598  0.3972 -0.5147 -0.0509
  152SAPE   H9Y16892   6.194   5.754   7.568  0.0794 -1.3511  0.0306
  152SAPE  C31016893   6.372   5.767   7.689 -0.1148 -0.6808  0.3433
  152SAPE  H10X16894   6.305   5.761   7.777 -2.9842  2.6178 -1.3996
  152SAPE  H10Y16895   6.391   5.874   7.666  1.2087 -0.6741  1.3210
  152SAPE  C31116896   6.508   5.700   7.721  0.1919 -0.1995 -0.0571
  152SAPE  H11X16897   6.568   5.688   7.628 -1.5333 -0.9501 -1.1262
  152SAPE  H11Y16898   6.487   5.591   7.734  0.6348 -0.4841 -1.5007
  152SAPE  C31216899   6.594   5.756   7.835  0.0046 -0.0989 -0.0704
  152SAPE  H12X16900   6.638   5.854   7.807 -1.7223  1.0884  1.1701
  152SAPE  H12Y16901   6.673   5.678   7.846  0.8848  0.8808  0.7294
  152SAPE  C31316902   6.522   5.775   7.968  0.0515 -0.0623 -0.3373
  152SAPE  H13X16903   6.436   5.713   8.003 -1.0905  1.3939 -0.4528
  152SAPE  H13Y16904   6.473   5.875   7.966 -0.2196 -0.1768  0.1396
  152SAPE  C31416905   6.630   5.777   8.077  0.0635 -0.2990  0.4562
  152SAPE  H14X16906   6.697   5.862   8.054 -3.2090  2.3822 -0.0226
  152SAPE  H14Y16907   6.687   5.682   8.074  0.3065 -0.3245  3.1893
  152SAPE  C31516908   6.566   5.794   8.222 -0.2037 -0.2229  0.6529
  152SAPE  H15X16909   6.503   5.702   8.228  0.4430 -0.6944  0.3424
  152SAPE  H15Y16910   6.492   5.875   8.237 -3.0103 -2.0495 -2.1579
  152SAPE  C31616911   6.670   5.794   8.332 -0.6671  0.0077  0.0088
  152SAPE  H16X16912   6.729   5.889   8.329  0.0646 -0.0585  4.8421
  152SAPE  H16Y16913   6.738   5.707   8.320 -0.3963  0.1702  0.3583
  152SAPE  C31716914   6.605   5.782   8.471 -0.3528 -0.2338 -0.3378
  152SAPE  H17X16915   6.533   5.697   8.466 -1.3369  0.4412  1.3343
  152SAPE  H17Y16916   6.548   5.876   8.492  3.1200  1.5441  2.1123
  152SAPE  C31816917   6.702   5.764   8.585 -0.0954 -0.2356 -0.1033
  152SAPE  H18X16918   6.648   5.739   8.679 -0.1757  0.7274  0.1073
  152SAPE  H18Y16919   6.758   5.859   8.591 -1.4651  0.6023 -0.2591
  152SAPE  H18Z16920   6.776   5.682   8.568 -1.2607 -1.2083 -0.6594
  153SAPE     N16921   2.021   6.483   6.232 -0.3382  0.4101 -0.5288
  153SAPE   HN116922   2.107   6.453   6.281 -0.2374 -0.2505 -1.1046
  153SAPE   HN216923   2.017   6.458   6.131 -0.0024 -2.6674  0.1354
  153SAPE   HN316924   2.013   6.586   6.248 -2.2028  0.1959  0.2051
  153SAPE   C1216925   1.904   6.406   6.294 -0.1754  1.0739 -0.9509
  153SAPE  H12A16926   1.899   6.402   6.405 -0.5537  0.5167 -0.9866
  153SAPE  H12B16927   1.908   6.307   6.244 -0.9245  0.4826  0.1313
  153SAPE   C1116928   1.772   6.488   6.272  0.1162 -0.4804 -0.1626
  153SAPE  H11A16929   1.694   6.416   6.306  0.3555 -1.1024 -0.9086
  153SAPE  H11B16930   1.764   6.520   6.166  1.2928  2.5762  0.5608
  153SAPE     P16931   1.639   6.702   6.348 -0.2608  0.3350 -0.1381
  153SAPE   O1316932   1.640   6.797   6.237 -0.0964 -1.0011  0.6797
  153SAPE   O1416933   1.518   6.613   6.361 -0.6316  0.2346 -0.1281
  153SAPE   O1216934   1.765   6.612   6.341 -0.0341  0.4352 -0.5941
  153SAPE   O1116935   1.677   6.772   6.482 -0.0494  0.2180 -0.2011
  153SAPE    C116936   1.685   6.688   6.602  0.1498 -0.4716 -0.6814
  153SAPE    HA16937   1.645   6.587   6.583  0.5664 -0.5338 -1.2517
  153SAPE    HB16938   1.782   6.688   6.657  0.1343 -0.1193 -0.6496
  153SAPE    C216939   1.589   6.743   6.711  1.3030  0.1596 -0.2510
  153SAPE    HS16940   1.487   6.747   6.666  1.4386  1.4769 -0.4748
  153SAPE   O2116941   1.640   6.875   6.739  0.0189 -0.1617  0.2842
  153SAPE   C2116942   1.561   6.946   6.815  0.2759  0.1151  0.2099
  153SAPE   O2216943   1.447   6.915   6.846 -0.3988  0.1345 -0.3635
  153SAPE   C2216944   1.635   7.070   6.869 -0.2720  0.5905  0.0863
  153SAPE   H2R16945   1.684   7.040   6.964  0.3160  2.8355  0.5581
  153SAPE   H2S16946   1.720   7.095   6.802  0.0350  0.4480  0.4212
  153SAPE    C316947   1.582   6.645   6.836 -1.0692 -1.2642  0.2364
  153SAPE    HX16948   1.533   6.548   6.811 -0.2701 -1.7143  0.3666
  153SAPE    HY16949   1.512   6.692   6.908 -0.5940 -0.2493  0.0426
  153SAPE   O3116950   1.717   6.619   6.889 -0.2459  1.1463 -0.2604
  153SAPE   C3116951   1.754   6.703   6.984 -0.3320 -0.5188  0.2201
  153SAPE   O3216952   1.675   6.771   7.045 -0.4621  0.0392  0.6203
  153SAPE   C3216953   1.906   6.692   7.013  0.5564  0.6279  0.2167
  153SAPE   H2X16954   1.952   6.735   6.922  1.1469  3.3693  1.7204
  153SAPE   H2Y16955   1.915   6.581   7.022 -1.2399  0.5871  2.1087
  153SAPE   C2316956   1.541   7.192   6.885 -0.2318  0.0309 -0.1509
  153SAPE   H3R16957   1.446   7.164   6.937  0.3660 -0.5913  0.6180
  153SAPE   H3S16958   1.520   7.233   6.783  0.6929 -1.1373 -0.8318
  153SAPE   C2416959   1.610   7.312   6.959 -0.4041  0.0095  0.4563
  153SAPE   H4R16960   1.695   7.358   6.905  0.2905 -0.8638  0.7772
  153SAPE   H4S16961   1.654   7.264   7.049  0.6643  0.8578  0.4052
  153SAPE   C2516962   1.513   7.421   6.995 -0.3794 -0.3153 -0.2044
  153SAPE   H5R16963   1.435   7.451   6.924 -1.4155 -0.2490  0.9234
  153SAPE   C2616964   1.501   7.465   7.124 -0.2092  0.0011  0.1149
  153SAPE   H6R16965   1.435   7.550   7.146 -0.9345 -0.7991  1.1111
  153SAPE   C2716966   1.576   7.421   7.249  0.2444  0.1391 -0.1649
  153SAPE   H7R16967   1.640   7.509   7.271 -0.5728  0.3418  1.6862
  153SAPE   H7S16968   1.639   7.335   7.219  0.7122 -0.0310  1.2261
  153SAPE   C2816969   1.484   7.371   7.361  0.0555 -0.9780  0.2140
  153SAPE   H8R16970   1.411   7.293   7.336 -2.6588  0.7161  2.3766
  153SAPE   C2916971   1.486   7.395   7.496  0.1549 -0.1844  0.4163
  153SAPE   H9R16972   1.402   7.346   7.549 -0.3794 -2.0861 -1.9701
  153SAPE  C21016973   1.567   7.498   7.565 -0.5383  0.0161  0.6381
  153SAPE  H10R16974   1.653   7.533   7.503 -0.7549  1.1954  0.9807
  153SAPE  H10S16975   1.616   7.457   7.657  1.1828  0.4242 -0.0535
  153SAPE  C21116976   1.491   7.620   7.596  0.5645  0.3038  0.1496
  153SAPE  H11R16977   1.439   7.666   7.512  1.2039  1.5075  0.3990
  153SAPE  C21216978   1.469   7.667   7.721 -0.5024  0.1600  0.2217
  153SAPE  H12R16979   1.418   7.763   7.741  1.1071  0.9689  0.6199
  153SAPE  C21316980   1.529   7.622   7.850  0.3942  0.1074  0.4730
  153SAPE  H13R16981   1.585   7.526   7.835 -0.0998 -0.0646 -0.3230
  153SAPE  H13S16982   1.448   7.579   7.913  1.1432 -0.6860  0.9372
  153SAPE  C21416983   1.616   7.736   7.904  0.0427 -0.4515 -0.2613
  153SAPE  H14R16984   1.687   7.775   7.830 -1.9347  0.4707 -1.7521
  153SAPE  C21516985   1.609   7.809   8.016  0.0491  0.1824 -0.1696
  153SAPE  H15R16986   1.685   7.887   8.032 -1.6354  2.5643 -2.7500
  153SAPE  C21616987   1.523   7.789   8.142  0.0461 -0.1647 -0.2347
  153SAPE  H16R16988   1.469   7.885   8.157 -0.9872 -0.3792 -2.2616
  153SAPE  H16S16989   1.593   7.785   8.228 -0.3156 -0.8839  0.0311
  153SAPE  C21716990   1.422   7.679   8.163  0.3357 -0.4069  0.5716
  153SAPE  H17R16991   1.465   7.578   8.147 -0.2778 -0.8742  1.7636
  153SAPE  H17S16992   1.339   7.700   8.092 -0.1341 -0.3135  1.1418
  153SAPE  C21816993   1.350   7.674   8.302  0.0481 -0.1916 -0.7224
  153SAPE  H18R16994   1.424   7.660   8.384  0.3839  1.6887 -0.6658
  153SAPE  H18S16995   1.270   7.598   8.288  0.1929  0.1409 -4.0917
  153SAPE  C21916996   1.275   7.801   8.328 -0.9166  0.7544 -0.3622
  153SAPE  H19R16997   1.347   7.886   8.328  1.1150 -0.8896 -0.8588
  153SAPE  H19S16998   1.259   7.789   8.438  3.5956 -1.0301  0.3000
  153SAPE  C22016999   1.157   7.832   8.243 -0.5144 -0.4414  0.2583
  153SAPE  H20R17000   1.195   7.867   8.145  0.1295 -1.9794 -0.0573
  153SAPE  H20S17001   1.089   7.911   8.282 -0.3534  0.4571 -1.2227
  153SAPE  H20T17002   1.098   7.739   8.236 -0.9638 -0.0440 -1.7299
  153SAPE   C3317003   1.947   6.752   7.148 -0.7036 -0.4708  0.0817
  153SAPE   H3X17004   1.886   6.844   7.165  0.9376  1.1343 -2.1199
  153SAPE   H3Y17005   2.055   6.778   7.147 -0.3955 -1.6411 -1.7086
  153SAPE   C3417006   1.913   6.665   7.272 -0.2054  0.1665 -0.7866
  153SAPE   H4X17007   1.989   6.584   7.271 -0.0399  0.3214 -1.0011
  153SAPE   H4Y17008   1.811   6.621   7.282 -2.4302  4.7334 -0.9938
  153SAPE   C3517009   1.931   6.741   7.408  0.4929 -0.6018  1.1272
  153SAPE   H5X17010   1.853   6.820   7.419  0.8868 -0.4286  3.1461
  153SAPE   H5Y17011   2.029   6.793   7.397 -1.0870  2.4525  0.3389
  153SAPE   C3617012   1.936   6.660   7.535 -0.1111 -0.4607  0.4079
  153SAPE   H6X17013   2.011   6.578   7.532  0.9703  0.5004  0.3838
  153SAPE   H6Y17014   1.830   6.631   7.546 -0.9510  1.8179 -1.0642
  153SAPE   C3717015   1.966   6.742   7.657 -0.5851 -0.2325 -0.0511
  153SAPE   H7X17016   1.893   6.825   7.671 -0.2325  0.0157  0.3399
  153SAPE   H7Y17017   2.066   6.790   7.656 -1.5238  1.8048 -1.2841
  153SAPE   C3817018   1.964   6.661   7.789 -0.6642  0.2306  0.0266
  153SAPE   H8X17019   1.995   6.556   7.770 -2.8561 -0.6604  0.9972
  153SAPE   H8Y17020   1.865   6.659   7.840  1.1357 -0.5063  3.8821
  153SAPE   C3917021   2.056   6.717   7.891 -0.4742 -0.6183  0.2225
  153SAPE   H9X17022   2.029   6.817   7.931 -1.3861 -1.3781  1.5894
  153SAPE   H9Y17023   2.164   6.721   7.865 -0.1808 -0.0761  1.4653
  153SAPE  C31017024   2.060   6.622   8.014  0.5622 -0.1202  0.4937
  153SAPE  H10X17025   2.157   6.635   8.067  2.4479  0.6845 -2.8504
  153SAPE  H10Y17026   2.045   6.516   7.985 -0.4076  0.2402 -0.3911
  153SAPE  C31117027   1.961   6.662   8.122  0.8230 -0.0368  0.3607
  153SAPE  H11X17028   1.863   6.661   8.069  0.5072 -0.4856  0.9425
  153SAPE  H11Y17029   1.968   6.771   8.145 -0.5815 -0.0297  0.8762
  153SAPE  C31217030   1.958   6.576   8.244 -0.6650 -0.2790  0.4052
  153SAPE  H12X17031   1.939   6.471   8.212  0.6303 -0.6023  0.6077
  153SAPE  H12Y17032   1.875   6.608   8.309 -1.1046  2.0292 -1.1883
  153SAPE  C31317033   2.083   6.574   8.330 -0.1938  0.0236 -0.8296
  153SAPE  H13X17034   2.100   6.677   8.368 -1.1395 -0.8605  2.3549
  153SAPE  H13Y17035   2.166   6.543   8.264  0.2739  0.0086 -0.2418
  153SAPE  C31417036   2.080   6.489   8.451  0.0725  0.0456  0.0538
  153SAPE  H14X17037   2.032   6.393   8.423 -1.2202  0.4336  0.8428
  153SAPE  H14Y17038   2.009   6.531   8.526  1.2030  0.1409  1.1120
  153SAPE  C31517039   2.216   6.464   8.523 -0.3116 -0.5114 -0.0362
  153SAPE  H15X17040   2.262   6.565   8.529  1.4204 -1.1615 -1.5881
  153SAPE  H15Y17041   2.280   6.407   8.452 -0.0108  1.2011 -1.1842
  153SAPE  C31617042   2.212   6.396   8.664  0.1333  0.9024 -1.1272
  153SAPE  H16X17043   2.173   6.292   8.653  2.5519 -0.1767 -0.2016
  153SAPE  H16Y17044   2.162   6.463   8.737  1.3298 -0.8227  1.4630
  153SAPE  C31717045   2.353   6.366   8.720  0.3268  0.4905 -0.2876
  153SAPE  H17X17046   2.346   6.321   8.821 -1.5935 -1.7910 -1.3267
  153SAPE  H17Y17047   2.399   6.467   8.715 -1.2339  1.1666 -2.8119
  153SAPE  C31817048   2.437   6.271   8.639 -0.4469  0.2950 -0.0257
  153SAPE  H18X17049   2.441   6.294   8.530 -0.1099 -0.0598 -0.0897
  153SAPE  H18Y17050   2.406   6.166   8.659  0.2406  0.3485  1.4477
  153SAPE  H18Z17051   2.544   6.269   8.670  0.6848  2.1684 -3.2669
  154SAPE     N17052   1.311   6.329   6.107  0.4746  0.2866  0.0670
  154SAPE   HN117053   1.265   6.423   6.106 -1.3074 -0.5408 -1.3806
  154SAPE   HN217054   1.286   6.279   6.020 -1.7051  1.3626  0.0123
  154SAPE   HN317055   1.287   6.279   6.195  2.1060 -0.1213  0.3056
  154SAPE   C1217056   1.461   6.349   6.115  0.0878 -0.4826 -0.6293
  154SAPE  H12A17057   1.484   6.353   6.223 -1.8591 -1.0025 -0.1566
  154SAPE  H12B17058   1.488   6.449   6.074  0.6989  0.1019  1.1305
  154SAPE   C1117059   1.547   6.246   6.045  0.3045 -0.0331  0.1262
  154SAPE  H11A17060   1.655   6.257   6.073  0.1971  1.7095 -0.0302
  154SAPE  H11B17061   1.544   6.281   5.940  1.1153 -1.0412 -0.2422
  154SAPE     P17062   1.518   6.032   6.200 -0.2160 -0.4530 -0.2210
  154SAPE   O1317063   1.388   5.970   6.229  0.4940  0.0875 -0.8096
  154SAPE   O1417064   1.634   5.943   6.190  0.0550  0.4161  0.3166
  154SAPE   O1217065   1.506   6.112   6.060  0.1670 -0.6282 -0.2949
  154SAPE   O1117066   1.552   6.134   6.316  0.1176 -0.6005 -0.1292
  154SAPE    C117067   1.479   6.144   6.439  0.5990  0.4449 -0.0213
  154SAPE    HA17068   1.476   6.251   6.470  3.1734  0.3777  0.6691
  154SAPE    HB17069   1.373   6.117   6.421 -0.7590  4.6947  0.5333
  154SAPE    C217070   1.533   6.050   6.554  0.6054  0.4467  0.1947
  154SAPE    HS17071   1.485   6.071   6.651  0.0422 -3.7949  1.0097
  154SAPE   O2117072   1.667   6.081   6.568 -1.0450  0.3976  0.2157
  154SAPE   C2117073   1.692   6.191   6.638 -0.1555 -0.9283 -0.6583
  154SAPE   O2217074   1.614   6.256   6.707  0.3777  0.1140  0.3211
  154SAPE   C2217075   1.840   6.232   6.622 -0.3589  0.4658  0.3221
  154SAPE   H2R17076   1.901   6.150   6.666 -0.2823  1.1450  1.5258
  154SAPE   H2S17077   1.871   6.245   6.516  0.8269 -2.0638  0.2659
  154SAPE    C317078   1.515   5.900   6.519  0.0618 -0.0488 -0.3881
  154SAPE    HX17079   1.581   5.879   6.432 -1.6883  0.5607 -1.9306
  154SAPE    HY17080   1.409   5.892   6.485  0.2540  0.6164 -1.1882
  154SAPE   O3117081   1.548   5.823   6.636  0.1932  0.3527  0.3011
  154SAPE   C3117082   1.451   5.774   6.702 -0.4779 -0.5498 -0.4164
  154SAPE   O3217083   1.331   5.783   6.675 -0.3681 -0.1901  0.2931
  154SAPE   C3217084   1.509   5.687   6.816 -0.3746 -0.2226 -0.0711
  154SAPE   H2X17085   1.618   5.667   6.807 -0.2363  1.2954 -3.9213
  154SAPE   H2Y17086   1.456   5.589   6.820 -1.1635  0.2306  0.9223
  154SAPE   C2317087   1.866   6.363   6.706  0.5148  0.1787  0.1902
  154SAPE   H3R17088   1.816   6.386   6.803  0.4934  2.8328 -0.3601
  154SAPE   H3S17089   1.842   6.447   6.637  1.8772  0.4771  0.0561
  154SAPE   C2417090   2.012   6.381   6.746  0.6548 -0.3404 -0.6838
  154SAPE   H4R17091   2.022   6.334   6.846 -1.2390  2.1250  0.7941
  154SAPE   H4S17092   2.012   6.487   6.781 -0.7468 -0.8931  1.1813
  154SAPE   C2517093   2.107   6.341   6.645 -0.4624  0.2754  0.4442
  154SAPE   H5R17094   2.099   6.399   6.552 -2.9217 -0.9228 -0.1702
  154SAPE   C2617095   2.200   6.242   6.653 -0.8137 -0.6356  0.5257
  154SAPE   H6R17096   2.267   6.238   6.566 -1.8028  0.0705 -0.2826
  154SAPE   C2717097   2.222   6.163   6.780  0.9615  0.9595  0.2651
  154SAPE   H7R17098   2.123   6.138   6.824  0.5223  2.2473  0.0621
  154SAPE   H7S17099   2.262   6.223   6.863  0.3585  0.4612  0.9325
  154SAPE   C2817100   2.300   6.034   6.758 -0.6746  0.1935 -0.2248
  154SAPE   H8R17101   2.268   5.966   6.678  0.2720 -0.9791  0.3683
  154SAPE   C2917102   2.416   6.003   6.810  0.0666 -0.0132 -0.3851
  154SAPE   H9R17103   2.455   5.905   6.780 -1.6463 -0.3939 -1.4646
  154SAPE  C21017104   2.507   6.072   6.906 -0.1083  0.1280  0.2983
  154SAPE  H10R17105   2.457   6.169   6.928 -4.2915 -1.5768 -0.6604
  154SAPE  H10S17106   2.611   6.064   6.869 -0.1112 -0.6851  0.4491
  154SAPE  C21117107   2.519   6.001   7.040  1.1051 -0.3223  0.6292
  154SAPE  H11R17108   2.478   5.899   7.042 -1.3255  0.5011 -1.5882
  154SAPE  C21217109   2.566   6.068   7.151  0.5948  0.1141  0.4237
  154SAPE  H12R17110   2.587   6.011   7.242  0.6740  0.3551  0.5588
  154SAPE  C21317111   2.630   6.205   7.160 -0.2187 -0.0694  0.3727
  154SAPE  H13R17112   2.560   6.266   7.221  1.6568  1.4151  1.1315
  154SAPE  H13S17113   2.635   6.259   7.064 -0.3022 -0.7074  0.0016
  154SAPE  C21417114   2.761   6.202   7.232  0.1426  0.0493  0.1271
  154SAPE  H14R17115   2.844   6.163   7.171  0.7524 -0.4936  1.2576
  154SAPE  C21517116   2.788   6.250   7.355 -0.3009  0.0556  0.1346
  154SAPE  H15R17117   2.892   6.245   7.390 -0.7549 -0.1680  1.5113
  154SAPE  C21617118   2.691   6.309   7.461 -0.2924  0.7070 -0.0224
  154SAPE  H16R17119   2.604   6.241   7.472 -0.9303  1.3485 -0.9481
  154SAPE  H16S17120   2.655   6.411   7.436 -1.0563  0.8289  1.4733
  154SAPE  C21717121   2.759   6.320   7.600 -0.6965  0.0214 -0.4763
  154SAPE  H17R17122   2.817   6.230   7.631  2.8756  1.9248 -1.0385
  154SAPE  H17S17123   2.691   6.328   7.687  1.8657  0.8170  1.5936
  154SAPE  C21817124   2.838   6.446   7.624 -0.1680 -0.3960 -0.0133
  154SAPE  H18R17125   2.775   6.535   7.602 -1.2845 -0.5508  2.2745
  154SAPE  H18S17126   2.926   6.438   7.557 -0.6962  0.3939 -0.8343
  154SAPE  C21917127   2.884   6.470   7.766 -0.5865 -0.2589  0.1332
  154SAPE  H19R17128   2.954   6.394   7.807 -0.7108  0.3542  1.5193
  154SAPE  H19S17129   2.793   6.458   7.828 -1.9608 -0.7362 -1.8675
  154SAPE  C22017130   2.948   6.601   7.783  0.0282 -0.1188  0.0888
  154SAPE  H20R17131   2.890   6.683   7.735  1.5588  0.7408 -0.3632
  154SAPE  H20S17132   3.048   6.601   7.733 -0.5274  2.0057 -1.1570
  154SAPE  H20T17133   2.959   6.623   7.892 -0.9520 -3.5694  0.9912
  154SAPE   C3317134   1.489   5.761   6.949  0.0314  0.3434 -0.7147
  154SAPE   H3X17135   1.385   5.781   6.982  1.2520  1.2591  3.0321
  154SAPE   H3Y17136   1.540   5.860   6.947 -1.1063  0.9608  0.0740
  154SAPE   C3417137   1.544   5.691   7.071 -0.3024  0.2357  0.0157
  154SAPE   H4X17138   1.654   5.687   7.054 -0.6769 -0.2400 -2.6960
  154SAPE   H4Y17139   1.520   5.584   7.086  3.2021 -0.5967  0.5864
  154SAPE   C3517140   1.508   5.763   7.207 -0.4832  0.1891 -0.4622
  154SAPE   H5X17141   1.400   5.770   7.231 -0.3583  3.7479 -0.4327
  154SAPE   H5Y17142   1.551   5.866   7.209 -0.5315  0.1966  1.7145
  154SAPE   C3617143   1.583   5.684   7.318  0.5202 -0.1612 -0.0538
  154SAPE   H6X17144   1.694   5.684   7.312  0.5241  0.6692 -0.2218
  154SAPE   H6Y17145   1.543   5.581   7.312  1.0574 -0.4385  0.9831
  154SAPE   C3717146   1.556   5.730   7.466 -0.0981  0.9566 -0.1345
  154SAPE   H7X17147   1.449   5.720   7.494  0.1647  0.7768  0.8541
  154SAPE   H7Y17148   1.582   5.837   7.479  1.5331  0.8824 -2.0970
  154SAPE   C3817149   1.639   5.651   7.565  0.2133  0.5431 -0.3890
  154SAPE   H8X17150   1.748   5.664   7.547  0.5313 -2.3164 -0.9372
  154SAPE   H8Y17151   1.617   5.543   7.550 -0.2632  0.7279 -1.0284
  154SAPE   C3917152   1.621   5.689   7.714  0.5013  0.0465 -0.1877
  154SAPE   H9X17153   1.511   5.676   7.722  0.3141 -1.1885 -3.4317
  154SAPE   H9Y17154   1.652   5.794   7.732 -0.1662 -0.3921  4.7843
  154SAPE  C31017155   1.706   5.596   7.803 -0.4974  0.5863  0.3973
  154SAPE  H10X17156   1.810   5.633   7.792  0.0715 -1.4056 -1.3888
  154SAPE  H10Y17157   1.702   5.498   7.751  0.7812  0.2780  0.8432
  154SAPE  C31117158   1.651   5.579   7.948  0.2586 -0.3378  0.4176
  154SAPE  H11X17159   1.661   5.671   8.010 -1.3683  0.4909 -0.4849
  154SAPE  H11Y17160   1.705   5.496   7.998  1.3522  0.0611 -0.0733
  154SAPE  C31217161   1.501   5.528   7.956 -0.3899  0.7036  0.4235
  154SAPE  H12X17162   1.494   5.436   7.895  0.6852 -0.1227  1.5107
  154SAPE  H12Y17163   1.440   5.605   7.904 -0.4532  0.3820  0.0193
  154SAPE  C31317164   1.463   5.498   8.101 -0.2097  0.2879  0.5260
  154SAPE  H13X17165   1.455   5.592   8.159  0.7108  0.5680  0.2135
  154SAPE  H13Y17166   1.548   5.439   8.142  0.3362  1.4931  1.1732
  154SAPE  C31417167   1.344   5.401   8.118  0.1938  0.2018 -0.1508
  154SAPE  H14X17168   1.384   5.297   8.118 -1.1799 -0.4040 -2.5302
  154SAPE  H14Y17169   1.276   5.413   8.031 -0.7554 -1.1972  0.3657
  154SAPE  C31517170   1.288   5.421   8.263 -0.1891  0.7883  0.2737
  154SAPE  H15X17171   1.221   5.509   8.257 -2.4380 -0.8604 -0.2246
  154SAPE  H15Y17172   1.371   5.427   8.337  1.1825 -3.0789 -0.7153
  154SAPE  C31617173   1.217   5.297   8.328 -0.0452 -0.1765  0.0733
  154SAPE  H16X17174   1.192   5.313   8.435  1.6041 -0.6745  0.5632
  154SAPE  H16Y17175   1.298   5.221   8.338 -0.5320 -0.5550  1.4045
  154SAPE  C31717176   1.097   5.249   8.247  0.5007 -0.3066  0.1353
  154SAPE  H17X17177   1.123   5.247   8.139  1.3226 -0.2315  0.3243
  154SAPE  H17Y17178   1.026   5.333   8.265  1.1708  0.0102  1.4032
  154SAPE  C31817179   1.050   5.120   8.293  0.8565 -0.2402 -0.0271
  154SAPE  H18X17180   1.129   5.072   8.354  0.2492  1.6938  2.4526
  154SAPE  H18Y17181   1.034   5.063   8.199 -1.3594  3.9139 -2.4570
  154SAPE  H18Z17182   0.957   5.130   8.352  0.7832 -1.9233  0.1790
  155SAPE     N17183   0.961   0.549   6.264 -0.5434  0.0993 -0.2434
  155SAPE   HN117184   0.940   0.490   6.181 -2.3529  2.4736 -1.5964
  155SAPE   HN217185   0.892   0.627   6.268  0.0147  0.5898  0.1748
  155SAPE   HN317186   1.056   0.592   6.255 -0.8228  0.9858  0.8222
  155SAPE   C1217187   0.961   0.470   6.397 -0.0079 -0.5232  0.5162
  155SAPE  H12A17188   0.856   0.479   6.433 -0.5445  3.1994 -1.5202
  155SAPE  H12B17189   1.042   0.514   6.459  0.3620 -0.6166  0.1004
  155SAPE   C1117190   0.997   0.321   6.382  0.7247  0.3034 -0.3709
  155SAPE  H11A17191   1.005   0.280   6.485 -0.7902  0.6412 -0.0905
  155SAPE  H11B17192   1.090   0.302   6.324  0.0803 -1.4251 -0.9070
  155SAPE     P17193   0.870   0.108   6.281  0.0117 -0.3549 -0.5220
  155SAPE   O1317194   0.796   0.105   6.153 -0.0318 -0.3971  0.2006
  155SAPE   O1417195   1.002   0.042   6.287 -0.0727  0.3542 -0.2062
  155SAPE   O1217196   0.885   0.262   6.319  0.6213  1.0367 -0.2368
  155SAPE   O1117197   0.768   0.053   6.388 -0.1449  0.2204  0.1698
  155SAPE    C117198   0.635   0.101   6.403 -0.8597 -0.1877 -0.0728
  155SAPE    HA17199   0.577   0.126   6.311 -2.6278  0.9145  1.2726
  155SAPE    HB17200   0.570   0.023   6.449 -0.2176 -2.1887 -2.3246
  155SAPE    C217201   0.632   0.223   6.498  0.6069  0.0233 -0.5115
  155SAPE    HS17202   0.679   0.310   6.447  1.8509 -0.7237 -0.6723
  155SAPE   O2117203   0.695   0.182   6.617  0.1223 -0.3767  0.0625
  155SAPE   C2117204   0.773   0.259   6.679 -0.7235 -0.2147 -0.1571
  155SAPE   O2217205   0.805   0.375   6.651  0.1230  0.1100 -0.0736
  155SAPE   C2217206   0.822   0.185   6.807 -0.1667  0.4997 -0.3542
  155SAPE   H2R17207   0.737   0.131   6.855  1.1116 -0.6846  0.6421
  155SAPE   H2S17208   0.885   0.104   6.764  0.5455  0.4657  0.7397
  155SAPE    C317209   0.484   0.259   6.526  0.4831 -0.6005  0.6121
  155SAPE    HX17210   0.436   0.164   6.558 -1.3956 -0.6052 -1.9723
  155SAPE    HY17211   0.429   0.295   6.437  0.9514 -0.6678  0.2882
  155SAPE   O3117212   0.474   0.351   6.637  0.2059 -0.1300  0.0445
  155SAPE   C3117213   0.460   0.482   6.612 -0.5304 -0.4509 -0.4008
  155SAPE   O3217214   0.490   0.528   6.502 -0.1657  0.0766  0.3755
  155SAPE   C3217215   0.398   0.559   6.726 -0.1619  0.1119  0.5878
  155SAPE   H2X17216   0.291   0.586   6.712  0.3670  1.6101 -0.9484
  155SAPE   H2Y17217   0.453   0.656   6.730 -0.3947  0.3110 -0.6865
  155SAPE   C2317218   0.890   0.273   6.904  0.0696  0.5863  0.3034
  155SAPE   H3R17219   0.806   0.335   6.943 -0.4565 -0.0604  0.2188
  155SAPE   H3S17220   0.954   0.348   6.853 -0.5971  0.4290 -0.7945
  155SAPE   C2417221   0.976   0.200   7.010 -0.2311 -0.0333 -0.2020
  155SAPE   H4R17222   1.051   0.268   7.057  2.2607 -2.2967 -0.7030
  155SAPE   H4S17223   1.054   0.141   6.958  0.5364  0.2229  0.6213
  155SAPE   C2517224   0.881   0.117   7.097 -0.1751 -0.5410 -0.3364
  155SAPE   H5R17225   0.823   0.042   7.042 -0.9346  0.7500 -1.3445
  155SAPE   C2617226   0.875   0.123   7.231  0.4725  0.5919  0.0488
  155SAPE   H6R17227   0.801   0.057   7.279  3.2614 -1.3914  1.9292
  155SAPE   C2717228   0.953   0.210   7.329 -0.0926  0.8304  0.0806
  155SAPE   H7R17229   0.885   0.285   7.374 -0.6642  1.0079 -1.0308
  155SAPE   H7S17230   1.036   0.274   7.289 -0.0014  1.5528  1.3834
  155SAPE   C2817231   0.988   0.119   7.437 -0.6212  0.3871 -0.6553
  155SAPE   H8R17232   0.911   0.053   7.479  1.1561 -2.2994 -1.3459
  155SAPE   C2917233   1.117   0.094   7.478  0.3396  0.3828 -0.7514
  155SAPE   H9R17234   1.135   0.035   7.569  0.1993  0.0729 -0.9193
  155SAPE  C21017235   1.236   0.155   7.408 -0.8225 -0.2093 -0.7127
  155SAPE  H10R17236   1.325   0.154   7.475 -1.2623  3.9837  0.2077
  155SAPE  H10S17237   1.230   0.264   7.386  0.6317  0.2813  1.0505
  155SAPE  C21117238   1.264   0.083   7.278  0.8750 -0.1942  0.2242
  155SAPE  H11R17239   1.176   0.042   7.226 -0.9080  1.3558  1.8390
  155SAPE  C21217240   1.382   0.079   7.219  0.5366 -0.0537  0.5315
  155SAPE  H12R17241   1.391   0.026   7.122  3.0145 -3.0899  2.2393
  155SAPE  C21317242   1.511   0.125   7.280  0.8782  0.8616 -0.2008
  155SAPE  H13R17243   1.495   0.220   7.335 -0.3251  0.0576  0.8615
  155SAPE  H13S17244   1.572   0.158   7.192 -0.0878 -0.1766 -1.2972
  155SAPE  C21417245   1.582   0.017   7.353 -0.4459  0.3146  0.1829
  155SAPE  H14R17246   1.607  -0.081   7.309 -0.2337  1.5893 -2.7783
  155SAPE  C21517247   1.605   0.029   7.492 -0.3802 -0.0747 -0.3262
  155SAPE  H15R17248   1.650  -0.057   7.544  0.2223 -0.3760 -1.3226
  155SAPE  C21617249   1.566   0.146   7.583 -0.8084  0.3644 -0.3216
  155SAPE  H16R17250   1.499   0.222   7.537 -0.3334  0.3416 -1.0599
  155SAPE  H16S17251   1.657   0.201   7.614 -1.4745  0.5336  1.4696
  155SAPE  C21717252   1.504   0.106   7.722  0.4111  0.2918 -0.2526
  155SAPE  H17R17253   1.572   0.050   7.788 -2.0882 -2.4872  0.1933
  155SAPE  H17S17254   1.416   0.042   7.699 -0.9634  2.3893 -1.1812
  155SAPE  C21817255   1.468   0.230   7.812  0.4831  0.6520  0.2247
  155SAPE  H18R17256   1.456   0.319   7.747  1.9302  1.8086  1.4362
  155SAPE  H18S17257   1.557   0.259   7.873  0.1207 -1.0218  1.6131
  155SAPE  C21917258   1.340   0.213   7.897  0.5682  0.2808 -0.3251
  155SAPE  H19R17259   1.346   0.122   7.962  1.2729  0.0695 -0.6810
  155SAPE  H19S17260   1.251   0.196   7.832  0.3860 -0.5951  0.1271
  155SAPE  C22017261   1.322   0.337   7.983  0.0219  0.5377 -0.1523
  155SAPE  H20R17262   1.319   0.430   7.922  1.3713  0.4355 -0.4118
  155SAPE  H20S17263   1.407   0.345   8.053  0.2778 -4.4102  0.4959
  155SAPE  H20T17264   1.230   0.315   8.042  0.2794 -1.1368 -0.3327
  155SAPE   C3317265   0.407   0.483   6.860  0.0707 -0.7717  0.1199
  155SAPE   H3X17266   0.375   0.377   6.866 -1.5870 -0.2195  1.9101
  155SAPE   H3Y17267   0.335   0.538   6.924 -0.1102 -1.6161  0.6557
  155SAPE   C3417268   0.535   0.509   6.930 -0.6288  0.2766 -0.2457
  155SAPE   H4X17269   0.555   0.618   6.930 -1.1699  0.4197  2.1273
  155SAPE   H4Y17270   0.623   0.470   6.874  2.1099  1.6425  2.8056
  155SAPE   C3517271   0.553   0.458   7.072 -0.0780  0.1258 -0.6500
  155SAPE   H5X17272   0.664   0.453   7.083  0.1178  1.3559 -1.7944
  155SAPE   H5Y17273   0.510   0.356   7.086  1.0972 -0.1619  1.4105
  155SAPE   C3617274   0.503   0.555   7.179  0.3356  0.5843  0.1834
  155SAPE   H6X17275   0.395   0.576   7.163  0.5195  0.4826 -1.3635
  155SAPE   H6Y17276   0.549   0.657   7.178 -0.4638  0.9520 -0.0141
  155SAPE   C3717277   0.533   0.499   7.315 -0.0818 -0.3860  0.8943
  155SAPE   H7X17278   0.643   0.497   7.327  0.0525  0.3301 -0.1383
  155SAPE   H7Y17279   0.492   0.396   7.326 -1.5680  0.3437  2.7613
  155SAPE   C3817280   0.472   0.577   7.435  0.2886  0.2887  0.8557
  155SAPE   H8X17281   0.361   0.584   7.422  0.2531 -0.7238  0.5172
  155SAPE   H8Y17282   0.523   0.675   7.429 -1.4227  1.1656 -0.3093
  155SAPE   C3917283   0.505   0.513   7.574 -0.0846  0.0697 -0.0785
  155SAPE   H9X17284   0.613   0.499   7.595 -0.5221 -1.0109  1.6540
  155SAPE   H9Y17285   0.453   0.417   7.597 -0.8793  0.5771  0.2879
  155SAPE  C31017286   0.450   0.594   7.699  0.3656  0.4264 -0.4213
  155SAPE  H10X17287   0.340   0.611   7.691  0.6245  2.5237 -0.1360
  155SAPE  H10Y17288   0.494   0.695   7.714 -0.5165  1.0041 -1.5445
  155SAPE  C31117289   0.473   0.519   7.826  0.1225  0.2971 -0.4572
  155SAPE  H11X17290   0.583   0.511   7.835  0.0570 -2.0498 -1.0886
  155SAPE  H11Y17291   0.428   0.417   7.831  1.9462 -0.4995  0.4954
  155SAPE  C31217292   0.414   0.594   7.948 -0.0681 -0.6026  0.2258
  155SAPE  H12X17293   0.304   0.581   7.954 -0.5434  1.3417 -2.5461
  155SAPE  H12Y17294   0.432   0.702   7.928  2.7120 -1.4861 -3.0087
  155SAPE  C31317295   0.492   0.566   8.074 -0.1537 -0.2330 -0.8739
  155SAPE  H13X17296   0.589   0.618   8.062  0.8525 -1.7081  0.3859
  155SAPE  H13Y17297   0.525   0.460   8.084  0.3086 -0.0457 -0.3403
  155SAPE  C31417298   0.424   0.629   8.197 -0.1164  0.4872  0.2439
  155SAPE  H14X17299   0.323   0.585   8.209  0.2581 -0.9916 -1.5881
  155SAPE  H14Y17300   0.411   0.736   8.170  1.0497  0.6707  0.3588
  155SAPE  C31517301   0.501   0.608   8.325  0.9571  0.1773 -0.2253
  155SAPE  H15X17302   0.595   0.667   8.322  0.3665  1.4072  2.3830
  155SAPE  H15Y17303   0.531   0.502   8.336 -0.5212 -0.1629  0.8802
  155SAPE  C31617304   0.419   0.653   8.449  0.2148  0.4066  0.3468
  155SAPE  H16X17305   0.377   0.753   8.424  3.2788  1.5944 -0.4700
  155SAPE  H16Y17306   0.482   0.685   8.535 -1.2821  1.8742  0.9567
  155SAPE  C31717307   0.304   0.555   8.484  0.8013  0.4978  0.4643
  155SAPE  H17X17308   0.340   0.451   8.499 -1.4991 -0.8449 -2.3105
  155SAPE  H17Y17309   0.249   0.538   8.389 -0.8370 -0.2959  1.5102
  155SAPE  C31817310   0.218   0.607   8.591 -0.3188 -0.4958  0.2825
  155SAPE  H18X17311   0.277   0.611   8.684  1.5767 -0.4718 -0.8737
  155SAPE  H18Y17312   0.137   0.535   8.616  0.9635 -2.3103 -0.5730
  155SAPE  H18Z17313   0.176   0.700   8.548  2.1041  1.2433  1.5014
  156SAPE     N17314   5.650   0.273   6.143 -0.3679  0.0126 -0.3438
  156SAPE   HN117315   5.736   0.283   6.085 -0.4162 -1.1416 -0.6516
  156SAPE   HN217316   5.655   0.267   6.247  1.0931  0.6133 -0.3514
  156SAPE   HN317317   5.610   0.181   6.117  1.7749 -0.9117 -0.6279
  156SAPE   C1217318   5.554   0.380   6.111 -1.1033  0.4566  0.7372
  156SAPE  H12A17319   5.451   0.366   6.149 -1.5737  3.2712  0.7121
  156SAPE  H12B17320   5.554   0.390   6.001 -0.9029  0.4760  0.7376
  156SAPE   C1117321   5.599   0.520   6.165  0.4502 -0.2210  0.1367
  156SAPE  H11A17322   5.523   0.589   6.125  0.9794 -0.7923 -1.9811
  156SAPE  H11B17323   5.697   0.557   6.127 -0.5719  3.7816  0.9386
  156SAPE     P17324   5.564   0.621   6.400  0.1169 -0.0700 -0.2995
  156SAPE   O1317325   5.662   0.726   6.357 -0.1200 -0.1757 -0.3437
  156SAPE   O1417326   5.426   0.649   6.378  0.1813 -0.2371 -0.1442
  156SAPE   O1217327   5.596   0.501   6.305  0.1052 -0.3769 -0.4852
  156SAPE   O1117328   5.595   0.577   6.549  0.2358 -0.1859 -0.3226
  156SAPE    C117329   5.619   0.446   6.595 -0.0970 -0.0873  1.2509
  156SAPE    HA17330   5.519   0.406   6.620 -0.6865 -0.2089 -1.0568
  156SAPE    HB17331   5.656   0.386   6.509 -0.6322  2.3715 -0.8124
  156SAPE    C217332   5.722   0.439   6.714  0.1052  0.5992  0.0894
  156SAPE    HS17333   5.818   0.422   6.661 -0.7814 -0.5400 -1.2377
  156SAPE   O2117334   5.678   0.328   6.800 -0.2081 -0.3617 -0.2044
  156SAPE   C2117335   5.733   0.215   6.773 -0.0331 -0.3569  0.0062
  156SAPE   O2217336   5.806   0.199   6.678  0.2054  0.1375 -0.4075
  156SAPE   C2217337   5.698   0.124   6.886 -0.9900  0.3449 -0.0008
  156SAPE   H2R17338   5.613   0.165   6.945  0.5482  1.3128  1.6404
  156SAPE   H2S17339   5.670   0.029   6.836  1.5962 -1.1082  1.0600
  156SAPE    C317340   5.727   0.576   6.787 -0.1866  0.9049  0.0146
  156SAPE    HX17341   5.625   0.605   6.820 -0.2335 -1.7883  2.7183
  156SAPE    HY17342   5.763   0.639   6.704 -0.7018 -0.7227 -1.5029
  156SAPE   O3117343   5.815   0.579   6.904  0.0066  0.3432 -0.6344
  156SAPE   C3117344   5.938   0.563   6.878 -0.8897 -0.4340  1.0712
  156SAPE   O3217345   5.991   0.556   6.766 -0.1793  0.2039 -0.0659
  156SAPE   C3217346   6.028   0.595   7.002  0.2656  0.1231  0.7377
  156SAPE   H2X17347   6.131   0.556   6.987  0.6248 -0.2412  3.5637
  156SAPE   H2Y17348   5.984   0.534   7.084  1.6131 -1.3978  0.4033
  156SAPE   C2317349   5.817   0.100   6.970 -0.6236 -0.4477  0.1027
  156SAPE   H3R17350   5.897   0.056   6.907  2.0771  1.6342  1.8605
  156SAPE   H3S17351   5.794   0.023   7.047 -1.3494  1.5863  2.0269
  156SAPE   C2417352   5.866   0.225   7.045 -0.3739  0.0972 -0.0140
  156SAPE   H4R17353   5.773   0.278   7.071 -0.0107  1.7130 -1.7523
  156SAPE   H4S17354   5.915   0.301   6.979 -1.6793  2.8975  2.0369
  156SAPE   C2517355   5.958   0.206   7.167 -0.1386 -0.2827 -0.3351
  156SAPE   H5R17356   6.056   0.158   7.152  1.6028  2.6366  0.8647
  156SAPE   C2617357   5.923   0.228   7.294  0.0167 -0.5265  0.2595
  156SAPE   H6R17358   5.994   0.201   7.374  1.1272  0.7291 -0.2619
  156SAPE   C2717359   5.792   0.288   7.347  0.1203 -0.6583 -0.0529
  156SAPE   H7R17360   5.771   0.235   7.442 -0.9624  0.8275  0.5741
  156SAPE   H7S17361   5.706   0.262   7.281 -1.2733  2.7818  0.1724
  156SAPE   C2817362   5.799   0.440   7.366 -0.3687  0.5631  0.4170
  156SAPE   H8R17363   5.760   0.491   7.277 -1.4665 -0.9253  0.0115
  156SAPE   C2917364   5.822   0.496   7.488 -0.2869  0.3763 -0.1397
  156SAPE   H9R17365   5.835   0.605   7.495  3.5374  0.2325 -2.6674
  156SAPE  C21017366   5.861   0.423   7.623 -0.1199  0.2714  0.0964
  156SAPE  H10R17367   5.916   0.492   7.691 -1.9031  0.2224  1.6415
  156SAPE  H10S17368   5.935   0.343   7.601  0.8121  1.8456 -3.1453
  156SAPE  C21117369   5.746   0.368   7.705 -0.2740 -0.0587 -0.1689
  156SAPE  H11R17370   5.699   0.273   7.677 -0.1193 -0.0588 -0.4282
  156SAPE  C21217371   5.681   0.430   7.808 -0.0559  0.4925 -0.1543
  156SAPE  H12R17372   5.592   0.385   7.855  0.2784 -1.5106 -1.3299
  156SAPE  C21317373   5.725   0.566   7.853 -0.6162  1.0017 -1.0214
  156SAPE  H13R17374   5.632   0.619   7.883 -2.0445 -0.5895 -2.4559
  156SAPE  H13S17375   5.767   0.636   7.777  1.7352  1.0642  0.2433
  156SAPE  C21417376   5.809   0.542   7.977  0.0535  0.4847  0.0302
  156SAPE  H14R17377   5.894   0.474   7.961  0.0338  0.2048  1.0283
  156SAPE  C21517378   5.785   0.592   8.101  0.2784  0.5061 -0.3082
  156SAPE  H15R17379   5.857   0.553   8.176  0.6714 -1.6596 -1.7300
  156SAPE  C21617380   5.670   0.678   8.152 -0.1073  0.3479  0.2334
  156SAPE  H16R17381   5.581   0.632   8.104  0.8913  0.3636 -1.7429
  156SAPE  H16S17382   5.678   0.779   8.107  1.7432 -0.1038 -0.5375
  156SAPE  C21717383   5.654   0.684   8.303  0.4829  0.7397  0.7025
  156SAPE  H17R17384   5.737   0.740   8.351 -0.1603  1.8926  0.5029
  156SAPE  H17S17385   5.655   0.580   8.342  2.2838  0.0413 -1.0449
  156SAPE  C21817386   5.521   0.750   8.340  0.2824 -0.6214 -0.1569
  156SAPE  H18R17387   5.437   0.715   8.277  0.7245 -1.3472 -0.3569
  156SAPE  H18S17388   5.539   0.859   8.335  0.4945 -0.5278  1.7828
  156SAPE  C21917389   5.486   0.721   8.487  0.3230 -0.4458  0.2725
  156SAPE  H19R17390   5.574   0.758   8.544 -0.1826  0.2769  0.6058
  156SAPE  H19S17391   5.469   0.612   8.501  1.5551 -0.5840  0.7948
  156SAPE  C22017392   5.362   0.800   8.528  0.4326 -0.2101  0.3581
  156SAPE  H20R17393   5.328   0.760   8.626  1.1654  0.0595  0.7306
  156SAPE  H20S17394   5.282   0.800   8.451 -0.7464 -1.0565  1.5377
  156SAPE  H20T17395   5.391   0.906   8.545  0.1445 -0.2242  0.9771
  156SAPE   C3317396   6.037   0.747   7.029 -0.0670 -0.0420  0.3947
  156SAPE   H3X17397   5.937   0.795   7.035 -0.0992  0.2814 -1.8909
  156SAPE   H3Y17398   6.093   0.786   6.942 -0.3623 -1.0535 -0.2705
  156SAPE   C3417399   6.117   0.777   7.159  0.0846  0.4714 -0.5654
  156SAPE   H4X17400   6.147   0.883   7.150  1.0924  0.2971  0.3507
  156SAPE   H4Y17401   6.212   0.718   7.156 -1.1101 -1.7743  1.3515
  156SAPE   C3517402   6.052   0.743   7.287  0.3820  0.8596 -0.2465
  156SAPE   H5X17403   6.030   0.634   7.293 -1.7542  1.1725 -1.3978
  156SAPE   H5Y17404   5.953   0.792   7.280  0.5032  1.0310 -0.7554
  156SAPE   C3617405   6.127   0.787   7.420  0.6719 -0.1558 -0.5150
  156SAPE   H6X17406   6.139   0.898   7.419 -4.4347  0.6574 -0.0353
  156SAPE   H6Y17407   6.228   0.741   7.427  0.6876 -0.3336 -1.7509
  156SAPE   C3717408   6.053   0.745   7.550 -0.0238 -0.7528 -0.0071
  156SAPE   H7X17409   6.052   0.635   7.561  0.6922 -0.6305  1.5040
  156SAPE   H7Y17410   5.953   0.792   7.549 -1.1301 -2.9188 -2.0059
  156SAPE   C3817411   6.128   0.808   7.675 -0.1771 -0.1452  0.3503
  156SAPE   H8X17412   6.109   0.917   7.671  0.6139 -0.0129 -3.7257
  156SAPE   H8Y17413   6.237   0.792   7.661 -0.8369 -3.2673 -2.5197
  156SAPE   C3917414   6.068   0.753   7.801 -0.8376 -0.2023 -0.1778
  156SAPE   H9X17415   6.091   0.645   7.800 -0.3878 -0.1074 -0.2276
  156SAPE   H9Y17416   5.958   0.755   7.815 -0.6757  0.7083  1.2165
  156SAPE  C31017417   6.139   0.825   7.915 -0.0792 -0.1532 -0.3212
  156SAPE  H10X17418   6.152   0.933   7.897  2.2517 -0.3326  0.0000
  156SAPE  H10Y17419   6.242   0.786   7.928  0.4647  1.5499  0.7454
  156SAPE  C31117420   6.051   0.813   8.037 -0.4487 -0.4989  0.4744
  156SAPE  H11X17421   6.032   0.704   8.042  0.3591 -0.6988 -0.4267
  156SAPE  H11Y17422   5.958   0.872   8.025  1.0201  1.8147 -0.3543
  156SAPE  C31217423   6.128   0.866   8.156 -0.0881  0.2870  0.2178
  156SAPE  H12X17424   6.168   0.965   8.128 -0.2742  0.7136  1.4145
  156SAPE  H12Y17425   6.205   0.789   8.177 -1.3726 -1.4830 -1.1643
  156SAPE  C31317426   6.036   0.880   8.290 -0.4402 -0.3136  0.2501
  156SAPE  H13X17427   5.993   0.779   8.307 -0.3351 -1.1036 -3.3075
  156SAPE  H13Y17428   5.953   0.950   8.265 -0.7645 -0.8170 -0.1178
  156SAPE  C31417429   6.120   0.941   8.404 -0.4866 -0.1577  0.0017
  156SAPE  H14X17430   6.145   1.049   8.400 -0.6307 -0.1543 -1.4379
  156SAPE  H14Y17431   6.222   0.899   8.409  0.0110  1.1014  0.9084
  156SAPE  C31517432   6.049   0.920   8.540 -0.0964  0.4345  0.7638
  156SAPE  H15X17433   6.123   0.945   8.619  0.2106  3.1277 -0.2747
  156SAPE  H15Y17434   6.033   0.810   8.541 -1.2050  0.5333 -1.1369
  156SAPE  C31617435   5.926   1.004   8.548  0.3489 -0.8296 -0.0761
  156SAPE  H16X17436   5.880   1.017   8.447  2.2420  3.7678 -0.6230
  156SAPE  H16Y17437   5.964   1.107   8.567  1.4091 -1.1186 -0.5423
  156SAPE  C31717438   5.824   0.959   8.654  0.5438  0.1486  0.4198
  156SAPE  H17X17439   5.867   0.972   8.756  0.5194  1.6543  0.2695
  156SAPE  H17Y17440   5.814   0.849   8.648  1.8041  0.0905 -2.6488
  156SAPE  C31817441   5.683   1.013   8.633  0.7722  0.0925 -0.2407
  156SAPE  H18X17442   5.660   1.007   8.525  0.4529  0.2402 -0.1818
  156SAPE  H18Y17443   5.675   1.118   8.671  0.1002 -0.8709  2.5373
  156SAPE  H18Z17444   5.606   0.948   8.679  2.0387  0.0783  2.0063
  157SAPE     N17445   3.334   2.470   6.335 -0.1444  0.5670  0.0115
  157SAPE   HN117446   3.283   2.550   6.377 -0.2878  1.3617 -1.6168
  157SAPE   HN217447   3.418   2.518   6.296 -0.1638  0.5699 -0.0260
  157SAPE   HN317448   3.271   2.435   6.260 -0.4500 -0.3423  0.6770
  157SAPE   C1217449   3.364   2.358   6.423 -0.0165 -0.1364 -0.7044
  157SAPE  H12A17450   3.263   2.322   6.450 -0.4097  2.1171  1.1584
  157SAPE  H12B17451   3.404   2.398   6.520 -1.1205  0.5883 -0.5331
  157SAPE   C1117452   3.441   2.241   6.349 -0.0965 -0.2263 -0.6806
  157SAPE  H11A17453   3.367   2.195   6.280 -1.7977  3.1545 -1.3005
  157SAPE  H11B17454   3.468   2.169   6.429 -3.9076 -1.2263 -0.1172
  157SAPE     P17455   3.702   2.250   6.285  0.4312 -0.2037 -0.5779
  157SAPE   O1317456   3.737   2.107   6.266  0.7116  0.4393 -0.4157
  157SAPE   O1417457   3.767   2.340   6.187  0.1826 -0.8567 -0.3024
  157SAPE   O1217458   3.548   2.277   6.268 -0.6127  0.1824  1.1875
  157SAPE   O1117459   3.730   2.295   6.435 -0.1977  0.3496  0.3601
  157SAPE    C117460   3.845   2.276   6.511 -0.1742  0.0937 -0.3061
  157SAPE    HA17461   3.928   2.230   6.453 -0.8060  0.1291 -1.2581
  157SAPE    HB17462   3.882   2.375   6.546 -5.1208  1.9422  0.4762
  157SAPE    C217463   3.813   2.179   6.623 -0.3990  0.7406 -0.4894
  157SAPE    HS17464   3.777   2.082   6.582 -1.0367  0.7412  0.0402
  157SAPE   O2117465   3.719   2.250   6.701  0.1282  0.4138  0.2598
  157SAPE   C2117466   3.622   2.166   6.761 -0.6593  0.1056  0.3020
  157SAPE   O2217467   3.615   2.050   6.751 -0.8610  0.2100  0.0828
  157SAPE   C2217468   3.529   2.255   6.833  0.1732 -0.2150  0.6907
  157SAPE   H2R17469   3.561   2.361   6.835  1.0446 -0.4646  0.4585
  157SAPE   H2S17470   3.440   2.265   6.766  0.8986 -2.7325 -0.8050
  157SAPE    C317471   3.945   2.156   6.714  0.2214  0.2376 -0.2551
  157SAPE    HX17472   3.987   2.251   6.755  0.6769 -1.6084  4.1295
  157SAPE    HY17473   4.022   2.117   6.644 -2.6033 -2.8909 -1.8920
  157SAPE   O3117474   3.922   2.061   6.825  0.0437  0.7370 -0.2696
  157SAPE   C3117475   3.920   1.930   6.797 -0.3443  0.4507  0.0345
  157SAPE   O3217476   3.938   1.885   6.685 -0.5493  0.4077  0.2523
  157SAPE   C3217477   3.894   1.855   6.919  0.3396 -0.3142  0.0367
  157SAPE   H2X17478   3.968   1.778   6.950  0.3412  0.2189  1.4212
  157SAPE   H2Y17479   3.804   1.792   6.898 -0.6225  1.3348 -1.0495
  157SAPE   C2317480   3.482   2.209   6.969  0.3283  0.2302 -0.2634
  157SAPE   H3R17481   3.420   2.295   7.001  0.9024  1.1270 -1.4725
  157SAPE   H3S17482   3.568   2.204   7.040 -1.6771 -1.2722  2.2337
  157SAPE   C2417483   3.395   2.082   6.976 -0.0207 -0.1523 -0.3453
  157SAPE   H4R17484   3.358   2.075   7.080  0.6955  1.1341  0.0188
  157SAPE   H4S17485   3.459   1.993   6.959  3.3122  1.7001  1.2830
  157SAPE   C2517486   3.274   2.096   6.891  0.1565 -0.4588  0.7057
  157SAPE   H5R17487   3.277   2.063   6.786 -1.1161 -1.3215  0.9168
  157SAPE   C2617488   3.148   2.115   6.940 -0.2713 -0.4695  0.1703
  157SAPE   H6R17489   3.065   2.122   6.868 -1.0159 -1.7131  0.8718
  157SAPE   C2717490   3.103   2.139   7.086  0.4008 -0.9072  0.7377
  157SAPE   H7R17491   3.192   2.164   7.147  1.4878  2.7587 -1.9659
  157SAPE   H7S17492   3.060   2.045   7.125  0.8773 -1.1910  0.5800
  157SAPE   C2817493   3.006   2.259   7.097 -0.1024 -0.7741 -0.3387
  157SAPE   H8R17494   2.977   2.312   7.005  1.0612  1.4636  0.4957
  157SAPE   C2917495   2.956   2.301   7.212 -0.6081 -0.5559  0.1580
  157SAPE   H9R17496   2.901   2.396   7.218  0.1417 -0.0158 -1.1292
  157SAPE  C21017497   2.981   2.234   7.349 -0.0774 -0.4765 -0.5704
  157SAPE  H10R17498   3.083   2.190   7.346 -1.0185 -2.6862 -2.4939
  157SAPE  H10S17499   2.913   2.147   7.355 -1.6811  0.5724 -2.4330
  157SAPE  C21117500   2.983   2.315   7.478  0.4114 -0.2926 -0.0984
  157SAPE  H11R17501   2.999   2.420   7.449 -2.7878  0.0978 -0.8240
  157SAPE  C21217502   2.952   2.286   7.601  0.7129  0.6140  0.3095
  157SAPE  H12R17503   2.954   2.367   7.675 -1.7315 -1.3635  2.7508
  157SAPE  C21317504   2.919   2.148   7.643  1.2003  0.0431 -0.4158
  157SAPE  H13R17505   3.010   2.085   7.629  2.3786  1.8334 -1.2332
  157SAPE  H13S17506   2.836   2.103   7.585 -0.6855  0.5324  1.7894
  157SAPE  C21417507   2.902   2.144   7.792  0.1959 -0.0291  0.2175
  157SAPE  H14R17508   2.801   2.115   7.827  0.1678  1.5345  1.5462
  157SAPE  C21517509   3.000   2.165   7.884  1.0895 -0.0802  0.0839
  157SAPE  H15R17510   2.970   2.168   7.990  0.0673  1.1528 -0.2163
  157SAPE  C21617511   3.149   2.199   7.858  0.5145  0.7234 -0.1891
  157SAPE  H16R17512   3.159   2.205   7.747  0.4746 -0.1407 -0.2526
  157SAPE  H16S17513   3.209   2.111   7.890 -0.7365 -0.6682 -1.4957
  157SAPE  C21717514   3.199   2.335   7.916  1.0941 -0.0051  0.3072
  157SAPE  H17R17515   3.136   2.410   7.862 -0.4881 -0.9129  0.8228
  157SAPE  H17S17516   3.308   2.353   7.910  0.9156  1.0252 -0.1217
  157SAPE  C21817517   3.165   2.357   8.062  0.2176 -0.0322 -0.1642
  157SAPE  H18R17518   3.061   2.386   8.089  0.4431 -0.5945  1.3606
  157SAPE  H18S17519   3.229   2.441   8.093  0.9232 -1.3992  2.3057
  157SAPE  C21917520   3.200   2.231   8.148 -0.5802 -0.9515 -0.0414
  157SAPE  H19R17521   3.147   2.141   8.112 -0.6545 -0.9102 -0.0364
  157SAPE  H19S17522   3.168   2.266   8.249  0.3779  0.2327 -0.1223
  157SAPE  C22017523   3.350   2.208   8.161 -0.0844 -0.2502 -1.0284
  157SAPE  H20R17524   3.395   2.217   8.060 -0.7615 -0.2767 -1.3373
  157SAPE  H20S17525   3.370   2.104   8.196 -2.5935  0.3176  2.7028
  157SAPE  H20T17526   3.405   2.268   8.237 -1.3867  0.1965 -0.4174
  157SAPE   C3317527   3.865   1.948   7.048  0.4938  0.1108  0.6848
  157SAPE   H3X17528   3.785   2.018   7.016  1.3817  1.1573  0.6638
  157SAPE   H3Y17529   3.959   2.000   7.078 -0.4708  1.4574  1.5004
  157SAPE   C3417530   3.798   1.892   7.175  0.9132 -0.8834  0.3205
  157SAPE   H4X17531   3.701   1.853   7.139  0.1793 -0.8262  2.1029
  157SAPE   H4Y17532   3.759   1.975   7.238 -1.1276 -1.4788 -0.0826
  157SAPE   C3517533   3.877   1.789   7.259  0.3939 -0.4874  0.2325
  157SAPE   H5X17534   3.970   1.838   7.295  0.5802  0.8652 -1.9196
  157SAPE   H5Y17535   3.902   1.705   7.191  0.6313 -0.8166  0.7206
  157SAPE   C3617536   3.810   1.746   7.390  0.5150 -0.2672 -1.1395
  157SAPE   H6X17537   3.865   1.667   7.444 -1.2872  0.5840  2.2475
  157SAPE   H6Y17538   3.710   1.708   7.359  0.4763  0.2682 -1.7156
  157SAPE   C3717539   3.802   1.861   7.494 -0.0615  0.0235  0.2683
  157SAPE   H7X17540   3.728   1.938   7.464  1.4624  1.9543  1.1775
  157SAPE   H7Y17541   3.897   1.920   7.495 -0.0331  0.2033  4.0390
  157SAPE   C3817542   3.765   1.811   7.634 -0.5622 -0.1885  0.0803
  157SAPE   H8X17543   3.840   1.739   7.675 -1.1803  0.4194  2.4758
  157SAPE   H8Y17544   3.669   1.756   7.632  0.3467 -1.9414  1.3340
  157SAPE   C3917545   3.771   1.919   7.745  0.9088 -0.0551 -0.3730
  157SAPE   H9X17546   3.674   1.972   7.734  2.3987  3.1387  0.5217
  157SAPE   H9Y17547   3.862   1.980   7.728  1.6422 -0.7274  0.9578
  157SAPE  C31017548   3.775   1.850   7.889  0.1317 -0.6114  0.3009
  157SAPE  H10X17549   3.867   1.789   7.898  1.0702  0.0906 -3.1826
  157SAPE  H10Y17550   3.682   1.789   7.900  0.8844 -1.8293  0.1202
  157SAPE  C31117551   3.763   1.958   8.003 -0.1058  0.2435  0.0023
  157SAPE  H11X17552   3.693   2.036   7.966 -0.9174 -1.7964 -3.2412
  157SAPE  H11Y17553   3.864   1.989   8.037  0.0383 -0.5968  0.3846
  157SAPE  C31217554   3.704   1.893   8.121  0.3260 -0.4408 -0.4139
  157SAPE  H12X17555   3.780   1.827   8.168  0.4553  1.1995  1.8671
  157SAPE  H12Y17556   3.617   1.833   8.086  0.8236 -1.4888  0.1033
  157SAPE  C31317557   3.656   1.983   8.239  0.0077  0.1520  0.0386
  157SAPE  H13X17558   3.587   1.919   8.297  1.4843 -0.5965  1.0432
  157SAPE  H13Y17559   3.603   2.071   8.198 -0.7109  0.4146  1.4908
  157SAPE  C31417560   3.753   2.026   8.344 -0.2282  0.3519  0.3493
  157SAPE  H14X17561   3.846   2.073   8.305  0.1270  1.5009  2.4177
  157SAPE  H14Y17562   3.789   1.946   8.412 -0.0587  1.7479  1.9569
  157SAPE  C31517563   3.694   2.139   8.433  0.6786 -0.5232  0.5410
  157SAPE  H15X17564   3.598   2.088   8.459  0.0945  0.2769 -0.0034
  157SAPE  H15Y17565   3.670   2.223   8.364 -0.6493 -0.2456  1.3119
  157SAPE  C31617566   3.788   2.179   8.544  0.6256  0.7983 -0.0836
  157SAPE  H16X17567   3.872   2.223   8.486 -1.8879  1.1191 -3.8400
  157SAPE  H16Y17568   3.808   2.083   8.596 -2.8222 -1.2566 -2.1622
  157SAPE  C31717569   3.729   2.281   8.648 -0.1699 -0.0787 -0.2331
  157SAPE  H17X17570   3.807   2.301   8.724 -1.2308  1.1836  0.5587
  157SAPE  H17Y17571   3.635   2.241   8.692  0.0499 -0.3945 -0.0507
  157SAPE  C31817572   3.675   2.417   8.590  0.5046 -0.1339  0.5138
  157SAPE  H18X17573   3.746   2.451   8.512 -0.4191 -0.4154 -0.4817
  157SAPE  H18Y17574   3.652   2.487   8.673 -0.5278 -0.2575  0.3423
  157SAPE  H18Z17575   3.580   2.383   8.544  1.0338 -1.7117  0.5039
  158SAPE     N17576   5.043   1.419   6.485  0.3655 -0.3046 -0.2974
  158SAPE   HN117577   5.093   1.457   6.402 -1.6766  0.2258 -1.3467
  158SAPE   HN217578   4.987   1.338   6.451  0.3541 -1.6218  2.5465
  158SAPE   HN317579   4.983   1.498   6.513  1.4013  0.1828  0.6330
  158SAPE   C1217580   5.124   1.372   6.595 -0.1832 -0.6938 -0.5066
  158SAPE  H12A17581   5.052   1.346   6.675  0.4671 -0.8036  0.0618
  158SAPE  H12B17582   5.191   1.457   6.622 -1.9963  0.1826  1.4914
  158SAPE   C1117583   5.203   1.250   6.545  0.5089  0.4472 -0.8752
  158SAPE  H11A17584   5.136   1.185   6.485 -0.6162  0.8842 -0.1243
  158SAPE  H11B17585   5.250   1.193   6.628  0.4900 -1.2452 -1.9812
  158SAPE     P17586   5.388   1.181   6.377 -0.2286  0.5816  0.4348
  158SAPE   O1317587   5.299   1.127   6.271  0.3121 -0.1112  0.1835
  158SAPE   O1417588   5.528   1.231   6.346 -0.0618  0.0564 -0.4446
  158SAPE   O1217589   5.313   1.291   6.465 -0.3480  0.0357  0.1288
  158SAPE   O1117590   5.418   1.063   6.481  0.1356 -0.2717 -0.4051
  158SAPE    C117591   5.504   1.093   6.589 -0.0856  0.4648 -0.9811
  158SAPE    HA17592   5.610   1.080   6.561  0.2299  1.1088 -0.1403
  158SAPE    HB17593   5.474   1.186   6.643 -2.7119 -0.0756 -1.3522
  158SAPE    C217594   5.486   0.985   6.704 -0.5295 -0.1963  0.1397
  158SAPE    HS17595   5.498   0.892   6.645 -3.4423  0.1711 -1.2067
  158SAPE   O2117596   5.358   0.995   6.773 -0.6514 -0.0558  0.6283
  158SAPE   C2117597   5.257   0.930   6.719 -0.0963  0.0127  0.0515
  158SAPE   O2217598   5.272   0.846   6.633  0.7454 -0.5077  0.5923
  158SAPE   C2217599   5.123   0.983   6.774 -0.0136 -0.6927 -0.0347
  158SAPE   H2R17600   5.147   1.079   6.824 -1.3310  0.4509 -1.4701
  158SAPE   H2S17601   5.044   0.986   6.695 -0.8593 -2.7646  0.6839
  158SAPE    C317602   5.599   0.998   6.807 -0.2186 -0.2005  0.0029
  158SAPE    HX17603   5.604   1.104   6.841  0.2759 -0.5245  0.9515
  158SAPE    HY17604   5.687   0.991   6.739 -0.0411  3.1195 -0.3004
  158SAPE   O3117605   5.595   0.893   6.911  0.1716  0.6730  0.1695
  158SAPE   C3117606   5.531   0.921   7.024 -0.5759  0.0319 -0.3371
  158SAPE   O3217607   5.500   1.032   7.059 -0.0124  0.2650 -0.1363
  158SAPE   C3217608   5.543   0.790   7.117 -0.1649  0.1352  0.3819
  158SAPE   H2X17609   5.634   0.731   7.091  0.6748  1.1856  0.8645
  158SAPE   H2Y17610   5.453   0.740   7.077 -1.6803 -0.2882  3.9035
  158SAPE   C2317611   5.067   0.876   6.876  0.5893  0.2577 -0.4857
  158SAPE   H3R17612   5.151   0.853   6.945  1.4711  4.6891  0.1885
  158SAPE   H3S17613   5.047   0.779   6.825  1.3974  0.2349 -0.7721
  158SAPE   C2417614   4.957   0.929   6.966 -0.6737 -0.2956 -0.2357
  158SAPE   H4R17615   4.886   0.866   7.023 -0.3280  0.2634  0.8462
  158SAPE   H4S17616   4.892   0.975   6.888  0.6400  1.2130 -0.4963
  158SAPE   C2517617   5.001   1.053   7.042  0.7620  0.4466 -1.0100
  158SAPE   H5R17618   5.030   1.138   6.977  2.3900 -1.1525 -2.4683
  158SAPE   C2617619   5.028   1.053   7.178  0.3788 -0.2106 -0.4420
  158SAPE   H6R17620   5.049   1.149   7.227  0.8927 -0.1732 -0.7331
  158SAPE   C2717621   5.021   0.946   7.289  0.0535 -0.1541  0.7138
  158SAPE   H7R17622   4.986   0.846   7.256 -0.1835  0.3655 -0.6750
  158SAPE   H7S17623   4.953   0.994   7.363  0.0377 -0.4537  0.8957
  158SAPE   C2817624   5.160   0.948   7.345  0.3813 -0.9707 -0.1621
  158SAPE   H8R17625   5.231   0.923   7.265 -0.0680  0.3787 -1.0142
  158SAPE   C2917626   5.213   0.984   7.466  0.8740  0.1454  0.0641
  158SAPE   H9R17627   5.323   0.987   7.476  0.7704  0.4123  1.3035
  158SAPE  C21017628   5.133   1.020   7.587  0.8914 -0.3034 -0.5749
  158SAPE  H10R17629   5.117   0.937   7.660 -0.1195  0.7212  0.4225
  158SAPE  H10S17630   5.026   1.033   7.560  1.0181 -0.1070 -0.9730
  158SAPE  C21117631   5.186   1.148   7.646 -0.4015 -0.9045 -0.6549
  158SAPE  H11R17632   5.279   1.197   7.612  0.1837 -2.4204 -1.3097
  158SAPE  C21217633   5.146   1.190   7.767  0.1726 -0.4157 -0.0496
  158SAPE  H12R17634   5.191   1.273   7.822 -0.8715  0.8027 -0.9672
  158SAPE  C21317635   5.048   1.125   7.851  0.0129 -0.1030 -1.1073
  158SAPE  H13R17636   4.956   1.105   7.792 -0.6149  0.2533 -0.2682
  158SAPE  H13S17637   5.024   1.192   7.936  1.1367  0.8037 -1.4696
  158SAPE  C21417638   5.104   1.010   7.929 -0.1974 -0.1571  0.0854
  158SAPE  H14R17639   5.157   0.939   7.863  0.3253  0.5226 -0.2390
  158SAPE  C21517640   5.120   0.994   8.059 -0.4644 -0.0669  0.1055
  158SAPE  H15R17641   5.161   0.897   8.091 -1.3495 -0.7644 -0.7990
  158SAPE  C21617642   5.075   1.084   8.167  0.2915  0.3887  0.5714
  158SAPE  H16R17643   4.964   1.090   8.158  0.1882 -1.9408 -0.3133
  158SAPE  H16S17644   5.123   1.184   8.167 -0.3416  0.7043  0.2517
  158SAPE  C21717645   5.087   1.019   8.310  0.6111  0.3922 -0.1786
  158SAPE  H17R17646   5.191   0.979   8.312  1.2323  1.0314 -5.4474
  158SAPE  H17S17647   5.026   0.927   8.319  2.0949 -0.5988  0.0328
  158SAPE  C21817648   5.045   1.120   8.415  0.9100  0.2159 -0.2639
  158SAPE  H18R17649   4.946   1.169   8.405  1.2364  0.8889 -0.2608
  158SAPE  H18S17650   5.123   1.198   8.400 -0.0832  0.9868 -1.6412
  158SAPE  C21917651   5.056   1.054   8.557 -0.3014  0.6324  0.0612
  158SAPE  H19R17652   5.151   0.997   8.571 -0.2697  0.9329  1.1571
  158SAPE  H19S17653   4.975   0.979   8.564 -1.2849  1.4019 -2.1614
  158SAPE  C22017654   5.040   1.158   8.666 -0.0684 -0.1614  0.1859
  158SAPE  H20R17655   5.070   1.119   8.765 -0.8965  1.0897  0.9550
  158SAPE  H20S17656   4.933   1.187   8.675  0.3895  1.2331  1.5058
  158SAPE  H20T17657   5.099   1.247   8.637 -1.0153  0.4087 -0.0297
  158SAPE   C3317658   5.511   0.818   7.266 -0.3833 -0.2166 -0.3037
  158SAPE   H3X17659   5.461   0.731   7.313  2.1457 -2.1591 -1.0043
  158SAPE   H3Y17660   5.438   0.902   7.273 -1.8681 -1.2999 -1.8303
  158SAPE   C3417661   5.642   0.830   7.347  0.4403 -0.5830  0.1897
  158SAPE   H4X17662   5.698   0.915   7.301 -2.0553 -0.1582 -2.3602
  158SAPE   H4Y17663   5.698   0.735   7.354  0.2497 -0.7118 -0.0055
  158SAPE   C3517664   5.611   0.865   7.492 -0.5740 -0.3396  0.3255
  158SAPE   H5X17665   5.558   0.961   7.504 -0.9814 -0.2636 -1.6945
  158SAPE   H5Y17666   5.708   0.878   7.543  0.3246 -0.2731 -1.3390
  158SAPE   C3617667   5.551   0.757   7.577 -0.0605 -0.0635 -0.0489
  158SAPE   H6X17668   5.633   0.697   7.620 -0.9763 -0.4245  1.2786
  158SAPE   H6Y17669   5.484   0.682   7.529 -1.5702  1.1263  0.1089
  158SAPE   C3717670   5.465   0.809   7.692  1.1468 -0.0870  0.0238
  158SAPE   H7X17671   5.375   0.865   7.660  1.1982  0.3079  0.5523
  158SAPE   H7Y17672   5.433   0.714   7.738 -0.7462 -0.6690 -2.2874
  158SAPE   C3817673   5.545   0.902   7.790 -0.9124  0.5444  0.2044
  158SAPE   H8X17674   5.589   0.988   7.735  1.6396 -0.1601  1.0208
  158SAPE   H8Y17675   5.639   0.847   7.810 -0.3518  1.6926  0.8564
  158SAPE   C3917676   5.475   0.934   7.919  0.5641 -0.7531 -0.1986
  158SAPE   H9X17677   5.461   0.835   7.969 -0.8032 -1.6290 -2.1802
  158SAPE   H9Y17678   5.371   0.960   7.891  0.2175 -1.9144 -0.0670
  158SAPE  C31017679   5.547   1.046   8.003  0.6600 -0.0537 -0.1826
  158SAPE  H10X17680   5.549   1.129   7.929  1.8023  1.3427  1.3445
  158SAPE  H10Y17681   5.653   1.024   8.026  1.1179  1.5309 -0.6767
  158SAPE  C31117682   5.487   1.103   8.136 -0.2255 -0.5263  0.4976
  158SAPE  H11X17683   5.447   1.013   8.187 -1.8256 -0.3791 -0.4267
  158SAPE  H11Y17684   5.388   1.150   8.120 -0.0660  0.6006  2.4948
  158SAPE  C31217685   5.581   1.199   8.212  0.2765 -0.2739  0.6412
  158SAPE  H12X17686   5.630   1.276   8.150 -1.6031 -1.2794 -2.2974
  158SAPE  H12Y17687   5.664   1.133   8.246  1.6930  1.4254  0.6251
  158SAPE  C31317688   5.514   1.258   8.343  0.0329  0.2739 -0.2105
  158SAPE  H13X17689   5.596   1.299   8.406 -0.8372 -0.6642  1.6293
  158SAPE  H13Y17690   5.462   1.177   8.399 -0.4813  0.9244  0.2711
  158SAPE  C31417691   5.424   1.382   8.326 -0.3309 -0.3916 -0.2061
  158SAPE  H14X17692   5.353   1.372   8.241 -0.0063 -0.2023 -0.5020
  158SAPE  H14Y17693   5.485   1.468   8.290  0.0569 -1.5812 -2.5947
  158SAPE  C31517694   5.349   1.417   8.451  0.2534  0.2047 -0.3218
  158SAPE  H15X17695   5.299   1.333   8.504 -1.6383  1.8127  0.5617
  158SAPE  H15Y17696   5.258   1.475   8.425  1.4061  0.9159 -3.1368
  158SAPE  C31617697   5.428   1.488   8.556  0.4573 -0.4784  0.7548
  158SAPE  H16X17698   5.467   1.589   8.530  1.1534 -0.6600  1.0791
  158SAPE  H16Y17699   5.520   1.430   8.578  1.6745  0.6600 -1.0393
  158SAPE  C31717700   5.362   1.508   8.696  0.0067 -0.2166 -0.3010
  158SAPE  H17X17701   5.434   1.547   8.772 -0.9719  1.4418 -0.1777
  158SAPE  H17Y17702   5.342   1.402   8.725  0.9059  0.3227  2.7156
  158SAPE  C31817703   5.237   1.597   8.697  0.2376 -0.3805  0.8785
  158SAPE  H18X17704   5.258   1.682   8.629  1.7675 -1.8945 -0.6229
  158SAPE  H18Y17705   5.203   1.641   8.794  1.0565 -1.0798  1.4983
  158SAPE  H18Z17706   5.147   1.541   8.665  0.2456 -1.1042  2.0555
  159SAPE     N17707   5.142   4.417   6.418 -0.3005 -0.0134  0.6347
  159SAPE   HN117708   5.132   4.423   6.522 -0.3402  0.5132  0.6009
  159SAPE   HN217709   5.238   4.442   6.388 -0.4953  1.2985  1.0527
  159SAPE   HN317710   5.081   4.490   6.376 -0.2418  0.1197  0.7797
  159SAPE   C1217711   5.121   4.287   6.354  0.1878  0.3352 -0.9043
  159SAPE  H12A17712   5.076   4.216   6.426  1.2898  1.0688  0.5552
  159SAPE  H12B17713   5.223   4.254   6.327  0.6422 -0.3338  1.4395
  159SAPE   C1117714   5.027   4.307   6.232 -0.1200  0.3955 -0.0330
  159SAPE  H11A17715   4.925   4.331   6.269 -0.7625 -0.8261 -0.9474
  159SAPE  H11B17716   5.018   4.210   6.178  0.0872 -0.6879  1.7849
  159SAPE     P17717   5.009   4.541   6.116  0.1588  0.6592 -0.1985
  159SAPE   O1317718   5.103   4.645   6.059  0.3683  0.2562 -0.1798
  159SAPE   O1417719   4.888   4.509   6.043  0.8939 -0.3663  0.7141
  159SAPE   O1217720   5.083   4.402   6.144 -0.0762  0.1613 -0.4081
  159SAPE   O1117721   4.975   4.577   6.265 -0.3586 -0.1262 -0.5849
  159SAPE    C117722   4.887   4.679   6.304  0.5270  0.0971  0.4289
  159SAPE    HA17723   4.935   4.777   6.283  1.7518 -0.3761  0.9073
  159SAPE    HB17724   4.796   4.678   6.241  1.1366 -0.7718 -0.4642
  159SAPE    C217725   4.828   4.672   6.448 -0.0325  0.4220  0.2365
  159SAPE    HS17726   4.920   4.668   6.510 -0.2217 -0.2335  0.4819
  159SAPE   O2117727   4.746   4.550   6.461  0.2515 -0.0890 -0.6769
  159SAPE   C2117728   4.800   4.459   6.541  0.9155 -0.0600  0.3222
  159SAPE   O2217729   4.914   4.447   6.579  0.4379  0.2832 -0.1681
  159SAPE   C2217730   4.678   4.367   6.572 -0.0431  0.5537 -0.0004
  159SAPE   H2R17731   4.628   4.324   6.483 -2.8227  0.4468  1.5001
  159SAPE   H2S17732   4.717   4.279   6.626 -3.3129 -1.9307 -1.3815
  159SAPE    C317733   4.755   4.802   6.482 -0.0826  0.6258 -0.1990
  159SAPE    HX17734   4.686   4.808   6.395  2.7568 -1.5966 -2.8705
  159SAPE    HY17735   4.828   4.885   6.470  1.5711 -0.9102 -1.3704
  159SAPE   O3117736   4.689   4.796   6.609  0.9120 -0.3034  0.6234
  159SAPE   C3117737   4.769   4.801   6.719  0.0882 -0.1378  0.5227
  159SAPE   O3217738   4.887   4.821   6.717 -0.5110  0.2456  0.0380
  159SAPE   C3217739   4.684   4.785   6.848  0.1703  0.6935 -0.5227
  159SAPE   H2X17740   4.587   4.734   6.828  0.5468 -0.2983  0.0871
  159SAPE   H2Y17741   4.666   4.888   6.885  0.1166  0.5578 -0.1653
  159SAPE   C2317742   4.585   4.433   6.676  0.2034  0.3600  0.0197
  159SAPE   H3R17743   4.541   4.522   6.625  0.1911 -0.7000 -1.9326
  159SAPE   H3S17744   4.641   4.467   6.765 -0.5385  0.3807  0.4880
  159SAPE   C2417745   4.473   4.345   6.722 -0.2707  0.8391 -1.1665
  159SAPE   H4R17746   4.416   4.305   6.635  1.3669  2.2737 -2.9935
  159SAPE   H4S17747   4.398   4.414   6.766 -0.1136 -1.0220  2.4005
  159SAPE   C2517748   4.526   4.234   6.814  0.3391  0.0874 -0.0245
  159SAPE   H5R17749   4.587   4.155   6.769 -1.0727 -0.3929 -1.1762
  159SAPE   C2617750   4.502   4.207   6.942 -0.3618 -0.3360 -0.9479
  159SAPE   H6R17751   4.538   4.113   6.985 -0.1492  0.3245  0.3744
  159SAPE   C2717752   4.418   4.291   7.033 -0.0385 -0.0123  0.1275
  159SAPE   H7R17753   4.329   4.236   7.070 -2.0956  3.3928  0.6294
  159SAPE   H7S17754   4.394   4.383   6.975 -3.0591 -1.5739 -1.3051
  159SAPE   C2817755   4.504   4.325   7.155 -0.8943  0.3806  0.1260
  159SAPE   H8R17756   4.599   4.369   7.122  0.0048 -2.5938 -1.6045
  159SAPE   C2917757   4.488   4.297   7.284  0.1885 -0.6103 -0.2334
  159SAPE   H9R17758   4.569   4.335   7.349 -2.0320  2.5210  0.9413
  159SAPE  C21017759   4.376   4.223   7.338  0.1501 -0.3225 -0.8536
  159SAPE  H10R17760   4.417   4.131   7.383 -0.7524  0.4406  1.6740
  159SAPE  H10S17761   4.289   4.200   7.273 -0.2659 -1.8315  0.1888
  159SAPE  C21117762   4.312   4.307   7.441  0.2250  0.7562 -0.5692
  159SAPE  H11R17763   4.248   4.386   7.398 -1.4282  0.5849  1.4085
  159SAPE  C21217764   4.336   4.306   7.572  0.6783  0.1448 -0.6083
  159SAPE  H12R17765   4.289   4.380   7.638 -0.8410 -2.5989  1.5856
  159SAPE  C21317766   4.428   4.217   7.644  0.3789  0.5222 -0.4954
  159SAPE  H13R17767   4.495   4.170   7.569  0.7409 -1.7673  1.1573
  159SAPE  H13S17768   4.367   4.136   7.689  3.0301 -0.5725  1.4202
  159SAPE  C21417769   4.499   4.287   7.747 -1.1290 -0.6765 -0.0869
  159SAPE  H14R17770   4.555   4.366   7.696 -0.6817 -0.8286  0.1660
  159SAPE  C21517771   4.509   4.252   7.881 -0.6795  0.2648 -0.4868
  159SAPE  H15R17772   4.571   4.317   7.945  0.8121 -1.0058 -0.5758
  159SAPE  C21617773   4.441   4.143   7.953 -0.7613 -0.1275  0.0725
  159SAPE  H16R17774   4.520   4.111   8.025  0.3392  0.6936 -0.7406
  159SAPE  H16S17775   4.423   4.055   7.888  1.8626 -2.6156  2.4065
  159SAPE  C21717776   4.312   4.187   8.028 -1.0597  0.3622  0.0948
  159SAPE  H17R17777   4.248   4.237   7.953 -1.5069 -0.5732 -0.1664
  159SAPE  H17S17778   4.336   4.259   8.109  2.7918  0.9500 -1.3836
  159SAPE  C21817779   4.244   4.056   8.071 -0.2109 -0.3508  0.3282
  159SAPE  H18R17780   4.239   3.985   7.985  0.2091 -0.1030  0.0945
  159SAPE  H18S17781   4.139   4.081   8.097  0.1121  0.4556  0.8944
  159SAPE  C21917782   4.300   4.002   8.204 -0.2435  1.0152  0.1329
  159SAPE  H19R17783   4.306   4.076   8.287 -2.4234  1.3220  0.0834
  159SAPE  H19S17784   4.403   3.963   8.190  0.5695  3.8170 -2.7496
  159SAPE  C22017785   4.222   3.876   8.240  0.3075 -0.4101  0.1677
  159SAPE  H20R17786   4.286   3.821   8.312 -0.9562  0.1238  1.7615
  159SAPE  H20S17787   4.195   3.810   8.155  2.7296 -2.2950  0.7614
  159SAPE  H20T17788   4.132   3.913   8.294  0.4965  2.4681 -1.2737
  159SAPE   C3317789   4.764   4.695   6.949 -0.2995 -0.1828 -0.6827
  159SAPE   H3X17790   4.868   4.729   6.970  0.6314 -3.2478  0.1214
  159SAPE   H3Y17791   4.768   4.590   6.913 -2.6653 -1.2630  1.8231
  159SAPE   C3417792   4.683   4.689   7.090 -0.2936  0.3999  0.1333
  159SAPE   H4X17793   4.599   4.619   7.069  0.0563 -0.5087  1.6190
  159SAPE   H4Y17794   4.632   4.786   7.109 -2.0790 -0.3882 -0.4169
  159SAPE   C3517795   4.760   4.634   7.207  0.5258 -0.4524  0.6960
  159SAPE   H5X17796   4.855   4.692   7.212 -0.2333  0.9277 -0.4368
  159SAPE   H5Y17797   4.798   4.530   7.200  0.4624 -0.5482  1.6269
  159SAPE   C3617798   4.691   4.651   7.340  0.2509  0.3310  0.1878
  159SAPE   H6X17799   4.597   4.592   7.331  0.6328 -0.1384 -0.8685
  159SAPE   H6Y17800   4.669   4.760   7.346 -1.0829  0.1882 -1.4503
  159SAPE   C3717801   4.769   4.599   7.460 -0.2500 -0.2923  0.5259
  159SAPE   H7X17802   4.861   4.661   7.458  0.0128 -0.6691  0.7292
  159SAPE   H7Y17803   4.792   4.490   7.468  0.4365 -0.0885  1.4441
  159SAPE   C3817804   4.707   4.640   7.593  0.2446  0.9497 -0.4503
  159SAPE   H8X17805   4.605   4.597   7.598  0.9598 -0.8406 -0.7306
  159SAPE   H8Y17806   4.703   4.751   7.585  0.2498  0.9692 -0.2026
  159SAPE   C3917807   4.781   4.595   7.722  0.3334 -0.4670 -0.6034
  159SAPE   H9X17808   4.889   4.607   7.702  0.4583 -0.7593 -0.1149
  159SAPE   H9Y17809   4.779   4.485   7.738  1.9408 -0.3496  0.7506
  159SAPE  C31017810   4.750   4.673   7.847  0.2521  0.0312 -0.3878
  159SAPE  H10X17811   4.701   4.768   7.815  0.1999 -0.3198 -1.3710
  159SAPE  H10Y17812   4.843   4.688   7.905 -0.0728 -0.5880  0.3044
  159SAPE  C31117813   4.643   4.611   7.936  0.8005  0.2938  1.1331
  159SAPE  H11X17814   4.681   4.522   7.992  2.0268  1.1941  1.7641
  159SAPE  H11Y17815   4.550   4.572   7.889  0.5031 -0.3077  2.1808
  159SAPE  C31217816   4.604   4.700   8.051  0.7615 -0.2549  0.0972
  159SAPE  H12X17817   4.535   4.640   8.115 -1.4573  0.4253 -1.5157
  159SAPE  H12Y17818   4.551   4.793   8.020  0.4930  0.1407  1.6716
  159SAPE  C31317819   4.716   4.748   8.142  0.0310  0.3378  0.9350
  159SAPE  H13X17820   4.791   4.794   8.074 -0.1188  1.0974  1.2702
  159SAPE  H13Y17821   4.750   4.659   8.199 -0.7652  0.1502  1.1373
  159SAPE  C31417822   4.659   4.845   8.240  0.2774 -0.7097  0.1685
  159SAPE  H14X17823   4.587   4.914   8.190 -0.5438 -0.6029  1.4647
  159SAPE  H14Y17824   4.736   4.910   8.288 -0.8098  0.6846  0.0951
  159SAPE  C31517825   4.588   4.784   8.356 -0.1538  0.7760 -0.0464
  159SAPE  H15X17826   4.668   4.740   8.419 -1.7999 -1.0761  0.8746
  159SAPE  H15Y17827   4.522   4.703   8.317 -0.4294  0.7961  0.3705
  159SAPE  C31617828   4.504   4.880   8.435  0.6510 -0.3285 -0.0474
  159SAPE  H16X17829   4.450   4.953   8.372 -1.7512 -1.0404  1.0748
  159SAPE  H16Y17830   4.552   4.929   8.523 -0.5397 -1.5339  1.3103
  159SAPE  C31717831   4.387   4.798   8.502 -0.9017  0.0923 -1.3746
  159SAPE  H17X17832   4.441   4.721   8.561  1.5450  1.8302 -1.1803
  159SAPE  H17Y17833   4.335   4.740   8.424 -2.1256  0.3170 -0.7414
  159SAPE  C31817834   4.292   4.865   8.597  0.0450  0.0532  0.3081
  159SAPE  H18X17835   4.214   4.792   8.627 -0.0050 -0.0311 -0.0160
  159SAPE  H18Y17836   4.242   4.945   8.538 -1.0968 -1.2863 -0.6299
  159SAPE  H18Z17837   4.344   4.911   8.683 -2.4729 -0.0979  2.0173
  160SAPE     N17838   5.253   0.854   6.373 -1.0873  0.0607  0.3211
  160SAPE   HN117839   5.265   0.955   6.350  2.5142  0.2039  2.1415
  160SAPE   HN217840   5.252   0.853   6.477 -2.4241 -0.1967  0.3193
  160SAPE   HN317841   5.341   0.805   6.346 -1.7203 -0.9959  0.1326
  160SAPE   C1217842   5.126   0.793   6.314 -0.0725 -0.3797 -0.4419
  160SAPE  H12A17843   5.136   0.683   6.331  1.5529 -0.2855 -0.5662
  160SAPE  H12B17844   5.124   0.817   6.206 -0.0101  0.6046 -0.2269
  160SAPE   C1117845   5.009   0.842   6.391  0.4308  0.0249  0.1325
  160SAPE  H11A17846   5.012   0.795   6.492 -1.3832 -1.0204 -0.2506
  160SAPE  H11B17847   4.914   0.804   6.347 -0.5668  2.0473  0.3788
  160SAPE     P17848   4.861   1.058   6.382  0.1492  0.5128 -0.0568
  160SAPE   O1317849   4.871   1.202   6.425  0.2227  0.3619  0.4675
  160SAPE   O1417850   4.802   1.034   6.249  0.3537  0.1437 -0.1447
  160SAPE   O1217851   5.000   0.984   6.398  0.4002  0.4720 -0.6850
  160SAPE   O1117852   4.768   0.987   6.493 -0.0657 -0.0317 -0.0990
  160SAPE    C117853   4.779   1.009   6.637  0.0576 -0.2057 -0.1890
  160SAPE    HA17854   4.861   0.948   6.681 -0.5996 -0.9924 -0.0194
  160SAPE    HB17855   4.792   1.116   6.664  0.4147 -0.3952  0.4053
  160SAPE    C217856   4.647   0.963   6.698  0.7020  0.5413 -0.3955
  160SAPE    HS17857   4.561   1.018   6.654 -0.5254 -1.7716 -1.1124
  160SAPE   O2117858   4.643   0.975   6.843  0.3979 -0.0500 -0.0462
  160SAPE   C2117859   4.525   0.987   6.901 -0.0737 -0.3773  0.1706
  160SAPE   O2217860   4.416   0.979   6.838 -0.1977 -0.3048  0.2236
  160SAPE   C2217861   4.548   0.983   7.052 -0.0282  0.1688 -0.1791
  160SAPE   H2R17862   4.598   0.886   7.072  0.1797  0.0291 -1.3203
  160SAPE   H2S17863   4.617   1.069   7.070  0.3528 -0.4760  1.7011
  160SAPE    C317864   4.632   0.809   6.647  0.4806 -0.2601 -1.0471
  160SAPE    HX17865   4.722   0.763   6.693  1.2416  1.3718 -0.8176
  160SAPE    HY17866   4.643   0.798   6.537  1.5855  1.0480 -1.0939
  160SAPE   O3117867   4.518   0.740   6.703 -0.0961  0.0484  0.0824
  160SAPE   C3117868   4.406   0.753   6.631 -0.2187  0.2175  0.1939
  160SAPE   O3217869   4.392   0.833   6.540 -0.1985  0.5745 -0.3647
  160SAPE   C3217870   4.292   0.665   6.687 -0.1880 -0.0597 -0.4141
  160SAPE   H2X17871   4.328   0.619   6.782  1.9354  2.7765  0.3059
  160SAPE   H2Y17872   4.270   0.590   6.609  2.1078  1.3746 -2.6044
  160SAPE   C2317873   4.426   1.007   7.148 -0.0017 -0.5432 -0.0667
  160SAPE   H3R17874   4.366   0.915   7.134 -2.1998  0.6901  0.7507
  160SAPE   H3S17875   4.362   1.094   7.124 -0.9649 -0.9156  1.0558
  160SAPE   C2417876   4.455   1.035   7.297 -0.1551  0.0686  0.6370
  160SAPE   H4R17877   4.545   0.975   7.324  0.5615  1.2240  0.9080
  160SAPE   H4S17878   4.363   1.017   7.355 -2.6715  1.4968 -2.5818
  160SAPE   C2517879   4.483   1.185   7.313  0.9135 -0.6687 -0.0027
  160SAPE   H5R17880   4.398   1.252   7.293  1.5043 -0.1172 -0.7203
  160SAPE   C2617881   4.592   1.249   7.352 -1.0945 -0.5403 -0.1045
  160SAPE   H6R17882   4.599   1.358   7.345  0.4770 -0.6052  0.0826
  160SAPE   C2717883   4.726   1.189   7.397  0.3562 -0.0058  0.5789
  160SAPE   H7R17884   4.802   1.218   7.322  0.2158  1.4461  0.9818
  160SAPE   H7S17885   4.717   1.079   7.411  2.0887 -0.1442  0.7982
  160SAPE   C2817886   4.766   1.251   7.522  0.2520  0.7955  0.0390
  160SAPE   H8R17887   4.852   1.319   7.515  1.5202 -0.0258  4.4190
  160SAPE   C2917888   4.713   1.229   7.648 -0.0561  0.2995  0.6204
  160SAPE   H9R17889   4.744   1.292   7.733  0.4139 -0.0928  0.7470
  160SAPE  C21017890   4.599   1.139   7.687  0.3979  0.3713 -0.0803
  160SAPE  H10R17891   4.555   1.082   7.603  0.8226 -1.3566  0.8133
  160SAPE  H10S17892   4.521   1.202   7.735  0.2876  0.6595 -0.6328
  160SAPE  C21117893   4.660   1.038   7.780  0.8749 -1.0329 -0.1782
  160SAPE  H11R17894   4.699   0.944   7.737  0.4411 -0.0830 -2.8041
  160SAPE  C21217895   4.665   1.060   7.913 -0.0915  0.5808  0.7925
  160SAPE  H12R17896   4.726   0.988   7.970 -1.1057  0.9059  2.3451
  160SAPE  C21317897   4.617   1.177   7.996 -0.3576 -0.8128  0.6063
  160SAPE  H13R17898   4.532   1.141   8.057  0.8154 -3.0892  1.0155
  160SAPE  H13S17899   4.584   1.260   7.929  4.8911 -0.8757 -2.6358
  160SAPE  C21417900   4.739   1.220   8.081  0.5791 -0.2623 -0.4676
  160SAPE  H14R17901   4.837   1.197   8.036 -0.6794  0.1890 -3.6389
  160SAPE  C21517902   4.730   1.262   8.207 -0.0498 -0.3207 -0.4528
  160SAPE  H15R17903   4.828   1.276   8.255 -0.0136  0.3731 -0.7156
  160SAPE  C21617904   4.609   1.296   8.291 -0.3063 -0.2737 -0.3622
  160SAPE  H16R17905   4.631   1.270   8.397  1.2710 -0.2271 -0.6582
  160SAPE  H16S17906   4.527   1.225   8.266 -2.5632  0.9717  2.8137
  160SAPE  C21717907   4.569   1.449   8.292  0.4693  0.1950  0.4320
  160SAPE  H17R17908   4.649   1.497   8.351 -0.2535  1.7252  0.1942
  160SAPE  H17S17909   4.473   1.455   8.346 -2.0189  1.7662 -3.6660
  160SAPE  C21817910   4.553   1.515   8.152  0.1542 -0.6253  0.7621
  160SAPE  H18R17911   4.497   1.458   8.075 -0.1896  0.2247  0.3702
  160SAPE  H18S17912   4.653   1.530   8.107 -0.3615  1.0766  0.0805
  160SAPE  C21917913   4.502   1.664   8.161 -0.1738 -0.3355  1.3429
  160SAPE  H19R17914   4.423   1.663   8.239 -1.6038 -3.1752  0.0181
  160SAPE  H19S17915   4.466   1.676   8.057  0.5327 -0.8942  1.0247
  160SAPE  C22017916   4.617   1.764   8.193 -0.1027 -0.3114  1.0601
  160SAPE  H20R17917   4.663   1.742   8.292 -0.7797 -2.3894  0.9658
  160SAPE  H20S17918   4.591   1.872   8.195  3.4311  0.6819  2.8343
  160SAPE  H20T17919   4.700   1.744   8.122  0.6014 -0.2183  1.8283
  160SAPE   C3317920   4.158   0.741   6.709  0.2750  0.4706  0.3572
  160SAPE   H3X17921   4.130   0.795   6.616  1.6299  1.0167  0.2521
  160SAPE   H3Y17922   4.172   0.818   6.787  1.9601 -0.1651  0.7139
  160SAPE   C3417923   4.039   0.639   6.731  0.0503 -0.1198  0.4644
  160SAPE   H4X17924   4.033   0.571   6.643 -0.7106 -0.5695  0.8424
  160SAPE   H4Y17925   3.946   0.699   6.718 -0.1911 -0.4849  0.4779
  160SAPE   C3517926   4.047   0.556   6.865 -0.1713  0.7491 -0.6959
  160SAPE   H5X17927   4.145   0.509   6.889 -0.2091  1.3912  0.8283
  160SAPE   H5Y17928   3.978   0.470   6.857 -0.8739  1.3719 -1.5838
  160SAPE   C3617929   4.004   0.639   6.979  0.2969  0.3306  0.8186
  160SAPE   H6X17930   3.919   0.707   6.955 -2.0796 -3.5718 -3.3182
  160SAPE   H6Y17931   4.082   0.700   7.030 -0.9745  1.5422  1.3963
  160SAPE   C3717932   3.954   0.557   7.093 -0.0220  0.2523 -0.5096
  160SAPE   H7X17933   4.023   0.470   7.102 -0.3303  0.1867  1.8454
  160SAPE   H7Y17934   3.856   0.513   7.064  1.0592 -1.4171 -1.8136
  160SAPE   C3817935   3.946   0.641   7.225 -0.6446 -0.6387  0.0457
  160SAPE   H8X17936   3.848   0.691   7.215 -0.4491  0.1479  1.7471
  160SAPE   H8Y17937   4.024   0.720   7.236 -0.5459 -0.5674 -1.0596
  160SAPE   C3917938   3.954   0.558   7.355  0.7268 -0.2363  0.4539
  160SAPE   H9X17939   4.057   0.530   7.386  0.9871  1.5905  1.3460
  160SAPE   H9Y17940   3.904   0.460   7.339 -3.0594  1.6468 -0.3366
  160SAPE  C31017941   3.880   0.618   7.482 -0.0480 -0.1495  0.0117
  160SAPE  H10X17942   3.771   0.619   7.461 -0.1300  1.7019  0.3631
  160SAPE  H10Y17943   3.901   0.727   7.485 -1.7163  0.2115 -0.5545
  160SAPE  C31117944   3.911   0.549   7.619  0.1097 -0.1695  0.1109
  160SAPE  H11X17945   4.013   0.581   7.646 -0.3024 -0.7880  2.6363
  160SAPE  H11Y17946   3.932   0.441   7.601  1.3495  0.2007 -0.7834
  160SAPE  C31217947   3.809   0.571   7.729  0.2272  0.4011  0.7065
  160SAPE  H12X17948   3.823   0.498   7.811  0.9623 -2.7866 -2.0258
  160SAPE  H12Y17949   3.709   0.544   7.687  0.2930 -0.4279  1.0614
  160SAPE  C31317950   3.810   0.717   7.769 -0.1161 -0.5686 -0.3217
  160SAPE  H13X17951   3.774   0.775   7.681 -0.6274 -1.7752 -0.9182
  160SAPE  H13Y17952   3.914   0.756   7.776 -0.1801 -0.0164 -2.0860
  160SAPE  C31417953   3.725   0.735   7.894  0.2997 -0.2448 -0.7402
  160SAPE  H14X17954   3.617   0.712   7.885 -0.3754  2.7877 -1.1553
  160SAPE  H14Y17955   3.719   0.842   7.923 -0.5983 -0.3784 -0.3877
  160SAPE  C31517956   3.756   0.653   8.016 -0.4331 -0.9943 -0.0556
  160SAPE  H15X17957   3.863   0.625   8.017  0.0988  0.6989 -2.1868
  160SAPE  H15Y17958   3.694   0.561   8.012 -1.1828 -0.5560  1.0419
  160SAPE  C31617959   3.723   0.729   8.142  1.1230  0.0576  0.2315
  160SAPE  H16X17960   3.641   0.803   8.133 -0.2883 -0.9821  3.0462
  160SAPE  H16Y17961   3.805   0.791   8.184  1.2205  0.9908 -1.2549
  160SAPE  C31717962   3.676   0.639   8.264 -0.5071  1.1147 -0.0735
  160SAPE  H17X17963   3.766   0.575   8.274  0.2927  2.0637 -0.9625
  160SAPE  H17Y17964   3.586   0.578   8.241  0.0326 -0.1950  1.1367
  160SAPE  C31817965   3.661   0.715   8.391  0.4532  0.7413 -0.7345
  160SAPE  H18X17966   3.747   0.778   8.422  0.5220  0.6132 -0.6656
  160SAPE  H18Y17967   3.657   0.638   8.471  0.3974  1.9353  0.4454
  160SAPE  H18Z17968   3.565   0.771   8.395 -0.4733 -0.8309  0.0713
  161SOPE     N17969   2.558   4.520  10.741  0.3893 -0.4880 -0.4779
  161SOPE   HN117970   2.463   4.562  10.745 -0.6054 -2.6042 -0.2210
  161SOPE   HN217971   2.623   4.590  10.700  0.7796  0.7111  1.9927
  161SOPE   HN317972   2.552   4.431  10.687  1.4894 -1.1140  0.3817
  161SOPE   C1217973   2.604   4.505  10.887  0.8113 -0.5372  0.3207
  161SOPE  H12A17974   2.659   4.408  10.890 -1.7927 -2.0978  0.3326
  161SOPE  H12B17975   2.517   4.488  10.954  1.1829  1.0724  1.2522
  161SOPE   C1117976   2.681   4.619  10.943  0.0244 -0.0502 -0.0010
  161SOPE  H11A17977   2.706   4.587  11.047  2.3506  0.6495 -0.2710
  161SOPE  H11B17978   2.616   4.709  10.949 -1.7340 -1.1996 -1.0185
  161SOPE     P17979   2.832   4.757  10.783 -0.2897  0.2158 -0.3131
  161SOPE   O1317980   2.959   4.738  10.711  0.0345  0.0387 -0.0576
  161SOPE   O1417981   2.816   4.877  10.867  0.1087  0.1260  0.7788
  161SOPE   O1217982   2.812   4.638  10.886 -0.8054 -0.2753  0.5219
  161SOPE   O1117983   2.707   4.734  10.687 -0.5816  0.0849  0.1805
  161SOPE    C117984   2.675   4.852  10.607  0.1349  0.5687 -0.4154
  161SOPE    HA17985   2.755   4.866  10.531  0.9581 -0.7762  0.1706
  161SOPE    HB17986   2.660   4.941  10.672 -0.7076  0.4811 -0.4768
  161SOPE    C217987   2.533   4.833  10.532 -0.3931  0.1579 -0.0776
  161SOPE    HS17988   2.453   4.846  10.608  0.3364  0.9536  0.5766
  161SOPE   O2117989   2.526   4.701  10.473 -0.1235  0.5610 -0.0376
  161SOPE   C2117990   2.399   4.674  10.423  0.5064 -0.3179 -0.5606
  161SOPE   O2217991   2.307   4.749  10.443  0.8392  0.1480  0.1174
  161SOPE   C2217992   2.389   4.528  10.362 -0.4189 -0.6565 -0.0805
  161SOPE   H2R17993   2.420   4.453  10.439  1.0194  1.4119  1.4785
  161SOPE   H2S17994   2.471   4.531  10.287  1.0915 -1.7771  1.4360
  161SOPE    C317995   2.532   4.949  10.430  0.1897 -0.7262 -1.0022
  161SOPE    HX17996   2.565   5.043  10.479 -0.0558 -1.4617  0.6142
  161SOPE    HY17997   2.424   4.963  10.404  0.1537  0.1042 -0.4318
  161SOPE   O3117998   2.615   4.909  10.316  0.1510 -0.3530  0.3342
  161SOPE   C3117999   2.607   4.991  10.216 -0.0302 -0.3572  0.3227
  161SOPE   O3218000   2.568   5.109  10.222  0.2263 -0.1382 -0.3742
  161SOPE   C3218001   2.664   4.930  10.089 -0.0389 -0.5570  0.0495
  161SOPE   H2X18002   2.703   4.830  10.115 -1.6779 -1.0574  0.6875
  161SOPE   H2Y18003   2.752   4.989  10.053 -0.0368  0.5301  1.6806
  161SOPE   C2318004   2.260   4.491  10.286  0.5671  0.6815 -0.4461
  161SOPE   H3R18005   2.187   4.573  10.266 -1.2386 -0.5338  0.8011
  161SOPE   H3S18006   2.204   4.429  10.360 -0.5492  0.5611 -1.3695
  161SOPE   C2418007   2.286   4.401  10.166  1.0112  0.3654 -0.3959
  161SOPE   H4R18008   2.361   4.323  10.190 -1.1152 -1.3174  1.1120
  161SOPE   H4S18009   2.192   4.344  10.148  1.5945 -0.9415  0.5845
  161SOPE   C2518010   2.323   4.485  10.045 -0.5594  0.1579  0.6219
  161SOPE   H5R18011   2.246   4.565  10.047 -2.2633 -1.2007 -2.5773
  161SOPE   H5S18012   2.425   4.528  10.048 -0.5410  0.1442  0.1966
  161SOPE   C2618013   2.300   4.400   9.921 -0.3362 -0.1350 -0.3634
  161SOPE   H6R18014   2.195   4.363   9.912 -0.8365  0.8749  0.9110
  161SOPE   H6S18015   2.301   4.466   9.831 -1.2191 -1.3505 -1.2981
  161SOPE   C2718016   2.407   4.292   9.907 -0.1657  0.0075 -0.5799
  161SOPE   H7R18017   2.503   4.340   9.936  0.1599 -0.7331 -0.4047
  161SOPE   H7S18018   2.382   4.223   9.990  0.8401  0.1727 -0.1335
  161SOPE   C2818019   2.422   4.214   9.779  0.1161  0.5072 -0.2778
  161SOPE   H8R18020   2.315   4.184   9.771 -0.6004  2.3924  1.4782
  161SOPE   H8S18021   2.445   4.287   9.699  0.1582 -0.3355 -1.0507
  161SOPE   C2918022   2.520   4.094   9.801 -0.4431 -0.0026 -0.0622
  161SOPE   H9118023   2.529   4.054   9.903  0.3298 -2.4560 -1.0073
  161SOPE  C21018024   2.594   4.025   9.710 -0.2560  0.2835 -0.2880
  161SOPE  H10118025   2.672   3.954   9.741 -0.7381 -0.3569 -0.5103
  161SOPE  C21118026   2.572   4.059   9.570 -0.1045  0.1040  1.2328
  161SOPE  H11R18027   2.574   4.168   9.551 -0.7178 -0.0169  0.4290
  161SOPE  H11S18028   2.473   4.024   9.534  1.1268 -0.8063 -1.5941
  161SOPE  C21218029   2.666   3.975   9.485 -0.4251 -0.1750 -0.2283
  161SOPE  H12R18030   2.682   3.872   9.525 -1.3172 -0.4656 -0.5852
  161SOPE  H12S18031   2.761   4.031   9.493 -0.0444 -0.8335 -0.0176
  161SOPE  C21318032   2.628   3.976   9.335 -0.1977 -0.6448  0.0428
  161SOPE  H13R18033   2.519   3.953   9.337 -0.0735 -1.2926 -0.3977
  161SOPE  H13S18034   2.679   3.891   9.285 -0.4014 -1.1866  0.7371
  161SOPE  C21418035   2.647   4.101   9.259 -0.6393  0.0579  0.7933
  161SOPE  H14R18036   2.589   4.182   9.309  1.1609  1.6886  0.3980
  161SOPE  H14S18037   2.602   4.073   9.162 -1.5361  2.1297  0.5588
  161SOPE  C21518038   2.794   4.140   9.244 -0.9522  0.0051  0.6258
  161SOPE  H15R18039   2.857   4.052   9.267 -2.7679 -0.7948  2.9377
  161SOPE  H15S18040   2.818   4.219   9.319  1.7497  0.9531 -1.0965
  161SOPE  C21618041   2.828   4.210   9.108  0.3231 -0.0381 -0.3115
  161SOPE  H16R18042   2.939   4.217   9.100  0.2524 -0.6108 -2.6076
  161SOPE  H16S18043   2.780   4.310   9.113 -2.1601 -1.1404 -0.8075
  161SOPE  C21718044   2.789   4.138   8.982 -0.0232 -0.2757  0.4788
  161SOPE  H17R18045   2.678   4.137   8.982 -0.0896  0.6814  3.3134
  161SOPE  H17S18046   2.839   4.039   8.982  4.0584  1.5717  0.5580
  161SOPE  C21818047   2.836   4.218   8.861  0.5364  0.3942 -0.2239
  161SOPE  H18R18048   2.781   4.201   8.766  0.2788  2.4563 -0.4889
  161SOPE  H18S18049   2.945   4.200   8.850  0.2974 -1.2380 -0.1425
  161SOPE  H18T18050   2.821   4.325   8.887  0.4210  0.5137 -0.7688
  161SOPE   C3318051   2.565   4.937   9.974 -0.1728  0.3057  0.0728
  161SOPE   H3X18052   2.619   4.903   9.883 -0.8148 -0.1933 -0.1237
  161SOPE   H3Y18053   2.530   5.041   9.954 -1.1468  0.4400  2.2373
  161SOPE   C3418054   2.450   4.836   9.994 -0.4926  0.7755  0.0675
  161SOPE   H4X18055   2.422   4.868  10.097  2.1489  1.6378  0.6003
  161SOPE   H4Y18056   2.497   4.735   9.995 -1.1322  0.4483  1.8249
  161SOPE   C3518057   2.344   4.868   9.883 -0.0989 -0.2149 -0.6964
  161SOPE   H5X18058   2.313   4.974   9.891  0.4514 -0.0628 -0.5897
  161SOPE   H5Y18059   2.256   4.806   9.911  0.2640 -0.6117 -0.4183
  161SOPE   C3618060   2.394   4.829   9.747  0.3751 -0.4753 -0.1796
  161SOPE   H6X18061   2.406   4.719   9.745  0.2110 -0.4996  0.1461
  161SOPE   H6Y18062   2.495   4.873   9.736  0.8764 -1.4166  0.5576
  161SOPE   C3718063   2.303   4.869   9.642  0.2903  0.1779 -0.1831
  161SOPE   H7X18064   2.272   4.975   9.655  0.4997  0.3426 -0.9930
  161SOPE   H7Y18065   2.208   4.810   9.639 -1.1761  2.4594 -0.9461
  161SOPE   C3818066   2.377   4.836   9.513 -0.8305 -0.1009  0.4728
  161SOPE   H8X18067   2.410   4.730   9.517 -1.5535 -0.3877 -0.7259
  161SOPE   H8Y18068   2.471   4.894   9.503  1.9712 -3.8157  2.5233
  161SOPE   C3918069   2.286   4.848   9.389  0.6557  0.2788 -0.2673
  161SOPE   H9X18070   2.273   4.958   9.384  0.7285  0.4270  2.0465
  161SOPE   H9Y18071   2.189   4.800   9.411  0.4065  1.0699  0.3911
  161SOPE  C31018072   2.353   4.817   9.255  0.1396  0.2371 -0.1627
  161SOPE  H10X18073   2.389   4.713   9.234 -0.1849  0.3537 -1.3574
  161SOPE  H10Y18074   2.433   4.893   9.246 -1.3139  1.7462 -0.9807
  161SOPE  C31118075   2.261   4.836   9.127  0.2948 -0.6723  0.4429
  161SOPE  H11X18076   2.201   4.929   9.141  1.7688  0.6174 -1.4042
  161SOPE  H11Y18077   2.189   4.752   9.121 -1.7351  0.8102  2.3503
  161SOPE  C31218078   2.338   4.820   8.993 -0.0494  0.0281 -0.5835
  161SOPE  H12X18079   2.399   4.727   9.002  2.5688  1.8569  4.7694
  161SOPE  H12Y18080   2.413   4.895   8.960 -0.2799 -0.2721 -1.8572
  161SOPE  C31318081   2.241   4.799   8.870  0.2843 -0.3124  0.6346
  161SOPE  H13X18082   2.161   4.729   8.899 -0.0200  0.0929  0.7811
  161SOPE  H13Y18083   2.299   4.755   8.786  3.5067 -0.0004  2.5013
  161SOPE  C31418084   2.182   4.934   8.822 -0.4060  0.2937 -0.4526
  161SOPE  H14X18085   2.261   4.999   8.780 -1.1426  1.2776 -0.3610
  161SOPE  H14Y18086   2.141   4.985   8.912 -2.6611 -1.6998 -0.2209
  161SOPE  C31518087   2.057   4.922   8.732  1.2124 -0.3783  0.0021
  161SOPE  H15X18088   1.988   5.007   8.755  1.0733 -0.4507 -0.1489
  161SOPE  H15Y18089   2.012   4.826   8.765  1.2608 -1.2804 -2.3688
  161SOPE  C31618090   2.100   4.926   8.583 -0.6334  0.1295 -0.2673
  161SOPE  H16X18091   2.158   4.835   8.556 -1.7729 -0.2662 -1.4806
  161SOPE  H16Y18092   2.146   5.024   8.560 -0.2673  0.7617  2.7290
  161SOPE  C31718093   1.966   4.914   8.505 -0.0660 -1.1013  0.4051
  161SOPE  H17X18094   1.882   4.959   8.561 -0.7922 -1.7633 -0.1209
  161SOPE  H17Y18095   1.932   4.808   8.503 -1.7645 -0.5935 -0.2531
  161SOPE  C31818096   1.981   4.974   8.360  0.7852 -0.2855 -0.4736
  161SOPE  H18X18097   2.077   4.936   8.317  0.8957  0.2128 -0.6641
  161SOPE  H18Y18098   1.992   5.083   8.377 -0.3077  0.0206 -1.6425
  161SOPE  H18Z18099   1.892   4.961   8.295 -0.3563  3.2960  0.1782
  162SOPE     N18100   6.556   3.333  10.917  0.0333  0.5226 -1.4015
  162SOPE   HN118101   6.568   3.436  10.904  0.3308  0.5983 -0.6283
  162SOPE   HN218102   6.601   3.282  10.838  0.3703  2.1531 -2.3096
  162SOPE   HN318103   6.455   3.310  10.913  0.3313 -0.6191 -3.0794
  162SOPE   C1218104   6.602   3.284  11.057  0.2401  0.2686  0.3017
  162SOPE  H12A18105   6.543   3.195  11.084  0.2237  0.4399  0.8484
  162SOPE  H12B18106   6.571   3.362  11.130 -0.5743 -1.6419  2.1130
  162SOPE   C1118107   6.754   3.269  11.063 -0.4491  0.4276  0.6838
  162SOPE  H11A18108   6.789   3.181  11.006  1.2355  1.6798 -0.3047
  162SOPE  H11B18109   6.780   3.250  11.170 -2.1929  0.7075  1.1974
  162SOPE     P18110   6.980   3.417  11.022  0.2734  0.1741 -0.2104
  162SOPE   O1318111   7.040   3.306  11.102  0.4174 -0.7413  0.2570
  162SOPE   O1418112   6.996   3.552  11.080  0.5328  0.0539  0.0486
  162SOPE   O1218113   6.824   3.378  11.008 -0.2675 -0.1020 -0.3953
  162SOPE   O1118114   7.037   3.417  10.871  0.0657  0.4775 -0.9049
  162SOPE    C118115   6.943   3.419  10.766  1.0988  0.3243  0.5151
  162SOPE    HA18116   6.883   3.511  10.783  0.7234  0.1111  0.3364
  162SOPE    HB18117   6.871   3.335  10.770  0.5174  0.7663 -0.3818
  162SOPE    C218118   7.004   3.430  10.626  0.2981  0.0137 -0.2384
  162SOPE    HS18119   7.052   3.332  10.606 -0.4455  0.0463 -2.5112
  162SOPE   O2118120   7.097   3.545  10.621  0.0478  0.1222 -0.5708
  162SOPE   C2118121   7.223   3.518  10.580 -0.4019  1.0423 -1.0181
  162SOPE   O2218122   7.265   3.407  10.549 -0.3182  0.1848  0.5147
  162SOPE   C2218123   7.310   3.641  10.552  0.4966 -0.4135  0.4006
  162SOPE   H2R18124   7.408   3.605  10.515  0.8742 -0.1645  1.1499
  162SOPE   H2S18125   7.338   3.687  10.649  2.7219  0.1772 -0.4615
  162SOPE    C318126   6.894   3.443  10.518 -0.4090  0.2242 -0.4661
  162SOPE    HX18127   6.854   3.546  10.526  1.4415  0.8451  1.5751
  162SOPE    HY18128   6.811   3.374  10.544  0.8851 -0.6583  1.4938
  162SOPE   O3118129   6.949   3.409  10.387  0.3982 -0.2882 -0.1957
  162SOPE   C3118130   6.956   3.279  10.359  0.1777 -0.0390 -0.0638
  162SOPE   O3218131   6.924   3.189  10.440 -0.0003  0.6661  0.1185
  162SOPE   C3218132   7.004   3.249  10.217 -0.2979 -0.5682  1.1700
  162SOPE   H2X18133   6.951   3.331  10.165 -1.1428 -2.6710 -1.5462
  162SOPE   H2Y18134   6.961   3.149  10.194  0.8439 -0.8956  0.3776
  162SOPE   C2318135   7.253   3.736  10.453  0.6012  0.3607  0.2754
  162SOPE   H3R18136   7.335   3.808  10.431  2.6020 -2.4028 -2.0194
  162SOPE   H3S18137   7.164   3.787  10.495 -0.5211 -1.9739  0.8935
  162SOPE   C2418138   7.231   3.671  10.322  0.4305  0.9062 -0.3764
  162SOPE   H4R18139   7.318   3.612  10.285  0.1499  0.4511 -0.3105
  162SOPE   H4S18140   7.149   3.596  10.319 -1.4424  2.7794 -4.1193
  162SOPE   C2518141   7.188   3.781  10.218  0.2001  0.7535 -0.1795
  162SOPE   H5R18142   7.099   3.830  10.263 -0.7526 -0.5219 -0.6064
  162SOPE   H5S18143   7.274   3.852  10.214  0.5471  0.3433 -0.0770
  162SOPE   C2618144   7.153   3.740  10.078  0.0647  0.4039  0.1912
  162SOPE   H6R18145   7.119   3.832  10.027 -1.6531  0.8160  1.9575
  162SOPE   H6S18146   7.244   3.702  10.027 -1.3742 -3.7436  0.3287
  162SOPE   C2718147   7.036   3.639  10.062  0.4547 -0.1549 -0.2715
  162SOPE   H7R18148   7.059   3.550  10.125 -0.9902 -0.5418 -0.2470
  162SOPE   H7S18149   6.943   3.675  10.111  0.3484  0.5477 -0.9821
  162SOPE   C2818150   7.024   3.592   9.921  0.8858  0.3733 -0.3776
  162SOPE   H8R18151   7.125   3.552   9.899  1.5986  1.3510  0.9856
  162SOPE   H8S18152   6.957   3.503   9.925 -0.3720  1.3238  1.1124
  162SOPE   C2918153   6.966   3.691   9.821  0.0935 -0.6357  0.0898
  162SOPE   H9118154   6.864   3.724   9.847  1.6409  4.7631  0.4649
  162SOPE  C21018155   7.029   3.741   9.712  0.1791 -0.5467  0.4667
  162SOPE  H10118156   6.971   3.810   9.650  2.5650 -0.3606 -1.7212
  162SOPE  C21118157   7.165   3.722   9.659  0.1974 -0.4160  0.3950
  162SOPE  H11R18158   7.237   3.670   9.726  2.6625  0.3044 -1.5483
  162SOPE  H11S18159   7.210   3.819   9.629 -0.7840 -0.4919 -1.4185
  162SOPE  C21218160   7.165   3.653   9.525 -0.4854  0.7398  0.5829
  162SOPE  H12R18161   7.094   3.567   9.524 -1.1556  1.2503 -1.4178
  162SOPE  H12S18162   7.270   3.622   9.505 -0.7855  0.6218 -0.9336
  162SOPE  C21318163   7.120   3.743   9.407 -0.0642  0.8262  0.8927
  162SOPE  H13R18164   7.197   3.822   9.403  2.0034 -1.0987  0.4922
  162SOPE  H13S18165   7.023   3.789   9.434 -0.3356 -0.2896  1.9184
  162SOPE  C21418166   7.116   3.675   9.268  0.1238  0.3262  0.2071
  162SOPE  H14R18167   7.064   3.577   9.271  2.0115 -0.6973  1.5606
  162SOPE  H14S18168   7.217   3.641   9.234 -0.0956 -1.4077  1.1457
  162SOPE  C21518169   7.043   3.760   9.165  0.0347  0.6315 -0.0239
  162SOPE  H15R18170   7.106   3.851   9.156 -0.5924  1.4650  2.9866
  162SOPE  H15S18171   6.943   3.801   9.189  0.1796  2.2251 -1.8925
  162SOPE  C21618172   7.019   3.685   9.027  0.3643  0.0380  0.2824
  162SOPE  H16R18173   6.929   3.621   9.015  0.6328  0.0651 -2.7779
  162SOPE  H16S18174   7.097   3.608   9.010 -3.1917 -3.4470 -2.1782
  162SOPE  C21718175   7.042   3.782   8.903  0.5318  0.0844  0.0661
  162SOPE  H17R18176   7.139   3.836   8.908  0.3277  0.4057  0.8340
  162SOPE  H17S18177   6.968   3.864   8.917  1.1640  0.3365  2.4920
  162SOPE  C21818178   7.018   3.707   8.772 -0.6588  0.3826 -0.7323
  162SOPE  H18R18179   7.102   3.636   8.758  0.9570  1.7752  1.2438
  162SOPE  H18S18180   7.010   3.780   8.689 -3.2203 -2.2679 -3.0422
  162SOPE  H18T18181   6.920   3.654   8.772  0.6736 -2.3562  1.4633
  162SOPE   C3318182   7.160   3.242  10.212  0.2645 -0.1257  0.0335
  162SOPE   H3X18183   7.201   3.143  10.239  1.7870 -0.3323 -2.6316
  162SOPE   H3Y18184   7.194   3.302  10.299  1.0320 -1.8733  0.9819
  162SOPE   C3418185   7.223   3.286  10.079  0.2965 -0.2292  0.4298
  162SOPE   H4X18186   7.172   3.383  10.057 -1.6463 -1.3141 -0.0106
  162SOPE   H4Y18187   7.209   3.214   9.995 -3.3638  2.7259 -1.8079
  162SOPE   C3518188   7.371   3.330  10.064  0.2902 -0.0731 -0.0045
  162SOPE   H5X18189   7.432   3.240  10.087 -1.1795 -0.6989  1.7260
  162SOPE   H5Y18190   7.392   3.401  10.146 -0.3626 -1.3147  1.2737
  162SOPE   C3618191   7.389   3.383   9.919 -0.9022 -0.5903  0.2773
  162SOPE   H6X18192   7.345   3.482   9.898  1.1700 -0.1844 -2.7654
  162SOPE   H6Y18193   7.339   3.315   9.846 -2.5289  1.2448 -0.3875
  162SOPE   C3718194   7.538   3.392   9.886 -0.4049  0.4117 -0.2406
  162SOPE   H7X18195   7.585   3.291   9.883  0.3554  0.7537 -0.1392
  162SOPE   H7Y18196   7.580   3.441   9.976 -0.9530 -1.6370  1.1933
  162SOPE   C3818197   7.570   3.477   9.761  0.2050  0.2545 -0.2613
  162SOPE   H8X18198   7.674   3.507   9.785  0.3420 -0.7044  0.4274
  162SOPE   H8Y18199   7.503   3.565   9.753  0.7241  0.6504 -0.2995
  162SOPE   C3918200   7.549   3.406   9.633 -0.2596  0.4193 -0.0094
  162SOPE   H9X18201   7.611   3.316   9.648 -0.9181  0.0026  0.2737
  162SOPE   H9Y18202   7.592   3.467   9.550  1.0407  0.3803  0.6140
  162SOPE  C31018203   7.406   3.364   9.600  0.1109  0.4511  0.1522
  162SOPE  H10X18204   7.341   3.449   9.629 -1.5215  0.2337 -2.5095
  162SOPE  H10Y18205   7.392   3.266   9.650 -0.3135  0.1957 -0.4583
  162SOPE  C31118206   7.369   3.337   9.450 -0.3653 -0.1189 -0.4393
  162SOPE  H11X18207   7.375   3.440   9.408  0.5637 -0.3415 -0.8756
  162SOPE  H11Y18208   7.267   3.293   9.447  0.5400 -2.2616 -2.0019
  162SOPE  C31218209   7.471   3.244   9.377 -0.1265  0.4776 -0.7035
  162SOPE  H12X18210   7.499   3.170   9.454  0.9820 -0.6783 -2.1594
  162SOPE  H12Y18211   7.563   3.302   9.354 -0.7704  1.4044 -1.0256
  162SOPE  C31318212   7.424   3.173   9.257 -0.7432  0.6004 -0.4221
  162SOPE  H13X18213   7.360   3.091   9.297  2.1039 -1.5682 -0.0118
  162SOPE  H13Y18214   7.518   3.140   9.207 -1.3107 -3.0640  0.5785
  162SOPE  C31418215   7.328   3.247   9.160  0.4958 -0.4008  0.5256
  162SOPE  H14X18216   7.373   3.346   9.140  3.3108 -1.4312  1.3084
  162SOPE  H14Y18217   7.228   3.269   9.204 -0.1925 -2.6162  0.2214
  162SOPE  C31518218   7.299   3.170   9.028  0.0535  0.0160  0.5372
  162SOPE  H15X18219   7.242   3.246   8.970  0.4857  0.2535  0.4208
  162SOPE  H15Y18220   7.240   3.080   9.053  1.2639 -0.8567  0.3281
  162SOPE  C31618221   7.428   3.137   8.948 -0.3231 -0.6050  0.2435
  162SOPE  H16X18222   7.491   3.072   9.012  1.0419  0.5253  0.1025
  162SOPE  H16Y18223   7.483   3.230   8.922 -3.0413  1.2074  0.4736
  162SOPE  C31718224   7.389   3.053   8.817  0.3612  0.0080  0.2761
  162SOPE  H17X18225   7.329   2.966   8.851 -0.0802  0.4418  0.6291
  162SOPE  H17Y18226   7.485   3.015   8.777  1.3489  1.1398  1.4790
  162SOPE  C31818227   7.317   3.129   8.716 -0.0567 -0.1754 -0.2043
  162SOPE  H18X18228   7.389   3.203   8.674  0.2153 -0.2399  0.1483
  162SOPE  H18Y18229   7.226   3.177   8.758  0.6786 -0.2874  1.6053
  162SOPE  H18Z18230   7.281   3.058   8.639 -1.5220  0.6078 -0.2771
  163SOPE     N18231   1.953   0.562  10.791 -0.3462 -0.1290  0.7610
  163SOPE   HN118232   2.001   0.592  10.878 -1.5031 -0.9811  1.7297
  163SOPE   HN218233   1.917   0.649  10.747  0.1024  0.0528  0.7428
  163SOPE   HN318234   1.876   0.496  10.817  0.0841 -0.4075  1.3615
  163SOPE   C1218235   2.040   0.521  10.675  0.6371  0.4696  0.3514
  163SOPE  H12A18236   1.979   0.516  10.582  0.9504 -2.6718  0.2171
  163SOPE  H12B18237   2.074   0.419  10.703 -0.0980 -0.7299 -2.7219
  163SOPE   C1118238   2.151   0.621  10.648  0.3923  0.0535  0.1944
  163SOPE  H11A18239   2.103   0.715  10.614  1.7403 -0.6951 -4.5100
  163SOPE  H11B18240   2.202   0.573  10.561 -0.5038 -1.2252  0.3555
  163SOPE     P18241   2.382   0.552  10.761 -0.0035 -0.2601  0.0904
  163SOPE   O1318242   2.344   0.408  10.766  0.4591  0.3193  0.3222
  163SOPE   O1418243   2.464   0.603  10.867 -0.1158  0.1266  0.1841
  163SOPE   O1218244   2.249   0.635  10.760  1.0507  0.0063 -0.0548
  163SOPE   O1118245   2.457   0.588  10.632  0.4220 -0.5642  0.3204
  163SOPE    C118246   2.501   0.721  10.602 -0.2366  0.3869  0.0448
  163SOPE    HA18247   2.610   0.722  10.624  0.3180  3.5616 -2.0880
  163SOPE    HB18248   2.464   0.796  10.676  0.8443  2.8075 -1.7193
  163SOPE    C218249   2.470   0.764  10.458  0.2428  0.6818 -0.1239
  163SOPE    HS18250   2.524   0.857  10.429  0.5861  1.0267  1.4998
  163SOPE   O2118251   2.331   0.792  10.447 -0.4872  0.4084  0.2257
  163SOPE   C2118252   2.286   0.914  10.486 -0.0291  0.5803 -0.2145
  163SOPE   O2218253   2.358   0.989  10.548  0.5979 -0.5355 -0.0162
  163SOPE   C2218254   2.140   0.938  10.471 -0.0800  0.0969  0.0884
  163SOPE   H2R18255   2.094   0.954  10.571 -0.5700 -0.2437 -0.0804
  163SOPE   H2S18256   2.094   0.846  10.429  0.5437 -1.1193  1.9359
  163SOPE    C318257   2.517   0.644  10.368  1.1762 -0.1373 -0.1722
  163SOPE    HX18258   2.447   0.560  10.386  3.3269 -1.7560  1.1339
  163SOPE    HY18259   2.616   0.606  10.401  1.5920  1.6772  0.8028
  163SOPE   O3118260   2.526   0.683  10.229 -0.4086  0.1665  0.1187
  163SOPE   C3118261   2.406   0.672  10.164 -0.5797 -0.7698  0.7133
  163SOPE   O3218262   2.312   0.606  10.205  0.1745 -0.1664 -0.1125
  163SOPE   C3218263   2.402   0.754  10.034 -0.2153  0.9181  0.5721
  163SOPE   H2X18264   2.482   0.701   9.977 -1.6517  0.1008 -0.7720
  163SOPE   H2Y18265   2.438   0.859  10.038  2.1290  0.2152 -0.0986
  163SOPE   C2318266   2.107   1.063  10.373  0.1604  0.3436  0.1399
  163SOPE   H3R18267   2.164   1.157  10.392  0.4178 -0.0478  1.3879
  163SOPE   H3S18268   2.001   1.091  10.388  0.2787 -0.4914  3.2039
  163SOPE   C2418269   2.131   1.028  10.221 -0.2520  0.3720  0.4009
  163SOPE   H4R18270   2.242   1.028  10.217 -0.1298 -1.3310  2.2685
  163SOPE   H4S18271   2.100   0.927  10.188  2.1891  0.1050 -1.3955
  163SOPE   C2518272   2.068   1.119  10.110 -0.2992  0.7744  1.0193
  163SOPE   H5R18273   1.966   1.085  10.080  0.7547 -0.0700 -1.9867
  163SOPE   H5S18274   2.057   1.220  10.155 -1.3042 -0.4478  3.7671
  163SOPE   C2618275   2.159   1.119   9.991 -0.9653  0.0598  0.4168
  163SOPE   H6R18276   2.258   1.156  10.026  0.2112 -0.8096 -1.8041
  163SOPE   H6S18277   2.173   1.017   9.951 -0.1425 -0.7028  2.4879
  163SOPE   C2718278   2.107   1.213   9.882 -0.3211  0.1333  0.1031
  163SOPE   H7R18279   2.019   1.152   9.854  0.5042 -2.1932  2.2182
  163SOPE   H7S18280   2.070   1.307   9.929  0.1706  1.0923 -1.3667
  163SOPE   C2818281   2.216   1.262   9.785 -0.0539 -0.0304  0.0515
  163SOPE   H8R18282   2.174   1.327   9.706 -1.2712 -0.6223  0.1849
  163SOPE   H8S18283   2.279   1.339   9.836 -1.3247  0.9384  0.2055
  163SOPE   C2918284   2.287   1.147   9.722 -0.3530  0.5693  0.9678
  163SOPE   H9118285   2.338   1.077   9.790  1.6511  0.1286 -0.8803
  163SOPE  C21018286   2.292   1.110   9.590 -0.9813  0.2083  0.4637
  163SOPE  H10118287   2.336   1.012   9.565 -1.2819  0.2956 -0.4352
  163SOPE  C21118288   2.234   1.185   9.473  0.3238  0.4384 -0.1106
  163SOPE  H11R18289   2.313   1.233   9.412 -0.6375  0.8680 -1.0576
  163SOPE  H11S18290   2.159   1.257   9.511 -0.1344 -0.8818  1.6459
  163SOPE  C21218291   2.143   1.094   9.388  0.0035 -0.6513  0.6943
  163SOPE  H12R18292   2.071   1.031   9.445 -1.1424 -0.1206 -0.1414
  163SOPE  H12S18293   2.214   1.023   9.341 -1.1742 -1.8709  0.6795
  163SOPE  C21318294   2.052   1.159   9.294  0.3619 -0.0225 -0.1946
  163SOPE  H13R18295   1.999   1.238   9.351 -1.4118 -0.3566 -1.3276
  163SOPE  H13S18296   1.971   1.089   9.263  0.9533 -1.0795  0.5612
  163SOPE  C21418297   2.106   1.231   9.168 -0.0544 -0.7627 -0.3024
  163SOPE  H14R18298   2.198   1.182   9.130  0.0175 -1.1926  0.3876
  163SOPE  H14S18299   2.145   1.328   9.205  2.7843 -1.9907  0.2342
  163SOPE  C21518300   2.009   1.254   9.052  0.0674  0.3205  0.3241
  163SOPE  H15R18301   1.907   1.290   9.079 -0.0282  0.4626 -0.2102
  163SOPE  H15S18302   2.006   1.159   8.994  0.6873 -1.1912  2.6338
  163SOPE  C21618303   2.072   1.362   8.961 -0.5114  0.8694 -0.1713
  163SOPE  H16R18304   2.165   1.318   8.918 -0.3792  1.3997 -0.4331
  163SOPE  H16S18305   2.115   1.443   9.024  0.1752  1.0413 -0.8370
  163SOPE  C21718306   1.989   1.416   8.847  0.3438 -0.1941 -0.4039
  163SOPE  H17R18307   1.938   1.328   8.802 -0.4540  0.4146 -0.7288
  163SOPE  H17S18308   2.050   1.437   8.757 -1.2028 -1.5497 -1.8515
  163SOPE  C21818309   1.896   1.529   8.897  0.4014 -0.7166 -0.5030
  163SOPE  H18R18310   1.844   1.576   8.810 -1.9199  0.2564  1.3056
  163SOPE  H18S18311   1.963   1.610   8.932  0.0342  0.1738 -1.7924
  163SOPE  H18T18312   1.822   1.508   8.977  1.4338  1.4776  1.1405
  163SOPE   C3318313   2.275   0.714   9.954 -0.4716  0.8392 -0.3801
  163SOPE   H3X18314   2.185   0.756  10.004  0.8492  1.0303  1.9572
  163SOPE   H3Y18315   2.262   0.604   9.946  0.6043  0.3389  3.1225
  163SOPE   C3418316   2.269   0.766   9.815  0.1175  0.0846 -0.1186
  163SOPE   H4X18317   2.301   0.871   9.801  2.5162 -0.6894 -0.9637
  163SOPE   H4Y18318   2.161   0.770   9.788  0.2464 -0.1358 -0.6851
  163SOPE   C3518319   2.322   0.676   9.703  0.4831 -0.2387  0.1487
  163SOPE   H5X18320   2.293   0.573   9.729  0.3041  0.4515  2.9717
  163SOPE   H5Y18321   2.433   0.671   9.694  0.4707  0.2610 -0.3965
  163SOPE   C3618322   2.268   0.707   9.569  0.0003 -0.2461  0.4778
  163SOPE   H6X18323   2.331   0.795   9.544 -0.2823 -0.3874 -0.8006
  163SOPE   H6Y18324   2.160   0.733   9.572 -0.0575 -0.6094  2.3588
  163SOPE   C3718325   2.285   0.599   9.463  0.1142 -0.2226 -0.2667
  163SOPE   H7X18326   2.236   0.507   9.500 -2.2373 -0.1271 -2.7998
  163SOPE   H7Y18327   2.390   0.569   9.442  0.4204  0.2884  0.5057
  163SOPE   C3818328   2.212   0.624   9.327  0.2852 -0.1127 -0.1482
  163SOPE   H8X18329   2.115   0.671   9.353 -0.1640 -0.5031 -1.0702
  163SOPE   H8Y18330   2.194   0.531   9.268 -1.3759 -0.2059  0.4560
  163SOPE   C3918331   2.292   0.732   9.255 -0.1829  0.0630  0.1442
  163SOPE   H9X18332   2.400   0.709   9.239 -0.1970  0.2314 -0.2124
  163SOPE   H9Y18333   2.295   0.830   9.306 -0.7725  0.5486 -0.7305
  163SOPE  C31018334   2.227   0.764   9.118  0.4034  0.2557 -0.5433
  163SOPE  H10X18335   2.125   0.807   9.128 -0.3700 -1.4474 -0.7233
  163SOPE  H10Y18336   2.215   0.676   9.052 -0.0327  1.3707 -2.0220
  163SOPE  C31118337   2.308   0.868   9.038  0.4908  0.8828  0.5455
  163SOPE  H11X18338   2.411   0.835   9.013  0.1208 -0.1384  0.3013
  163SOPE  H11Y18339   2.317   0.964   9.093  2.0953  0.3781  1.2052
  163SOPE  C31218340   2.231   0.891   8.915 -0.1920  0.0729 -0.0744
  163SOPE  H12X18341   2.137   0.927   8.961 -0.9458  0.7854 -2.0651
  163SOPE  H12Y18342   2.205   0.803   8.852  0.3916  0.3623 -0.7384
  163SOPE  C31318343   2.312   0.982   8.820  0.0490 -0.6356 -0.0144
  163SOPE  H13X18344   2.378   0.913   8.763  0.7479  0.5683 -0.6921
  163SOPE  H13Y18345   2.381   1.047   8.877 -0.4878 -0.9387  1.0065
  163SOPE  C31418346   2.227   1.066   8.735  0.5972  0.3066 -0.8126
  163SOPE  H14X18347   2.172   1.127   8.809 -0.4399 -1.8259  0.2785
  163SOPE  H14Y18348   2.149   1.007   8.682 -1.7949  1.8622  0.7952
  163SOPE  C31518349   2.309   1.136   8.628 -0.3636 -0.5417 -0.1968
  163SOPE  H15X18350   2.348   1.056   8.562 -0.2995  0.0992 -0.9550
  163SOPE  H15Y18351   2.399   1.184   8.675  1.7858 -2.9750 -1.5885
  163SOPE  C31618352   2.229   1.241   8.546 -0.4692 -0.0429  0.6505
  163SOPE  H16X18353   2.196   1.319   8.617  1.3100  0.6317  0.7764
  163SOPE  H16Y18354   2.147   1.194   8.488  0.1976  0.1994 -0.5289
  163SOPE  C31718355   2.327   1.305   8.439 -0.3542  0.0463  0.2282
  163SOPE  H17X18356   2.352   1.225   8.366 -2.0881  0.9990 -1.5050
  163SOPE  H17Y18357   2.420   1.339   8.490  0.4494 -0.7201 -0.6812
  163SOPE  C31818358   2.281   1.424   8.357  0.1210  1.1551  0.1073
  163SOPE  H18X18359   2.176   1.419   8.321  0.3531 -0.9197 -0.4370
  163SOPE  H18Y18360   2.342   1.428   8.265 -0.2774  0.2840 -0.2102
  163SOPE  H18Z18361   2.305   1.509   8.425 -0.5860  0.5451  1.1569
  164SOPE     N18362   5.127   5.556  11.113  0.3469 -0.2033  0.2304
  164SOPE   HN118363   5.204   5.486  11.114 -2.1752 -3.2520  2.5954
  164SOPE   HN218364   5.139   5.598  11.019  1.9180  2.6017  1.5577
  164SOPE   HN318365   5.155   5.629  11.182 -2.6038  1.7153 -0.3907
  164SOPE   C1218366   4.991   5.493  11.121 -1.0080  0.5604  0.2356
  164SOPE  H12A18367   4.980   5.444  11.220  0.8406  1.7318  1.0970
  164SOPE  H12B18368   4.984   5.414  11.043 -1.5217  0.1089  0.7347
  164SOPE   C1118369   4.881   5.593  11.106  0.5570 -0.2065 -0.2553
  164SOPE  H11A18370   4.882   5.669  11.188  0.7255  0.2426 -0.6711
  164SOPE  H11B18371   4.781   5.546  11.101  1.7401 -2.8649 -0.5482
  164SOPE     P18372   4.871   5.637  10.845 -0.1507 -0.2148  0.7881
  164SOPE   O1318373   4.768   5.737  10.796 -0.0846 -0.0221 -0.0420
  164SOPE   O1418374   4.850   5.493  10.831  0.5593  0.2851 -0.6244
  164SOPE   O1218375   4.899   5.673  10.991  0.1106  0.1489 -0.5346
  164SOPE   O1118376   5.001   5.669  10.766 -0.0545  0.1266 -0.0356
  164SOPE    C118377   5.063   5.796  10.750  0.6926 -0.4400 -0.7283
  164SOPE    HA18378   5.169   5.796  10.784  1.3481 -0.1959 -2.6805
  164SOPE    HB18379   5.014   5.878  10.807 -0.1279 -0.9154 -0.7478
  164SOPE    C218380   5.082   5.828  10.597  0.2633  0.5662 -0.7244
  164SOPE    HS18381   5.148   5.917  10.592  0.7651  0.2269 -0.2516
  164SOPE   O2118382   4.952   5.838  10.531 -0.2576  0.0333 -0.0081
  164SOPE   C2118383   4.880   5.946  10.556 -0.6994  0.1172  0.4855
  164SOPE   O2218384   4.921   6.040  10.627  0.0749  0.3696  0.8869
  164SOPE   C2218385   4.753   5.945  10.471 -0.0756  0.5453 -0.2736
  164SOPE   H2R18386   4.701   6.043  10.479  0.1782  0.9210 -2.6087
  164SOPE   H2S18387   4.696   5.856  10.505 -0.6840  0.5360 -1.2605
  164SOPE    C318388   5.143   5.709  10.523 -0.9482  0.4346  0.2336
  164SOPE    HX18389   5.062   5.632  10.515 -3.1626  2.3228  2.5062
  164SOPE    HY18390   5.222   5.672  10.592 -3.3538  1.7216  4.0059
  164SOPE   O3118391   5.193   5.747  10.394  0.1384 -0.0544 -0.5682
  164SOPE   C3118392   5.235   5.655  10.310  0.4982  0.2246 -0.1104
  164SOPE   O3218393   5.238   5.535  10.343  0.1082  0.0301 -0.6231
  164SOPE   C3218394   5.264   5.723  10.176  0.0992  0.3027 -0.0423
  164SOPE   H2X18395   5.359   5.779  10.177  0.3975 -0.0425 -2.3909
  164SOPE   H2Y18396   5.178   5.792  10.163  0.4610  1.4711  3.0485
  164SOPE   C2318397   4.785   5.927  10.320  0.5862  0.5501  0.4844
  164SOPE   H3R18398   4.828   5.827  10.299  0.2508  0.8097 -1.6733
  164SOPE   H3S18399   4.868   5.990  10.281  0.1647  1.1667  0.5671
  164SOPE   C2418400   4.664   5.924  10.226 -0.2249  0.0711 -0.2211
  164SOPE   H4R18401   4.598   5.838  10.254 -0.9364  1.0825  1.3289
  164SOPE   H4S18402   4.611   6.020  10.244 -0.8124 -0.8403  3.8686
  164SOPE   C2518403   4.713   5.927  10.082 -0.2559 -0.7442 -0.0398
  164SOPE   H5R18404   4.776   6.017  10.068  0.5122 -1.2788 -0.0452
  164SOPE   H5S18405   4.760   5.828  10.063 -0.0678 -0.8301  0.8559
  164SOPE   C2618406   4.613   5.953   9.973 -0.0050 -0.5668 -0.4613
  164SOPE   H6R18407   4.559   6.046  10.001 -0.0108 -1.0190  1.1379
  164SOPE   H6S18408   4.649   5.966   9.868 -3.0559  1.3577 -1.4251
  164SOPE   C2718409   4.506   5.838   9.970 -0.4217 -0.0283 -0.3134
  164SOPE   H7R18410   4.564   5.745   9.989  1.5013  1.4348  1.6387
  164SOPE   H7S18411   4.434   5.861  10.052  2.6651  3.2770  1.7845
  164SOPE   C2818412   4.439   5.850   9.828  0.1745 -0.1418 -0.5882
  164SOPE   H8R18413   4.353   5.779   9.826 -2.2041  2.4246  1.9915
  164SOPE   H8S18414   4.400   5.953   9.809  1.7541  0.2006 -2.2321
  164SOPE   C2918415   4.527   5.803   9.713  0.5908  0.0135  0.5028
  164SOPE   H9118416   4.548   5.695   9.709 -1.9138 -0.5028 -0.6197
  164SOPE  C21018417   4.577   5.876   9.609  0.1732  0.2319  0.1709
  164SOPE  H10118418   4.638   5.823   9.534 -1.5576 -0.3108 -0.9296
  164SOPE  C21118419   4.553   6.023   9.596  0.1481  0.0022 -0.5799
  164SOPE  H11R18420   4.642   6.082   9.567 -0.5677  0.3237 -2.2002
  164SOPE  H11S18421   4.529   6.076   9.691 -0.1487  1.8516 -1.6529
  164SOPE  C21218422   4.434   6.058   9.510 -1.1572  0.2423  0.0972
  164SOPE  H12R18423   4.352   6.097   9.574 -2.5735 -0.9486 -0.9206
  164SOPE  H12S18424   4.392   5.974   9.450  0.4540  1.0379 -2.3223
  164SOPE  C21318425   4.453   6.169   9.402  0.2338 -0.2256 -0.4962
  164SOPE  H13R18426   4.466   6.270   9.446 -1.5495  0.5759 -1.6837
  164SOPE  H13S18427   4.358   6.184   9.346 -1.4170 -1.2250  1.8550
  164SOPE  C21418428   4.568   6.136   9.310 -0.3615 -0.2934  0.0564
  164SOPE  H14R18429   4.564   6.029   9.279  2.9070 -0.6327  0.5010
  164SOPE  H14S18430   4.659   6.166   9.367 -0.3763  0.0208 -0.0824
  164SOPE  C21518431   4.565   6.225   9.193 -0.2470 -0.1233 -0.3277
  164SOPE  H15R18432   4.576   6.324   9.243 -0.0427 -0.8622  1.1260
  164SOPE  H15S18433   4.471   6.218   9.135 -1.1606 -0.3139  1.1186
  164SOPE  C21618434   4.691   6.214   9.101 -0.3236  0.5837 -0.9289
  164SOPE  H16R18435   4.780   6.264   9.146  0.5113 -1.0480 -0.6812
  164SOPE  H16S18436   4.674   6.281   9.014 -0.0116 -0.0750 -1.5121
  164SOPE  C21718437   4.718   6.067   9.075  0.0974  0.1524  0.5564
  164SOPE  H17R18438   4.755   6.021   9.169 -0.7902 -0.8356  0.4465
  164SOPE  H17S18439   4.803   6.048   9.006  0.4249  0.6660  0.8149
  164SOPE  C21818440   4.601   5.984   9.007 -0.2652  0.2907  0.2197
  164SOPE  H18R18441   4.584   6.008   8.899 -1.1082  0.9377  0.4834
  164SOPE  H18S18442   4.504   6.000   9.058  0.4129  0.7172  1.3988
  164SOPE  H18T18443   4.617   5.875   9.022 -0.7605  0.4744  2.3761
  164SOPE   C3318444   5.260   5.627  10.056 -0.2314  0.8955  0.2177
  164SOPE   H3X18445   5.174   5.557  10.062  0.3373  0.2490  1.0410
  164SOPE   H3Y18446   5.355   5.568  10.049 -0.6505  0.1601  0.5745
  164SOPE   C3418447   5.234   5.704   9.925 -0.2677  0.1454  0.2234
  164SOPE   H4X18448   5.307   5.786   9.913 -0.0457 -0.3228 -2.1276
  164SOPE   H4Y18449   5.129   5.741   9.915  0.0592  1.2814  0.8410
  164SOPE   C3518450   5.265   5.621   9.793 -0.0612 -0.6726 -0.0140
  164SOPE   H5X18451   5.191   5.542   9.769 -0.5501  0.3989 -2.3300
  164SOPE   H5Y18452   5.362   5.568   9.799  1.4864  2.0250  0.4637
  164SOPE   C3618453   5.264   5.699   9.662  0.0017  0.2480  0.3632
  164SOPE   H6X18454   5.332   5.783   9.687 -0.0008  0.6906 -1.0563
  164SOPE   H6Y18455   5.161   5.739   9.650  0.0848  0.1775 -0.6309
  164SOPE   C3718456   5.315   5.619   9.540  0.0651 -0.1613 -0.1785
  164SOPE   H7X18457   5.236   5.549   9.506 -1.1539  0.3786  1.3709
  164SOPE   H7Y18458   5.411   5.572   9.571  2.4395  2.9781 -2.1365
  164SOPE   C3818459   5.343   5.718   9.419  0.5438 -0.4197  0.1797
  164SOPE   H8X18460   5.426   5.789   9.438 -0.9386  1.3621  0.2824
  164SOPE   H8Y18461   5.251   5.781   9.410 -0.8036 -2.3116  0.1661
  164SOPE   C3918462   5.357   5.648   9.279  0.6227 -0.4218  0.3510
  164SOPE   H9X18463   5.261   5.603   9.246  0.3870  0.9213 -0.8974
  164SOPE   H9Y18464   5.423   5.559   9.288  3.0568  1.4233  2.1111
  164SOPE  C31018465   5.410   5.739   9.167 -0.1485  0.2982 -0.2849
  164SOPE  H10X18466   5.503   5.790   9.202  0.6602 -0.7431 -0.8493
  164SOPE  H10Y18467   5.344   5.827   9.156 -0.3864 -0.0191 -1.4702
  164SOPE  C31118468   5.434   5.674   9.033 -0.4219  0.2935  0.8234
  164SOPE  H11X18469   5.340   5.636   8.987 -0.7286  2.9806 -1.0630
  164SOPE  H11Y18470   5.503   5.591   9.059 -1.1136  0.0587  1.9772
  164SOPE  C31218471   5.511   5.760   8.930  0.0337  0.3396 -0.1312
  164SOPE  H12X18472   5.597   5.814   8.974 -1.0691  1.1649  1.0866
  164SOPE  H12Y18473   5.439   5.840   8.899 -0.0404  0.4050  0.2117
  164SOPE  C31318474   5.562   5.693   8.793  0.2143 -0.5839 -0.5733
  164SOPE  H13X18475   5.489   5.623   8.747  0.7443 -1.1275 -0.6005
  164SOPE  H13Y18476   5.645   5.622   8.813  0.1713 -0.2518  0.8801
  164SOPE  C31418477   5.615   5.807   8.705 -0.4479  0.4619  0.3157
  164SOPE  H14X18478   5.712   5.843   8.746  0.6559 -1.5039 -0.4582
  164SOPE  H14Y18479   5.538   5.888   8.707 -1.4941 -0.3905 -1.9055
  164SOPE  C31518480   5.636   5.761   8.555  0.0996 -0.0017  0.0879
  164SOPE  H15X18481   5.633   5.855   8.497  1.3043 -0.8260 -1.3868
  164SOPE  H15Y18482   5.545   5.704   8.523  0.1181  0.6829 -1.2547
  164SOPE  C31618483   5.764   5.682   8.519  0.7866  0.0360 -0.6101
  164SOPE  H16X18484   5.756   5.592   8.584 -0.2733 -0.3056 -1.1948
  164SOPE  H16Y18485   5.854   5.741   8.545 -0.3772  1.0778  1.3177
  164SOPE  C31718486   5.772   5.643   8.373  0.5683  0.5072  0.7419
  164SOPE  H17X18487   5.678   5.588   8.350 -0.5200  1.9253  1.6318
  164SOPE  H17Y18488   5.859   5.577   8.353 -0.4002 -1.1194  1.6994
  164SOPE  C31818489   5.780   5.768   8.280 -0.5743  0.5307  0.0895
  164SOPE  H18X18490   5.801   5.746   8.173 -0.7317  1.1162 -0.0623
  164SOPE  H18Y18491   5.873   5.827   8.299  0.1561 -0.3565 -0.6030
  164SOPE  H18Z18492   5.685   5.825   8.280 -1.2135 -0.5170 -0.3727
  165SOPE     N18493   3.718   5.822  11.109  0.0503 -0.8794 -0.3916
  165SOPE   HN118494   3.796   5.781  11.165  0.5023  0.0477 -0.3187
  165SOPE   HN218495   3.729   5.926  11.118 -1.9350 -0.7515  1.0823
  165SOPE   HN318496   3.628   5.778  11.134  0.3090 -0.9488  0.4657
  165SOPE   C1218497   3.758   5.794  10.964 -0.3004 -0.1732  0.4438
  165SOPE  H12A18498   3.764   5.684  10.951  1.4287 -0.2003  1.2077
  165SOPE  H12B18499   3.861   5.835  10.954 -0.7251  1.2228  1.4580
  165SOPE   C1118500   3.659   5.870  10.868  0.6147 -0.6264 -0.2818
  165SOPE  H11A18501   3.554   5.861  10.904  0.1440  0.0280 -1.4123
  165SOPE  H11B18502   3.673   5.826  10.767  1.0492  1.2062 -1.0783
  165SOPE     P18503   3.618   6.116  10.790 -0.3153  0.0110 -0.2027
  165SOPE   O1318504   3.678   6.250  10.820  0.7285 -0.8110  0.7761
  165SOPE   O1418505   3.474   6.095  10.799  0.0293 -0.2685  0.3823
  165SOPE   O1218506   3.686   6.008  10.879 -0.2169 -0.0377  0.0239
  165SOPE   O1118507   3.663   6.089  10.646  0.0416  0.1093 -0.5733
  165SOPE    C118508   3.800   6.099  10.597  0.0221  0.3237 -0.5212
  165SOPE    HA18509   3.853   6.172  10.662 -0.2001  0.2250 -0.2314
  165SOPE    HB18510   3.786   6.142  10.495 -2.5257  1.5726  0.2707
  165SOPE    C218511   3.873   5.965  10.592 -0.0618  0.4678 -0.6751
  165SOPE    HS18512   3.862   5.911  10.688  0.8859 -0.9340 -1.3241
  165SOPE   O2118513   4.012   5.980  10.572 -0.3715 -0.2531 -0.0952
  165SOPE   C2118514   4.091   6.037  10.668 -0.2438 -0.6798 -0.2850
  165SOPE   O2218515   4.051   6.078  10.777  0.5040 -0.1577  0.5828
  165SOPE   C2218516   4.233   6.044  10.622  0.0100  0.0733  0.2877
  165SOPE   H2R18517   4.239   5.986  10.527  0.9065  2.4979 -1.2171
  165SOPE   H2S18518   4.300   6.005  10.702 -1.5253 -0.5721  1.2942
  165SOPE    C318519   3.816   5.880  10.470 -0.1380  0.4973 -0.1458
  165SOPE    HX18520   3.707   5.863  10.483 -0.2400  1.6969  0.8142
  165SOPE    HY18521   3.872   5.784  10.474  0.2587  0.5922 -2.4034
  165SOPE   O3118522   3.849   5.947  10.346  0.2004 -0.1341  0.5852
  165SOPE   C3118523   3.771   5.914  10.244 -0.3780 -0.6663  0.3161
  165SOPE   O3218524   3.674   5.842  10.248 -0.0106 -1.0462  0.4015
  165SOPE   C3218525   3.812   6.016  10.136  0.6390  0.0963  0.4732
  165SOPE   H2X18526   3.910   5.992  10.090  0.1360  2.1273 -1.9022
  165SOPE   H2Y18527   3.827   6.112  10.190 -1.2903 -0.6619  2.5347
  165SOPE   C2318528   4.267   6.192  10.591 -0.2312  0.4711 -0.2229
  165SOPE   H3R18529   4.372   6.188  10.555 -0.3989 -1.1021 -0.6012
  165SOPE   H3S18530   4.268   6.244  10.689 -1.9925 -2.7095  1.6437
  165SOPE   C2418531   4.170   6.250  10.488  0.7960 -0.2980  0.9898
  165SOPE   H4R18532   4.068   6.250  10.531 -0.5734 -2.3342 -1.9011
  165SOPE   H4S18533   4.208   6.352  10.469  1.0703 -0.3759  1.1079
  165SOPE   C2518534   4.188   6.173  10.348  0.1726  0.4262 -0.3353
  165SOPE   H5R18535   4.296   6.165  10.325  0.7625  1.1297  1.9979
  165SOPE   H5S18536   4.147   6.069  10.347 -0.5482  0.7031 -1.1676
  165SOPE   C2618537   4.123   6.238  10.221 -0.6843  0.7480  0.3911
  165SOPE   H6R18538   4.014   6.224  10.233 -0.4753 -0.0616  1.4456
  165SOPE   H6S18539   4.142   6.347  10.225 -1.1383  0.7972  1.2411
  165SOPE   C2718540   4.175   6.173  10.093 -0.0473  0.3168 -0.3980
  165SOPE   H7R18541   4.287   6.175  10.090  0.0761 -1.3682  1.1699
  165SOPE   H7S18542   4.144   6.066  10.093 -0.6477  0.4920 -0.1691
  165SOPE   C2818543   4.158   6.259   9.966  0.4163 -0.0852  0.6829
  165SOPE   H8R18544   4.209   6.352  10.001  1.9717 -0.0822 -1.4134
  165SOPE   H8S18545   4.214   6.204   9.888  0.9499 -1.2396  1.8336
  165SOPE   C2918546   4.008   6.287   9.946 -0.1980 -0.2602  0.1605
  165SOPE   H9118547   3.954   6.314  10.038 -0.4506 -1.2435  0.3090
  165SOPE  C21018548   3.941   6.286   9.827 -0.5759 -0.5972 -0.4809
  165SOPE  H10118549   3.832   6.295   9.829 -0.6063 -1.0534  0.9318
  165SOPE  C21118550   4.013   6.260   9.693  0.1482  0.1260 -0.1576
  165SOPE  H11R18551   3.979   6.159   9.662 -1.3774  0.4783  0.2928
  165SOPE  H11S18552   4.121   6.270   9.716 -0.0885  1.5938  0.4840
  165SOPE  C21218553   3.996   6.349   9.570  0.1769  0.0299  0.0524
  165SOPE  H12R18554   3.999   6.455   9.602 -1.0697 -0.1700  0.8904
  165SOPE  H12S18555   3.891   6.327   9.538  0.1831  0.2539 -0.1220
  165SOPE  C21318556   4.086   6.322   9.446  0.0869  0.4430  0.6052
  165SOPE  H13R18557   4.088   6.211   9.450 -1.1703  0.4258  1.5332
  165SOPE  H13S18558   4.190   6.355   9.467  0.7826 -1.5096  0.4176
  165SOPE  C21418559   4.036   6.380   9.308 -0.1805 -0.6961  0.5909
  165SOPE  H14R18560   4.015   6.489   9.310  0.2008 -0.5707 -1.1090
  165SOPE  H14S18561   3.937   6.333   9.292 -0.9989 -0.3110  3.8828
  165SOPE  C21518562   4.128   6.341   9.190 -0.1123  0.1517  0.0839
  165SOPE  H15R18563   4.161   6.235   9.191  0.7961  0.4078 -0.7931
  165SOPE  H15S18564   4.222   6.399   9.202 -0.2763  1.0262 -2.3143
  165SOPE  C21618565   4.083   6.366   9.047 -0.0295 -0.4871  0.3738
  165SOPE  H16R18566   4.069   6.475   9.029 -2.3542 -0.6966  0.6064
  165SOPE  H16S18567   3.981   6.324   9.035 -0.1966  0.3363 -1.5835
  165SOPE  C21718568   4.174   6.298   8.941 -0.5786 -0.3803  0.6755
  165SOPE  H17R18569   4.203   6.196   8.973  0.2959  0.1758  1.7287
  165SOPE  H17S18570   4.263   6.363   8.929 -1.9112  1.4443  0.2751
  165SOPE  C21818571   4.094   6.300   8.810 -0.6842  0.4257  0.4294
  165SOPE  H18R18572   4.154   6.247   8.733 -1.0838 -1.9605  1.6457
  165SOPE  H18S18573   4.071   6.403   8.775 -1.2845 -0.0222 -0.5285
  165SOPE  H18T18574   4.000   6.241   8.825 -0.4217  0.2851  1.6697
  165SOPE   C3318575   3.721   6.029  10.009  0.1798  0.3585 -0.5112
  165SOPE   H3X18576   3.753   6.123   9.960 -1.0413  0.6824 -0.7271
  165SOPE   H3Y18577   3.618   6.048  10.048  0.1156  0.9779 -0.9734
  165SOPE   C3418578   3.730   5.915   9.914 -0.2959  0.5068  0.6238
  165SOPE   H4X18579   3.709   5.819   9.965  0.8134  0.1577  0.4585
  165SOPE   H4Y18580   3.836   5.909   9.879 -1.0631  1.4301 -2.1366
  165SOPE   C3518581   3.650   5.920   9.781  0.7487  0.0751 -0.0553
  165SOPE   H5X18582   3.660   5.822   9.730  2.2682 -1.4623  2.9632
  165SOPE   H5Y18583   3.698   5.988   9.707 -2.1284  0.5331 -1.6380
  165SOPE   C3618584   3.503   5.957   9.786 -0.3086 -0.1381  0.1029
  165SOPE   H6X18585   3.500   6.067   9.771  0.4959 -0.1483 -0.1985
  165SOPE   H6Y18586   3.478   5.939   9.892 -0.8391  1.5860  0.2959
  165SOPE   C3718587   3.415   5.890   9.679 -0.3114  0.5283  0.1956
  165SOPE   H7X18588   3.312   5.926   9.701 -0.0879  1.2241  0.1532
  165SOPE   H7Y18589   3.428   5.782   9.702  1.3597  1.0344  1.8903
  165SOPE   C3818590   3.459   5.930   9.539  0.3759  0.1744 -0.0535
  165SOPE   H8X18591   3.561   5.892   9.515 -0.4925 -2.0030 -0.5389
  165SOPE   H8Y18592   3.471   6.040   9.532  0.4711  0.1577 -0.1570
  165SOPE   C3918593   3.369   5.873   9.431 -0.7453 -0.4936  0.7229
  165SOPE   H9X18594   3.267   5.909   9.456 -0.9710  0.0219 -0.8361
  165SOPE   H9Y18595   3.370   5.762   9.427  0.6542 -0.6503  3.3303
  165SOPE  C31018596   3.390   5.926   9.292  0.1369 -0.0139 -0.9071
  165SOPE  H10X18597   3.472   5.877   9.235  0.8296  0.8910 -0.6942
  165SOPE  H10Y18598   3.420   6.033   9.299  2.7174 -0.6124 -1.6583
  165SOPE  C31118599   3.267   5.937   9.208  0.0958  0.4943 -0.1529
  165SOPE  H11X18600   3.211   6.011   9.268 -1.8229 -1.1957  0.2743
  165SOPE  H11Y18601   3.212   5.841   9.221 -1.0979  1.3494  1.5239
  165SOPE  C31218602   3.285   5.981   9.064  0.0436 -0.8402 -0.0338
  165SOPE  H12X18603   3.347   6.073   9.053 -0.7684 -0.3116 -0.3178
  165SOPE  H12Y18604   3.186   6.003   9.019 -0.4728 -1.5975  0.7136
  165SOPE  C31318605   3.361   5.879   8.980  0.6069 -0.8600  0.3905
  165SOPE  H13X18606   3.295   5.790   8.968  0.8280 -0.7599 -2.0024
  165SOPE  H13Y18607   3.450   5.836   9.030  1.2319  0.8324  0.7937
  165SOPE  C31418608   3.399   5.922   8.836 -0.2951 -0.3402  0.4346
  165SOPE  H14X18609   3.317   5.981   8.790  0.2596  0.1672  0.0838
  165SOPE  H14Y18610   3.414   5.835   8.768  0.5088 -0.1682  0.3801
  165SOPE  C31518611   3.520   6.012   8.818  0.1183 -0.0983 -0.0009
  165SOPE  H15X18612   3.607   5.947   8.840  0.1556  0.4070  1.4426
  165SOPE  H15Y18613   3.528   6.104   8.881  1.6048 -1.2351  1.5544
  165SOPE  C31618614   3.535   6.066   8.678 -0.7457  0.0518 -0.0157
  165SOPE  H16X18615   3.454   6.138   8.652  0.9164  1.7975 -0.6270
  165SOPE  H16Y18616   3.521   5.979   8.610 -0.2874  0.9400 -1.2788
  165SOPE  C31718617   3.674   6.124   8.637  0.4657  0.6445 -0.0863
  165SOPE  H17X18618   3.664   6.149   8.529 -1.2534 -0.2466 -0.1580
  165SOPE  H17Y18619   3.740   6.034   8.641  0.2273  0.3111 -2.2294
  165SOPE  C31818620   3.726   6.233   8.719 -0.9730 -0.3353 -0.2863
  165SOPE  H18X18621   3.816   6.278   8.673 -0.2809  1.0405  2.2232
  165SOPE  H18Y18622   3.748   6.193   8.820 -1.1755  1.3721  0.4695
  165SOPE  H18Z18623   3.648   6.312   8.732 -2.2379 -1.8107  1.7588
  166SOPE     N18624   0.382   5.915  10.889  0.0775  0.3886 -0.0785
  166SOPE   HN118625   0.410   5.832  10.946  1.4504  0.2162 -0.9488
  166SOPE   HN218626   0.349   5.995  10.945 -2.0744  0.9273 -1.9389
  166SOPE   HN318627   0.305   5.877  10.831  0.4171 -1.7586  0.7670
  166SOPE   C1218628   0.491   5.961  10.797 -0.0473 -0.0670  0.2104
  166SOPE  H12A18629   0.536   5.874  10.744 -0.7120 -0.6271  0.5516
  166SOPE  H12B18630   0.566   6.010  10.862 -1.3360  1.4462  0.6426
  166SOPE   C1118631   0.427   6.065  10.695  0.0767  0.3227  0.0486
  166SOPE  H11A18632   0.353   6.005  10.637  1.9561  1.1259 -3.4534
  166SOPE  H11B18633   0.499   6.099  10.618  1.8963 -0.3208  1.3989
  166SOPE     P18634   0.419   6.293  10.811 -0.2938 -0.5107  0.1163
  166SOPE   O1318635   0.501   6.258  10.933  0.3391 -0.5563 -0.5770
  166SOPE   O1418636   0.311   6.396  10.830  0.6860  0.1491 -0.1433
  166SOPE   O1218637   0.348   6.165  10.762  0.2223 -0.7170 -0.0820
  166SOPE   O1118638   0.519   6.340  10.697  1.1376  0.3994  0.9363
  166SOPE    C118639   0.625   6.422  10.711  0.6315 -0.0378  0.8884
  166SOPE    HA18640   0.719   6.363  10.718  1.8477  1.7217  0.4605
  166SOPE    HB18641   0.632   6.482  10.805  2.1811  1.9175 -0.3613
  166SOPE    C218642   0.623   6.513  10.586 -0.2829 -0.0455  1.1610
  166SOPE    HS18643   0.696   6.597  10.592  1.8862 -1.0260 -4.6773
  166SOPE   O2118644   0.485   6.556  10.547 -0.1421 -0.2907 -0.1084
  166SOPE   C2118645   0.434   6.643  10.639  0.2676 -0.2699  0.3404
  166SOPE   O2218646   0.498   6.695  10.730 -0.4095  0.1357 -0.3378
  166SOPE   C2218647   0.285   6.661  10.612 -0.2172 -0.0768 -0.2612
  166SOPE   H2R18648   0.225   6.664  10.706 -0.6060 -1.9756 -0.3900
  166SOPE   H2S18649   0.251   6.566  10.565 -0.9407 -0.5724  1.1870
  166SOPE    C318650   0.689   6.443  10.455  0.3182  0.4045 -0.3307
  166SOPE    HX18651   0.626   6.353  10.443  1.1452 -0.1735 -0.4746
  166SOPE    HY18652   0.790   6.415  10.494 -1.3701  0.5072  4.9315
  166SOPE   O3118653   0.680   6.534  10.343  0.0234  0.2155  0.5053
  166SOPE   C3118654   0.578   6.523  10.257 -0.4668  0.3713 -0.1966
  166SOPE   O3218655   0.484   6.446  10.257  0.7979  0.1739  0.3389
  166SOPE   C3218656   0.592   6.638  10.164  0.1153  0.6588 -0.2916
  166SOPE   H2X18657   0.694   6.634  10.119 -0.6062 -1.0493 -1.9544
  166SOPE   H2Y18658   0.595   6.732  10.222 -0.2891  0.1413  0.5891
  166SOPE   C2318659   0.253   6.793  10.531  0.4326  0.4561 -0.1211
  166SOPE   H3R18660   0.288   6.880  10.591  0.8112 -0.1580  0.5712
  166SOPE   H3S18661   0.143   6.806  10.523  0.3983 -0.0503 -0.5518
  166SOPE   C2418662   0.313   6.790  10.396  0.2946 -1.0212  0.0439
  166SOPE   H4R18663   0.423   6.782  10.413  0.6799  1.2802 -0.9807
  166SOPE   H4S18664   0.289   6.695  10.343 -0.4465 -0.1239 -1.2804
  166SOPE   C2518665   0.282   6.913  10.311 -0.5501 -0.3243 -0.1889
  166SOPE   H5R18666   0.330   7.002  10.354 -1.8551  0.0208  0.6096
  166SOPE   H5S18667   0.324   6.898  10.209  0.1022 -0.8896  0.1556
  166SOPE   C2618668   0.134   6.932  10.317  0.6511 -0.6571  0.5130
  166SOPE   H6R18669   0.094   6.831  10.295  1.4698 -1.3117  1.9181
  166SOPE   H6S18670   0.094   6.966  10.414 -0.6749 -0.3140 -0.1353
  166SOPE   C2718671   0.077   7.024  10.198 -0.0734 -0.1529 -0.2676
  166SOPE   H7R18672   0.144   7.112  10.203 -0.5963  0.1894  1.4945
  166SOPE   H7S18673   0.096   6.968  10.104  1.7201  0.6810 -0.4473
  166SOPE   C2818674  -0.065   7.068  10.215 -0.4549 -0.5926  0.8976
  166SOPE   H8R18675  -0.076   7.130  10.306  1.5887 -0.3851  1.0581
  166SOPE   H8S18676  -0.092   7.138  10.133 -0.9349 -1.5604  0.1973
  166SOPE   C2918677  -0.151   6.951  10.213  0.3347 -0.4465 -0.4119
  166SOPE   H9118678  -0.117   6.866  10.274  0.7321  0.8448  1.2366
  166SOPE  C21018679  -0.278   6.937  10.163  0.1419  0.1328 -0.4850
  166SOPE  H10118680  -0.308   6.832  10.165  2.1003 -0.4504  0.6868
  166SOPE  C21118681  -0.349   7.052  10.085  1.1271  0.1571 -0.8002
  166SOPE  H11R18682  -0.419   7.014  10.007 -0.7802  2.4584 -0.3258
  166SOPE  H11S18683  -0.274   7.115  10.032  0.7058  0.4144 -1.0987
  166SOPE  C21218684  -0.450   7.132  10.168  0.4320  0.1670  0.4297
  166SOPE  H12R18685  -0.515   7.197  10.106 -0.2998 -1.5887 -0.7436
  166SOPE  H12S18686  -0.395   7.183  10.249  3.1115 -1.0343 -0.5336
  166SOPE  C21318687  -0.548   7.043  10.240  0.0513  0.9200 -0.1389
  166SOPE  H13R18688  -0.487   7.005  10.324  0.6980  0.3182 -0.8748
  166SOPE  H13S18689  -0.587   6.964  10.172 -0.3372  1.4961 -0.5999
  166SOPE  C21418690  -0.653   7.126  10.309  0.0633  0.7255  0.3445
  166SOPE  H14R18691  -0.705   7.181  10.228  1.4858  0.4637 -0.7839
  166SOPE  H14S18692  -0.617   7.201  10.383 -0.1640  0.4749  0.7146
  166SOPE  C21518693  -0.757   7.038  10.378  0.2041 -0.1863 -0.5207
  166SOPE  H15R18694  -0.791   6.953  10.315 -0.5664 -0.8223  0.7234
  166SOPE  H15S18695  -0.841   7.111  10.387  0.0570 -0.4986  0.8153
  166SOPE  C21618696  -0.723   7.001  10.518 -0.6365  0.0581 -0.1391
  166SOPE  H16R18697  -0.716   7.092  10.582  2.8316  0.1230 -0.4075
  166SOPE  H16S18698  -0.621   6.955  10.519  0.5837  2.5658  0.3825
  166SOPE  C21718699  -0.807   6.893  10.591 -0.5767  0.0593  0.3259
  166SOPE  H17R18700  -0.917   6.909  10.588 -0.7143 -0.9170 -0.2920
  166SOPE  H17S18701  -0.781   6.890  10.699 -0.3309 -1.4136  0.2467
  166SOPE  C21818702  -0.780   6.754  10.536 -0.3673 -0.7931  0.3221
  166SOPE  H18R18703  -0.846   6.679  10.584 -0.1466 -1.5147 -0.4729
  166SOPE  H18S18704  -0.673   6.729  10.555 -0.0372 -0.5064 -1.0146
  166SOPE  H18T18705  -0.812   6.749  10.430  0.5517  0.9987 -0.0745
  166SOPE   C3318706   0.474   6.649  10.060 -0.1721 -0.4748 -0.1325
  166SOPE   H3X18707   0.384   6.649  10.125 -0.0343 -0.8983  0.0631
  166SOPE   H3Y18708   0.475   6.565   9.988 -0.4646 -1.4848  1.0133
  166SOPE   C3418709   0.472   6.780   9.979 -0.1465 -0.6531  0.4017
  166SOPE   H4X18710   0.547   6.856  10.011  0.6627 -1.0648 -0.4547
  166SOPE   H4Y18711   0.370   6.821   9.993 -0.2195  0.0479 -1.7578
  166SOPE   C3518712   0.479   6.765   9.830 -0.5796 -0.1468 -0.1782
  166SOPE   H5X18713   0.556   6.686   9.814 -1.2046 -0.7166 -0.4096
  166SOPE   H5Y18714   0.495   6.861   9.777  1.5581 -0.7250 -0.6939
  166SOPE   C3618715   0.350   6.715   9.763  0.1020  0.1636 -0.4652
  166SOPE   H6X18716   0.269   6.787   9.788  0.2200 -0.0167  0.4580
  166SOPE   H6Y18717   0.317   6.618   9.806 -0.9759  0.4399 -0.6508
  166SOPE   C3718718   0.363   6.687   9.609  0.0550 -0.2064 -0.5144
  166SOPE   H7X18719   0.289   6.613   9.570 -1.2369  0.3620  0.7832
  166SOPE   H7Y18720   0.465   6.643   9.600  1.2003  2.2663 -0.3425
  166SOPE   C3818721   0.367   6.817   9.531  0.5130 -0.6418  0.3247
  166SOPE   H8X18722   0.406   6.787   9.431 -2.4003 -1.9478 -0.5452
  166SOPE   H8Y18723   0.445   6.892   9.555 -1.9751  1.8682  1.2852
  166SOPE   C3918724   0.224   6.864   9.494 -0.1672 -0.5712 -0.4520
  166SOPE   H9X18725   0.168   6.910   9.578  1.7064 -1.6393  1.4749
  166SOPE   H9Y18726   0.162   6.775   9.473 -0.5009 -0.9139  1.7061
  166SOPE  C31018727   0.215   6.963   9.375 -0.2191  0.4754 -0.1083
  166SOPE  H10X18728   0.120   6.950   9.319  0.8674 -0.9824 -1.7350
  166SOPE  H10Y18729   0.289   6.935   9.297 -0.6518  3.1987 -1.5950
  166SOPE  C31118730   0.247   7.108   9.412 -0.1216  0.0995 -0.6626
  166SOPE  H11X18731   0.337   7.112   9.478 -0.1012  0.4852 -0.7103
  166SOPE  H11Y18732   0.159   7.140   9.472 -0.2540 -1.2750 -0.0986
  166SOPE  C31218733   0.269   7.200   9.289 -0.2484 -0.1235  0.0687
  166SOPE  H12X18734   0.169   7.217   9.246 -0.6511  0.3731  1.1654
  166SOPE  H12Y18735   0.336   7.150   9.215  0.3862 -1.0839  1.2423
  166SOPE  C31318736   0.336   7.334   9.319 -0.5665  0.4499 -0.2289
  166SOPE  H13X18737   0.424   7.319   9.385  0.0652 -3.6549 -1.7054
  166SOPE  H13Y18738   0.271   7.389   9.391 -0.5852 -0.3480  0.3742
  166SOPE  C31418739   0.368   7.425   9.202 -0.6192 -0.2868  0.2856
  166SOPE  H14X18740   0.403   7.523   9.240  0.4818 -0.2508 -0.7496
  166SOPE  H14Y18741   0.270   7.462   9.166 -0.5154  0.6485  0.9202
  166SOPE  C31518742   0.446   7.362   9.091 -0.1833  0.1034  0.1195
  166SOPE  H15X18743   0.382   7.288   9.038 -0.1367  0.1711 -0.0310
  166SOPE  H15Y18744   0.536   7.312   9.133  1.3285  1.7350 -0.9832
  166SOPE  C31618745   0.496   7.463   8.978 -0.1174 -0.6002  0.5195
  166SOPE  H16X18746   0.569   7.533   9.023  0.7055 -0.1762 -1.3715
  166SOPE  H16Y18747   0.405   7.514   8.941  1.2370  0.4253 -1.5176
  166SOPE  C31718748   0.550   7.393   8.853 -0.0069  0.1387 -0.7922
  166SOPE  H17X18749   0.596   7.453   8.772  0.1513 -2.1244 -2.4700
  166SOPE  H17Y18750   0.464   7.340   8.807  0.8940 -1.6317 -0.4994
  166SOPE  C31818751   0.655   7.294   8.886 -1.3457  0.0240  0.5124
  166SOPE  H18X18752   0.676   7.221   8.805 -0.0112  0.2339  0.6429
  166SOPE  H18Y18753   0.624   7.232   8.973  3.7080  0.7766  3.2819
  166SOPE  H18Z18754   0.749   7.350   8.904  0.3126 -1.5781 -2.3663
  167SOPE     N18755   2.062   4.005   6.269  0.0337  0.4186 -0.3918
  167SOPE   HN118756   1.998   3.950   6.329 -1.5699  0.0369 -2.3254
  167SOPE   HN218757   2.126   3.932   6.233  1.0696  2.3514 -2.8638
  167SOPE   HN318758   2.112   4.068   6.335  0.7190 -1.5576  1.0311
  167SOPE   C1218759   1.989   4.078   6.158 -0.4579  0.3504 -0.8764
  167SOPE  H12A18760   1.944   4.172   6.197 -0.4192 -0.1753  0.4874
  167SOPE  H12B18761   1.911   4.010   6.117 -1.3011  1.1994 -0.7251
  167SOPE   C1118762   2.088   4.121   6.050 -0.0083 -0.2239 -0.1334
  167SOPE  H11A18763   2.027   4.146   5.961 -0.6530 -1.1814  0.0133
  167SOPE  H11B18764   2.148   4.030   6.029 -0.9963 -0.7526 -0.7705
  167SOPE     P18765   2.215   4.346   6.000 -0.0092 -0.9936  0.1268
  167SOPE   O1318766   2.102   4.421   5.932 -0.0726 -0.1690 -0.1891
  167SOPE   O1418767   2.320   4.302   5.905 -0.2608  0.2953  0.6251
  167SOPE   O1218768   2.166   4.230   6.095 -0.6797  0.0473  0.1614
  167SOPE   O1118769   2.280   4.448   6.103  0.3295  0.1925 -0.3248
  167SOPE    C118770   2.322   4.421   6.237 -0.0222  0.5899  0.4550
  167SOPE    HA18771   2.396   4.499   6.264 -0.2250  1.7477 -2.0431
  167SOPE    HB18772   2.375   4.323   6.234  1.2843  1.2916 -0.8480
  167SOPE    C218773   2.197   4.423   6.333 -0.0317  0.7112  0.0999
  167SOPE    HS18774   2.121   4.351   6.296 -0.1426 -0.1729  1.9571
  167SOPE   O2118775   2.147   4.557   6.327 -0.3607  0.0056  1.0033
  167SOPE   C2118776   2.025   4.570   6.357  0.0520  1.2146  0.0096
  167SOPE   O2218777   1.950   4.476   6.383 -0.2111  0.2760 -0.3782
  167SOPE   C2218778   1.986   4.721   6.368 -0.8024  0.1678 -0.2193
  167SOPE   H2R18779   1.895   4.739   6.307 -0.5134  0.6875 -0.5080
  167SOPE   H2S18780   2.073   4.777   6.325  0.7678 -0.6759  1.7034
  167SOPE    C318781   2.244   4.376   6.472  0.2509 -0.2075 -0.2185
  167SOPE    HX18782   2.314   4.454   6.508 -0.8296  0.5796  0.2404
  167SOPE    HY18783   2.291   4.276   6.456  0.8605  0.0625 -0.1416
  167SOPE   O3118784   2.137   4.380   6.572 -0.0097 -0.2577  0.1907
  167SOPE   C3118785   2.048   4.272   6.564 -0.1264 -0.3068 -0.3607
  167SOPE   O3218786   2.059   4.169   6.496  0.4002 -0.8215  0.7732
  167SOPE   C3218787   1.930   4.303   6.665 -0.1172 -0.1260 -0.0719
  167SOPE   H2X18788   1.862   4.216   6.667  0.5920 -0.7964  4.2590
  167SOPE   H2Y18789   1.876   4.391   6.623  2.0650  1.9426  1.1749
  167SOPE   C2318790   1.958   4.778   6.509 -0.2613 -0.1098  0.4036
  167SOPE   H3R18791   1.872   4.727   6.557  1.4411 -2.5339  1.0694
  167SOPE   H3S18792   1.924   4.884   6.504 -1.4195 -0.4831  0.0181
  167SOPE   C2418793   2.084   4.791   6.592 -0.0319 -0.6639 -0.0950
  167SOPE   H4R18794   2.112   4.695   6.640 -0.3696 -0.1639  1.1165
  167SOPE   H4S18795   2.155   4.820   6.512 -1.9951 -2.9059 -2.8762
  167SOPE   C2518796   2.066   4.892   6.698  0.3221  0.6290 -0.7778
  167SOPE   H5R18797   2.162   4.923   6.745  1.2545 -1.3728 -1.2556
  167SOPE   H5S18798   2.004   4.983   6.679 -0.5240  0.7756  2.2309
  167SOPE   C2618799   2.001   4.818   6.820  0.4745  0.3294  0.0167
  167SOPE   H6R18800   1.891   4.801   6.812 -0.1899  1.5191  4.1920
  167SOPE   H6S18801   2.048   4.718   6.829  0.4540  0.4504  1.8882
  167SOPE   C2718802   2.016   4.887   6.957  0.2183 -0.5190  0.0702
  167SOPE   H7R18803   2.122   4.883   6.987  0.3331  1.1869  0.0157
  167SOPE   H7S18804   1.991   4.993   6.933 -0.8724 -0.9690 -0.8969
  167SOPE   C2818805   1.914   4.846   7.069  0.0217 -0.9594 -0.0777
  167SOPE   H8R18806   1.824   4.794   7.030 -0.3601 -0.4655  0.1305
  167SOPE   H8S18807   1.971   4.771   7.128  0.4501 -0.1123  0.6093
  167SOPE   C2918808   1.893   4.965   7.162 -0.0435  1.0325  0.1833
  167SOPE   H9118809   1.841   5.053   7.120  1.8662  2.5128  0.7594
  167SOPE  C21018810   1.912   4.973   7.296 -0.0779  0.2309 -0.4891
  167SOPE  H10118811   1.885   5.067   7.346  2.1179  1.2045 -1.0105
  167SOPE  C21118812   1.949   4.858   7.396  1.2715  0.1157  0.0844
  167SOPE  H11R18813   2.056   4.864   7.427  0.6819  3.7631  2.0328
  167SOPE  H11S18814   1.935   4.757   7.353 -1.1658  0.4851 -0.1385
  167SOPE  C21218815   1.845   4.869   7.511  0.1718  0.2861 -0.9240
  167SOPE  H12R18816   1.865   4.786   7.583 -0.6263  0.0958 -0.9200
  167SOPE  H12S18817   1.745   4.853   7.467 -0.6476  2.7183 -0.1085
  167SOPE  C21318818   1.851   4.999   7.591 -0.2119  0.4927 -0.2027
  167SOPE  H13R18819   1.794   5.083   7.544 -1.8301 -1.2543 -1.5280
  167SOPE  H13S18820   1.956   5.037   7.591 -0.2507  0.9110  3.1565
  167SOPE  C21418821   1.820   4.986   7.741  0.3024 -0.4340  0.1163
  167SOPE  H14R18822   1.901   4.920   7.780 -0.2453  0.0504  2.2056
  167SOPE  H14S18823   1.717   4.946   7.754  1.2749 -2.8649  1.0839
  167SOPE  C21518824   1.824   5.123   7.820 -0.3390  0.5724 -0.5074
  167SOPE  H15R18825   1.760   5.197   7.767  0.3477  0.2896 -1.7876
  167SOPE  H15S18826   1.929   5.159   7.814 -0.4710  0.8546 -1.2682
  167SOPE  C21618827   1.780   5.092   7.966  0.2472 -0.2407  0.2200
  167SOPE  H16R18828   1.865   5.042   8.017  2.1159  0.8587 -1.6296
  167SOPE  H16S18829   1.688   5.031   7.967 -0.0427  0.1848 -0.1020
  167SOPE  C21718830   1.744   5.231   8.030  0.5948 -0.4982  0.6450
  167SOPE  H17R18831   1.663   5.284   7.977 -0.8995 -2.1231  1.2130
  167SOPE  H17S18832   1.827   5.301   8.007 -1.1718  1.1663 -1.0024
  167SOPE  C21818833   1.715   5.212   8.184  0.2789 -0.6796 -0.4138
  167SOPE  H18R18834   1.709   5.312   8.230  2.1686 -1.5564  1.9608
  167SOPE  H18S18835   1.789   5.145   8.233  0.3172  0.0155  0.4902
  167SOPE  H18T18836   1.615   5.166   8.198 -0.1075  0.8967  2.6950
  167SOPE   C3318837   1.980   4.342   6.799 -0.1961 -0.1505  0.1678
  167SOPE   H3X18838   2.045   4.431   6.791 -1.7502  1.0648  0.5570
  167SOPE   H3Y18839   2.047   4.262   6.838 -0.5214 -1.0628 -1.0553
  167SOPE   C3418840   1.867   4.371   6.898 -0.0794  0.4365 -0.1543
  167SOPE   H4X18841   1.802   4.284   6.918  0.6790 -0.5289 -1.6960
  167SOPE   H4Y18842   1.807   4.457   6.862 -3.4050 -0.4941  2.6655
  167SOPE   C3518843   1.930   4.396   7.035 -0.6111  0.3337 -1.0600
  167SOPE   H5X18844   1.986   4.492   7.042  2.4094 -1.4520  1.8842
  167SOPE   H5Y18845   2.005   4.317   7.052 -0.8015  0.3675 -0.0206
  167SOPE   C3618846   1.830   4.392   7.150  0.7220  0.7902  0.3190
  167SOPE   H6X18847   1.794   4.287   7.161 -1.1848  1.4056  0.2563
  167SOPE   H6Y18848   1.742   4.458   7.134 -0.6285 -0.7757  0.9890
  167SOPE   C3718849   1.885   4.430   7.281 -0.2285  0.3083 -0.0048
  167SOPE   H7X18850   1.904   4.540   7.288  2.5817 -0.1560  0.9534
  167SOPE   H7Y18851   1.982   4.384   7.311 -1.2586 -1.7553  0.2673
  167SOPE   C3818852   1.785   4.396   7.390  0.8807  0.3666 -0.2261
  167SOPE   H8X18853   1.756   4.290   7.377  0.4323  0.1649  2.0647
  167SOPE   H8Y18854   1.691   4.447   7.360  1.0363 -0.2729 -1.8814
  167SOPE   C3918855   1.831   4.427   7.533  0.3097 -0.3943  0.2360
  167SOPE   H9X18856   1.904   4.510   7.538 -0.6501  0.4720  0.1665
  167SOPE   H9Y18857   1.888   4.339   7.572  0.0140 -1.2975 -1.2754
  167SOPE  C31018858   1.723   4.478   7.625 -0.6695 -0.0165 -0.3069
  167SOPE  H10X18859   1.656   4.394   7.654 -2.4223  1.3880 -0.0894
  167SOPE  H10Y18860   1.657   4.548   7.570 -1.1590  0.0360  0.3273
  167SOPE  C31118861   1.777   4.539   7.757  0.1183 -0.0487  0.2856
  167SOPE  H11X18862   1.853   4.618   7.740  0.8925 -0.5200  1.4092
  167SOPE  H11Y18863   1.821   4.461   7.823  0.7987 -0.8180 -1.0501
  167SOPE  C31218864   1.663   4.603   7.842  0.6259 -0.4744 -0.2432
  167SOPE  H12X18865   1.575   4.537   7.859  1.7143 -1.5973  1.3233
  167SOPE  H12Y18866   1.620   4.683   7.778 -2.3143 -1.5219  0.2564
  167SOPE  C31318867   1.710   4.643   7.985 -0.1657  0.1880  0.6832
  167SOPE  H13X18868   1.800   4.707   7.971  0.4322 -0.8767 -0.5690
  167SOPE  H13Y18869   1.746   4.551   8.034  0.7852  0.0607 -0.2246
  167SOPE  C31418870   1.606   4.723   8.069 -0.1202  0.5448  0.2880
  167SOPE  H14X18871   1.513   4.661   8.068 -0.7038  1.3654 -1.9980
  167SOPE  H14Y18872   1.569   4.811   8.013  0.2797  0.3753 -0.2554
  167SOPE  C31518873   1.653   4.771   8.202 -0.1156 -0.2517 -0.7305
  167SOPE  H15X18874   1.746   4.827   8.177 -0.0608  1.2013  2.3750
  167SOPE  H15Y18875   1.676   4.695   8.279 -2.0835  0.0054  0.1770
  167SOPE  C31618876   1.537   4.851   8.270 -0.0589  0.1830  0.0531
  167SOPE  H16X18877   1.455   4.783   8.300 -0.5836  0.2993 -1.0659
  167SOPE  H16Y18878   1.495   4.924   8.198 -2.2027  0.1047  1.1603
  167SOPE  C31718879   1.590   4.926   8.394  0.0090  0.1508  0.0684
  167SOPE  H17X18880   1.682   4.986   8.377  0.9293 -1.6261 -1.6195
  167SOPE  H17Y18881   1.618   4.862   8.481 -0.5749  1.9195  1.6230
  167SOPE  C31818882   1.491   5.022   8.459 -0.0615 -0.7910  0.0981
  167SOPE  H18X18883   1.389   4.981   8.472 -0.6311  0.4456 -0.2651
  167SOPE  H18Y18884   1.476   5.104   8.385 -1.3304  0.3540  1.5494
  167SOPE  H18Z18885   1.520   5.072   8.554 -2.4967  0.0083  0.4900
  168SOPE     N18886   2.699   2.677   6.189  0.2961  0.7756 -0.4734
  168SOPE   HN118887   2.778   2.611   6.176 -0.7870 -0.1939 -2.5025
  168SOPE   HN218888   2.614   2.617   6.192  0.9969 -0.4180 -2.5114
  168SOPE   HN318889   2.700   2.729   6.099 -1.8090 -0.1763 -1.1141
  168SOPE   C1218890   2.710   2.747   6.322 -0.3469  0.0320 -0.1624
  168SOPE  H12A18891   2.725   2.667   6.398  1.3489  1.6642  1.3191
  168SOPE  H12B18892   2.621   2.808   6.347  0.5749  1.5057 -0.3447
  168SOPE   C1118893   2.831   2.838   6.319  0.3297  0.0858  0.3337
  168SOPE  H11A18894   2.829   2.909   6.404  0.1811  0.6929 -0.1735
  168SOPE  H11B18895   2.815   2.904   6.231 -3.3284  0.7879  1.3936
  168SOPE     P18896   3.046   2.739   6.431  0.4202 -0.5965 -0.1589
  168SOPE   O1318897   3.081   2.866   6.494 -0.0630  0.0710 -0.4257
  168SOPE   O1418898   3.153   2.656   6.383 -0.3666 -0.0906  0.2959
  168SOPE   O1218899   2.949   2.764   6.310  0.2101 -0.2572 -0.0757
  168SOPE   O1118900   2.946   2.662   6.525  0.4508 -0.8267 -0.1665
  168SOPE    C118901   2.968   2.519   6.544 -0.1255  0.3379 -0.6413
  168SOPE    HA18902   3.062   2.501   6.601 -1.2108 -0.2032  1.0254
  168SOPE    HB18903   2.970   2.468   6.445 -0.3134  2.2778 -1.6935
  168SOPE    C218904   2.878   2.440   6.646  0.3120  0.0798  0.4089
  168SOPE    HS18905   2.774   2.468   6.619  0.0102  0.4369  1.8911
  168SOPE   O2118906   2.920   2.458   6.787 -0.3062  0.1872  0.3261
  168SOPE   C2118907   2.879   2.577   6.835  0.1566 -0.4895  0.6794
  168SOPE   O2218908   2.814   2.663   6.778  0.0259  0.2286  0.5031
  168SOPE   C2218909   2.915   2.597   6.975 -0.0805 -0.1096 -0.5413
  168SOPE   H2R18910   3.025   2.616   6.974  0.0192 -0.2604  1.7768
  168SOPE   H2S18911   2.882   2.507   7.032  0.6222 -0.3400 -0.4853
  168SOPE    C318912   2.900   2.292   6.614  0.6810  0.2697  0.0454
  168SOPE    HX18913   2.999   2.249   6.640  0.7946 -0.1784 -1.0763
  168SOPE    HY18914   2.884   2.280   6.505  0.0805  1.8756 -0.0611
  168SOPE   O3118915   2.803   2.210   6.687 -1.0671  0.2566  0.2236
  168SOPE   C3118916   2.795   2.094   6.647  0.7948 -0.4710  0.1701
  168SOPE   O3218917   2.839   2.050   6.536  0.0237  0.1185  0.3567
  168SOPE   C3218918   2.721   2.014   6.749  0.2250  0.2254 -0.1857
  168SOPE   H2X18919   2.733   1.906   6.723 -1.2443  0.3955 -1.7684
  168SOPE   H2Y18920   2.611   2.031   6.742  0.1992  0.8702  1.3616
  168SOPE   C2318921   2.850   2.727   7.032 -0.7766  0.1508 -0.5804
  168SOPE   H3R18922   2.743   2.710   7.056  0.2691 -1.8853  3.8108
  168SOPE   H3S18923   2.856   2.815   6.965  1.8436  0.3313 -0.2162
  168SOPE   C2418924   2.916   2.782   7.161  0.2058 -0.0706  0.0540
  168SOPE   H4R18925   3.025   2.769   7.145  0.1567  0.4502 -0.7378
  168SOPE   H4S18926   2.874   2.883   7.178  3.7362  1.8217 -1.3296
  168SOPE   C2518927   2.877   2.703   7.282  0.1072 -0.1377 -0.3611
  168SOPE   H5R18928   2.766   2.699   7.290  0.1872  0.2412  1.3070
  168SOPE   H5S18929   2.913   2.598   7.274  1.8635  0.4823 -1.2453
  168SOPE   C2618930   2.937   2.766   7.414  0.2205  0.2132 -0.2370
  168SOPE   H6R18931   3.047   2.754   7.401  0.3773  1.3677 -0.1014
  168SOPE   H6S18932   2.907   2.873   7.415  1.2731  0.5419 -1.8213
  168SOPE   C2718933   2.880   2.705   7.542 -0.3328 -0.3089 -0.0268
  168SOPE   H7R18934   2.773   2.729   7.558  0.0390  0.3770  1.5797
  168SOPE   H7S18935   2.880   2.596   7.520 -0.2828  0.0072 -1.8148
  168SOPE   C2818936   2.963   2.717   7.672  0.1636  0.4874 -0.1811
  168SOPE   H8R18937   2.920   2.636   7.734  1.2215 -1.9333 -2.3692
  168SOPE   H8S18938   3.065   2.672   7.665  0.4930  0.4449  3.2133
  168SOPE   C2918939   2.973   2.857   7.740  0.3669  0.3025  0.0105
  168SOPE   H9118940   2.915   2.932   7.684 -1.4093  0.2154  1.6379
  168SOPE  C21018941   3.059   2.888   7.840  0.3517  0.0237  0.2916
  168SOPE  H10118942   3.059   2.995   7.866 -0.1566  0.0319  0.2745
  168SOPE  C21118943   3.147   2.796   7.913 -0.2201 -0.5683 -0.2599
  168SOPE  H11R18944   3.250   2.832   7.892 -1.2573  1.6138 -1.8701
  168SOPE  H11S18945   3.144   2.690   7.878  0.5038 -0.3916 -0.8732
  168SOPE  C21218946   3.131   2.803   8.069 -0.9730 -0.1999 -0.1055
  168SOPE  H12R18947   3.122   2.908   8.106 -1.8207 -1.8897  5.3743
  168SOPE  H12S18948   3.222   2.747   8.099 -1.5549 -0.2728  1.6161
  168SOPE  C21318949   3.017   2.723   8.134  0.7295  0.2071  0.0561
  168SOPE  H13R18950   3.039   2.614   8.133 -0.5400 -0.0785  0.3906
  168SOPE  H13S18951   2.926   2.739   8.072  1.6376 -0.5661 -1.5219
  168SOPE  C21418952   2.989   2.753   8.281 -0.1298 -0.5176 -0.3141
  168SOPE  H14R18953   2.906   2.683   8.306  0.4984 -2.7144 -3.6562
  168SOPE  H14S18954   2.967   2.860   8.302  1.7617 -0.4416  1.5579
  168SOPE  C21518955   3.104   2.715   8.369 -0.3206  0.1427  0.1599
  168SOPE  H15R18956   3.094   2.770   8.465  1.2345 -0.5234  0.7244
  168SOPE  H15S18957   3.189   2.762   8.314 -0.6871 -1.0581 -1.5236
  168SOPE  C21618958   3.135   2.566   8.400 -0.1975 -0.0188  0.0680
  168SOPE  H16R18959   3.155   2.509   8.306  0.7938  0.6350 -0.1316
  168SOPE  H16S18960   3.057   2.512   8.458  0.8288 -0.1232  1.4082
  168SOPE  C21718961   3.259   2.552   8.481 -0.4149  0.2288  0.8614
  168SOPE  H17R18962   3.259   2.623   8.566  1.6861  1.7213 -0.2735
  168SOPE  H17S18963   3.345   2.583   8.417  0.3069 -0.3169  1.5479
  168SOPE  C21818964   3.276   2.404   8.517  0.3291 -0.1830  0.4492
  168SOPE  H18R18965   3.352   2.394   8.597 -0.5618 -0.4109  1.2856
  168SOPE  H18S18966   3.314   2.346   8.430  1.7841 -1.2381  1.7470
  168SOPE  H18T18967   3.176   2.368   8.551  0.4698  1.0969  2.3587
  168SOPE   C3318968   2.753   2.037   6.895 -0.9494  0.1321 -0.3204
  168SOPE   H3X18969   2.752   2.145   6.923  1.2403  0.1893 -0.2576
  168SOPE   H3Y18970   2.852   1.990   6.913 -2.0155 -1.5397  1.5070
  168SOPE   C3418971   2.654   1.960   6.985  0.1277 -0.3400  0.1253
  168SOPE   H4X18972   2.662   1.852   6.960  1.1563 -0.7563  2.1068
  168SOPE   H4Y18973   2.554   1.996   6.952  1.4373  1.5768 -2.0463
  168SOPE   C3518974   2.677   1.990   7.129  0.9627 -0.2753  0.3818
  168SOPE   H5X18975   2.637   2.088   7.161  3.9305  0.8616  0.8994
  168SOPE   H5Y18976   2.786   1.980   7.145  0.8510 -1.8772  0.3490
  168SOPE   C3618977   2.606   1.884   7.212  0.6274 -1.1799 -0.4793
  168SOPE   H6X18978   2.640   1.786   7.173 -0.4954 -0.9717 -2.0801
  168SOPE   H6Y18979   2.495   1.890   7.204  0.3185  2.1062  3.2439
  168SOPE   C3718980   2.639   1.898   7.364 -0.3974  0.2000 -0.4771
  168SOPE   H7X18981   2.598   1.997   7.394  1.4477  0.0157  3.1019
  168SOPE   H7Y18982   2.747   1.922   7.374 -0.6694  1.0210  0.6713
  168SOPE   C3818983   2.589   1.785   7.461  0.1800 -0.3886  0.1860
  168SOPE   H8X18984   2.618   1.684   7.423 -1.3222 -1.0376  0.6680
  168SOPE   H8Y18985   2.478   1.786   7.469 -0.0309  2.4690 -1.8492
  168SOPE   C3918986   2.643   1.814   7.603 -0.2772 -0.2367 -0.1360
  168SOPE   H9X18987   2.568   1.767   7.671 -0.3082  0.8847  0.6248
  168SOPE   H9Y18988   2.639   1.922   7.625 -0.5398 -0.5169  1.3034
  168SOPE  C31018989   2.783   1.768   7.642 -0.5675 -0.0782  0.4661
  168SOPE  H10X18990   2.842   1.820   7.563 -1.8409 -2.0749 -1.9347
  168SOPE  H10Y18991   2.796   1.661   7.614  3.4228  0.5366 -0.7080
  168SOPE  C31118992   2.846   1.800   7.778  0.8773 -0.3176 -0.4441
  168SOPE  H11X18993   2.818   1.897   7.825  0.0492 -1.0494  0.5944
  168SOPE  H11Y18994   2.956   1.788   7.767  0.8968  0.1894 -0.8902
  168SOPE  C31218995   2.797   1.697   7.882 -1.1988  0.2545 -0.7215
  168SOPE  H12X18996   2.793   1.595   7.838 -2.8913 -0.6614  1.4204
  168SOPE  H12Y18997   2.702   1.730   7.928 -1.5967 -0.8572 -0.7161
  168SOPE  C31318998   2.894   1.677   8.004  0.4903 -0.2039  0.2454
  168SOPE  H13X18999   2.992   1.655   7.958  0.8663  0.3871  0.7595
  168SOPE  H13Y19000   2.853   1.596   8.068 -2.5140  0.4240 -0.7108
  168SOPE  C31419001   2.913   1.807   8.089 -0.0325 -0.4852  0.3256
  168SOPE  H14X19002   2.818   1.860   8.113  0.8142  2.3584 -2.0335
  168SOPE  H14Y19003   2.981   1.879   8.040  1.6049 -1.6444  0.8140
  168SOPE  C31519004   2.983   1.775   8.214 -0.4773 -0.0715 -0.1753
  168SOPE  H15X19005   3.075   1.721   8.183  0.3260  0.8951  0.4497
  168SOPE  H15Y19006   2.920   1.708   8.276  0.1565  0.9242  1.6161
  168SOPE  C31619007   3.028   1.900   8.296  0.1173  0.0557  0.8433
  168SOPE  H16X19008   2.925   1.935   8.320 -0.6864  0.8222 -2.9352
  168SOPE  H16Y19009   3.079   1.978   8.235 -1.9026 -0.1891 -1.3361
  168SOPE  C31719010   3.110   1.865   8.417 -0.6670  0.1080 -0.2420
  168SOPE  H17X19011   3.217   1.854   8.391 -0.1965  1.7154  0.8705
  168SOPE  H17Y19012   3.086   1.769   8.467 -1.3677  1.1671  1.5420
  168SOPE  C31819013   3.091   1.973   8.519  0.2526 -0.0022  0.3393
  168SOPE  H18X19014   3.123   2.073   8.484 -0.7438  0.1809 -0.0593
  168SOPE  H18Y19015   3.155   1.956   8.609  0.2044 -2.7187 -0.0709
  168SOPE  H18Z19016   2.988   1.990   8.557  0.9890  0.8195  2.1028
  169SOPE     N19017   2.748   4.222   6.506 -0.0429 -0.1094 -0.9916
  169SOPE   HN119018   2.707   4.317   6.503  0.9289  0.3043 -2.6239
  169SOPE   HN219019   2.844   4.219   6.465  0.1349 -2.1931 -0.5699
  169SOPE   HN319020   2.694   4.154   6.449 -0.8245  0.8513 -1.4110
  169SOPE   C1219021   2.736   4.168   6.652  0.2878  0.4807 -0.0360
  169SOPE  H12A19022   2.627   4.169   6.674 -0.0829  0.8464 -1.7486
  169SOPE  H12B19023   2.792   4.242   6.714 -0.0206 -0.1218  0.9934
  169SOPE   C1119024   2.793   4.028   6.667  0.0024  0.2401 -0.4055
  169SOPE  H11A19025   2.735   3.946   6.620 -1.3134  0.1814  1.1972
  169SOPE  H11B19026   2.798   3.981   6.768  0.7914 -2.2502 -1.5270
  169SOPE     P19027   2.968   3.943   6.489  0.0645  0.0080 -0.0575
  169SOPE   O1319028   3.114   3.953   6.472 -0.4833 -0.2670 -0.2209
  169SOPE   O1419029   2.890   4.000   6.372  0.2926  0.3087 -0.4425
  169SOPE   O1219030   2.927   4.027   6.618 -0.3240  0.7221  0.3754
  169SOPE   O1119031   2.922   3.798   6.522 -0.5701 -0.1213 -0.3763
  169SOPE    C119032   3.000   3.727   6.625 -0.2968 -0.1929  0.9151
  169SOPE    HA19033   3.050   3.784   6.706 -1.3303  0.8623  0.8425
  169SOPE    HB19034   3.080   3.662   6.583  0.5829  0.6229  1.2960
  169SOPE    C219035   2.901   3.627   6.695  0.1519  0.1063  0.4219
  169SOPE    HS19036   2.881   3.551   6.616  0.5622  1.4724 -1.0435
  169SOPE   O2119037   2.774   3.702   6.718  0.6677  0.2439  0.8078
  169SOPE   C2119038   2.670   3.622   6.746  0.4490 -0.3540 -0.0878
  169SOPE   O2219039   2.665   3.500   6.741  0.5846  0.1348  0.4605
  169SOPE   C2219040   2.552   3.709   6.802 -0.5717 -0.0277 -0.6612
  169SOPE   H2R19041   2.458   3.676   6.753 -0.8133  1.2102 -1.0673
  169SOPE   H2S19042   2.581   3.815   6.787  0.8875 -0.5621 -1.9117
  169SOPE    C319043   2.949   3.545   6.824  0.5026 -0.5560 -0.2533
  169SOPE    HX19044   3.054   3.509   6.815  0.8248  0.8286 -3.3781
  169SOPE    HY19045   2.884   3.457   6.845 -1.5443  0.8266 -0.5609
  169SOPE   O3119046   2.938   3.620   6.950  0.0176  0.0763 -0.2930
  169SOPE   C3119047   3.042   3.692   6.990 -1.0706  0.3931 -0.0938
  169SOPE   O3219048   3.148   3.703   6.936 -0.1054 -0.2140  0.3925
  169SOPE   C3219049   3.018   3.748   7.129 -0.1607 -0.3514 -0.4826
  169SOPE   H2X19050   2.987   3.659   7.189 -0.6983 -0.0288 -0.2666
  169SOPE   H2Y19051   2.936   3.823   7.130 -1.8588 -2.1117 -1.0480
  169SOPE   C2319052   2.533   3.675   6.952  0.4959  0.0828 -0.0656
  169SOPE   H3R19053   2.562   3.570   6.977  2.0301  0.3747 -0.5315
  169SOPE   H3S19054   2.423   3.684   6.964  0.2735 -1.1450 -0.9385
  169SOPE   C2419055   2.612   3.761   7.039 -0.1967  0.2469  0.1640
  169SOPE   H4R19056   2.720   3.741   7.023 -0.0736  1.8079 -1.2222
  169SOPE   H4S19057   2.586   3.866   7.016 -0.2533 -0.0111 -1.0415
  169SOPE   C2519058   2.578   3.731   7.186 -0.1518 -0.0844  0.0212
  169SOPE   H5R19059   2.473   3.761   7.206 -0.4382 -0.4028 -0.9553
  169SOPE   H5S19060   2.588   3.621   7.193 -1.2018 -0.2173 -0.5237
  169SOPE   C2619061   2.673   3.808   7.286  0.0807 -0.2283  0.1067
  169SOPE   H6R19062   2.771   3.757   7.282  0.1255 -0.5329  3.0334
  169SOPE   H6S19063   2.680   3.915   7.255 -2.3375 -0.1233 -0.3178
  169SOPE   C2719064   2.614   3.795   7.424  0.0843 -0.5460 -0.2245
  169SOPE   H7R19065   2.519   3.852   7.428  0.2785 -0.2727  0.6892
  169SOPE   H7S19066   2.585   3.693   7.459  0.7410 -0.0272  2.0151
  169SOPE   C2819067   2.703   3.855   7.534 -0.5107  0.3166 -0.3933
  169SOPE   H8R19068   2.797   3.794   7.533  0.1606  1.2619  0.9444
  169SOPE   H8S19069   2.736   3.953   7.495 -0.5425 -0.2493 -1.8968
  169SOPE   C2919070   2.637   3.880   7.666 -0.4685  0.7157 -0.5026
  169SOPE   H9119071   2.594   3.980   7.680  0.1598  1.0280 -0.7686
  169SOPE  C21019072   2.629   3.777   7.757  0.1729 -0.4892 -0.9833
  169SOPE  H10119073   2.582   3.802   7.854  0.1520 -1.1756 -0.8137
  169SOPE  C21119074   2.687   3.641   7.736  0.4796 -0.3166 -0.4497
  169SOPE  H11R19075   2.686   3.623   7.626 -0.7629 -3.2955 -0.0528
  169SOPE  H11S19076   2.631   3.562   7.790  2.6522 -1.5679  0.0903
  169SOPE  C21219077   2.831   3.620   7.784  0.3643 -0.2755  0.9850
  169SOPE  H12R19078   2.898   3.690   7.730  0.8776 -0.0599  1.8843
  169SOPE  H12S19079   2.887   3.528   7.755  3.2755  1.4093  0.8760
  169SOPE  C21319080   2.838   3.636   7.932 -0.2290 -0.2329 -0.0839
  169SOPE  H13R19081   2.786   3.552   7.983 -0.2884  0.9248  1.8753
  169SOPE  H13S19082   2.792   3.730   7.970 -0.6856 -1.0569  1.4953
  169SOPE  C21419083   2.985   3.641   7.961 -0.6882  0.2925 -0.0909
  169SOPE  H14R19084   3.032   3.708   7.885  1.6847  0.2517  1.2342
  169SOPE  H14S19085   3.036   3.544   7.944 -0.7655  0.3390 -0.5941
  169SOPE  C21519086   3.014   3.682   8.106 -0.0715 -0.3715 -0.8198
  169SOPE  H15R19087   2.983   3.601   8.176 -0.2442  0.1373 -0.3058
  169SOPE  H15S19088   2.954   3.773   8.126 -0.6089 -0.9355  0.2274
  169SOPE  C21619089   3.164   3.705   8.145  1.2858 -0.8205  0.5209
  169SOPE  H16R19090   3.166   3.746   8.248 -0.9117  0.0438  0.2762
  169SOPE  H16S19091   3.187   3.790   8.077 -3.0747  0.1249 -0.0862
  169SOPE  C21719092   3.244   3.586   8.116 -0.5568 -0.7577 -0.6943
  169SOPE  H17R19093   3.235   3.555   8.010 -0.2989 -1.4335 -0.5256
  169SOPE  H17S19094   3.201   3.499   8.170  1.4060 -1.2800  0.1138
  169SOPE  C21819095   3.390   3.604   8.145 -0.4805  0.2644  0.3162
  169SOPE  H18R19096   3.445   3.509   8.131 -0.7174  0.0345  0.9131
  169SOPE  H18S19097   3.407   3.625   8.253  1.4440  1.0692 -0.1072
  169SOPE  H18T19098   3.431   3.688   8.084 -2.6092  0.8000 -0.4745
  169SOPE   C3319099   3.150   3.789   7.193  0.6425  0.1229 -0.5306
  169SOPE   H3X19100   3.185   3.872   7.127  0.1484 -0.3999 -1.4710
  169SOPE   H3Y19101   3.229   3.711   7.189  0.9898  0.2143  2.4048
  169SOPE   C3419102   3.119   3.850   7.335  0.0185  0.9293 -0.2626
  169SOPE   H4X19103   3.214   3.899   7.366  0.1316  1.1692 -0.9602
  169SOPE   H4Y19104   3.094   3.769   7.406  0.8427 -0.4812 -1.5167
  169SOPE   C3519105   3.005   3.960   7.342  0.6713 -0.1624  0.9785
  169SOPE   H5X19106   2.986   3.991   7.447  0.5590  2.7492  0.1789
  169SOPE   H5Y19107   2.912   3.909   7.310  0.5014  0.1678  0.9490
  169SOPE   C3619108   3.046   4.089   7.270 -0.2023  0.5519 -0.0008
  169SOPE   H6X19109   3.031   4.072   7.161 -3.9336 -1.4831  0.6814
  169SOPE   H6Y19110   3.151   4.112   7.299  0.0281 -0.3076 -0.1227
  169SOPE   C3719111   2.959   4.205   7.308 -0.3046  0.4523 -0.2330
  169SOPE   H7X19112   2.965   4.216   7.418  1.3819  0.6852 -0.3114
  169SOPE   H7Y19113   2.855   4.175   7.285 -0.0095 -0.8073 -0.0461
  169SOPE   C3819114   2.987   4.337   7.235 -0.2475  0.8531  0.0255
  169SOPE   H8X19115   3.096   4.342   7.213 -0.6574 -1.4850 -3.2892
  169SOPE   H8Y19116   2.946   4.328   7.133  1.5041 -3.3427 -0.5069
  169SOPE   C3919117   2.954   4.467   7.309  0.4677  0.2932 -0.3694
  169SOPE   H9X19118   2.995   4.477   7.412  2.6170 -0.9798 -1.0386
  169SOPE   H9Y19119   2.845   4.474   7.329 -0.3528  0.7484 -4.2171
  169SOPE  C31019120   2.974   4.595   7.232 -0.1515 -0.0380 -0.3129
  169SOPE  H10X19121   2.920   4.585   7.136 -1.8458  0.5098  0.5344
  169SOPE  H10Y19122   3.081   4.613   7.208 -0.4001  0.0927 -1.3284
  169SOPE  C31119123   2.928   4.723   7.312 -0.5331  0.4815  0.1273
  169SOPE  H11X19124   2.942   4.804   7.237  0.5997  1.0568  0.9325
  169SOPE  H11Y19125   2.988   4.751   7.401 -0.5548 -1.3728  0.7587
  169SOPE  C31219126   2.782   4.713   7.366  0.0228 -0.1791  0.0873
  169SOPE  H12X19127   2.780   4.632   7.443  0.7798 -1.7606 -1.4857
  169SOPE  H12Y19128   2.713   4.689   7.282 -0.2908  2.4569 -0.4693
  169SOPE  C31319129   2.727   4.842   7.439 -0.2850 -0.1136  0.3280
  169SOPE  H13X19130   2.724   4.921   7.361 -1.5002  0.1024  0.5781
  169SOPE  H13Y19131   2.812   4.880   7.501  1.1343 -0.8681 -1.0724
  169SOPE  C31419132   2.594   4.828   7.516  0.5276 -0.5059 -0.5497
  169SOPE  H14X19133   2.517   4.779   7.452 -1.9109 -0.0435  1.8007
  169SOPE  H14Y19134   2.563   4.934   7.531  2.0945  0.0556 -1.1401
  169SOPE  C31519135   2.592   4.762   7.649  0.2367 -0.4096 -0.1594
  169SOPE  H15X19136   2.620   4.655   7.637 -0.1587 -0.9717  2.9720
  169SOPE  H15Y19137   2.491   4.768   7.694  0.6722  0.0982  0.7846
  169SOPE  C31619138   2.700   4.825   7.746 -0.1274  0.1729 -0.0440
  169SOPE  H16X19139   2.718   4.934   7.731  0.7684  0.5938  3.2615
  169SOPE  H16Y19140   2.795   4.776   7.719  1.3653  2.9054 -0.1061
  169SOPE  C31719141   2.677   4.790   7.896 -0.1815 -0.5418  0.4692
  169SOPE  H17X19142   2.665   4.680   7.911 -2.9539 -0.9680 -3.3853
  169SOPE  H17Y19143   2.590   4.847   7.934  1.1157  1.5048  0.4999
  169SOPE  C31819144   2.793   4.835   7.985 -0.4707 -0.3752 -0.2185
  169SOPE  H18X19145   2.893   4.811   7.944  1.8166  2.1014  3.3818
  169SOPE  H18Y19146   2.783   4.792   8.087  0.5975  1.1114  0.5364
  169SOPE  H18Z19147   2.793   4.945   7.995 -3.4474 -0.4124  1.3419
  170SOPE     N19148   5.654   1.558   6.282  0.4558  0.1319  0.4913
  170SOPE   HN119149   5.598   1.510   6.355 -0.3788 -0.1524 -0.3189
  170SOPE   HN219150   5.742   1.503   6.274  0.4343  0.2188 -0.4646
  170SOPE   HN319151   5.682   1.656   6.302 -0.8990  0.8009 -0.7109
  170SOPE   C1219152   5.564   1.553   6.166 -0.5320  0.9905  0.1433
  170SOPE  H12A19153   5.528   1.448   6.161 -0.8734  1.0543  1.1904
  170SOPE  H12B19154   5.622   1.576   6.074  0.0083  1.1741  0.5231
  170SOPE   C1119155   5.449   1.637   6.184 -0.2385  0.5349  0.2180
  170SOPE  H11A19156   5.398   1.630   6.086 -1.0937 -0.6646  0.7308
  170SOPE  H11B19157   5.480   1.742   6.206  0.1255  1.0280 -2.3592
  170SOPE     P19158   5.224   1.654   6.312  0.2134 -0.4790 -0.0427
  170SOPE   O1319159   5.125   1.550   6.277  0.1057 -0.1028  0.2455
  170SOPE   O1419160   5.220   1.776   6.231  0.3339  0.2415 -0.6760
  170SOPE   O1219161   5.371   1.592   6.299  1.0267  0.3434 -0.5982
  170SOPE   O1119162   5.213   1.689   6.464  0.5138  0.3460  0.2598
  170SOPE    C119163   5.332   1.745   6.525  0.2621  0.0977  0.0643
  170SOPE    HA19164   5.344   1.848   6.483  0.7756 -0.5050 -1.3522
  170SOPE    HB19165   5.427   1.691   6.502  0.9918  1.0947  0.6415
  170SOPE    C219166   5.326   1.742   6.677 -0.5232 -0.0271 -0.2742
  170SOPE    HS19167   5.348   1.641   6.719  0.1963  0.6095  0.9257
  170SOPE   O2119168   5.204   1.800   6.731  0.1470  0.2172  0.0124
  170SOPE   C2119169   5.132   1.728   6.819 -0.2101  0.1096  1.1626
  170SOPE   O2219170   5.165   1.616   6.852 -0.1094 -0.3713 -0.0576
  170SOPE   C2219171   5.006   1.804   6.856 -0.2271 -0.9090  0.2256
  170SOPE   H2R19172   4.929   1.724   6.851 -0.4833 -0.6276 -0.3762
  170SOPE   H2S19173   4.981   1.879   6.778  2.5580  0.5255  0.5943
  170SOPE    C319174   5.435   1.836   6.734 -0.7467 -0.3477  0.2750
  170SOPE    HX19175   5.405   1.939   6.705  0.3984 -0.0599  0.0834
  170SOPE    HY19176   5.521   1.818   6.666 -1.2849  0.8696 -0.7867
  170SOPE   O3119177   5.453   1.839   6.875  0.4736 -0.0421  0.2081
  170SOPE   C3119178   5.575   1.815   6.915  0.4784 -0.2120  0.3041
  170SOPE   O3219179   5.669   1.790   6.840 -0.3642  0.1813  0.5835
  170SOPE   C3219180   5.587   1.831   7.064 -0.4846 -0.6304  0.2247
  170SOPE   H2X19181   5.635   1.931   7.073  1.6453 -1.7210  2.0290
  170SOPE   H2Y19182   5.644   1.760   7.127 -0.0281 -0.8880 -0.4604
  170SOPE   C2319183   5.012   1.882   6.997 -0.0741  0.3011  0.8284
  170SOPE   H3R19184   5.103   1.946   6.998 -0.2641  0.5755  0.5989
  170SOPE   H3S19185   5.020   1.808   7.080 -1.3357 -0.9931 -0.1663
  170SOPE   C2419186   4.896   1.972   7.033  0.5416 -0.7620  0.2707
  170SOPE   H4R19187   4.942   2.073   7.026  1.4299 -1.0569  1.5545
  170SOPE   H4S19188   4.822   1.971   6.951 -0.7145  1.0662  1.3170
  170SOPE   C2519189   4.829   1.948   7.169 -0.0574  0.9729  0.4890
  170SOPE   H5R19190   4.744   2.020   7.178 -1.0617 -0.1696  0.3457
  170SOPE   H5S19191   4.784   1.847   7.169  0.5389  0.6802 -1.3898
  170SOPE   C2619192   4.920   1.969   7.294 -0.4329  0.0061  0.5133
  170SOPE   H6R19193   5.003   1.896   7.307 -0.1097 -0.0392 -1.4641
  170SOPE   H6S19194   4.977   2.063   7.279  0.0747 -0.2686  0.7000
  170SOPE   C2719195   4.839   1.976   7.423 -0.0467  0.2821 -0.6741
  170SOPE   H7R19196   4.909   1.988   7.508  1.0116  1.2295 -1.6488
  170SOPE   H7S19197   4.780   2.070   7.415  1.2061  1.3084  1.2660
  170SOPE   C2819198   4.753   1.843   7.444 -0.2275 -0.2366  0.1170
  170SOPE   H8R19199   4.697   1.820   7.350  3.0218 -0.2391 -1.9906
  170SOPE   H8S19200   4.827   1.760   7.451 -1.8637 -1.7449  0.1602
  170SOPE   C2919201   4.658   1.862   7.553  0.5573  0.1958  0.2102
  170SOPE   H9119202   4.564   1.913   7.528  2.0231  2.6859 -0.5618
  170SOPE  C21019203   4.686   1.820   7.682  0.2312 -0.1406 -0.0108
  170SOPE  H10119204   4.619   1.827   7.769  0.8021  1.0549  0.3526
  170SOPE  C21119205   4.821   1.757   7.723  0.3102  0.1306  0.0088
  170SOPE  H11R19206   4.853   1.820   7.808  0.4621  0.9568 -0.6504
  170SOPE  H11S19207   4.900   1.778   7.648  1.2678  0.3277  1.0497
  170SOPE  C21219208   4.808   1.610   7.761  0.0983  0.3841  0.3640
  170SOPE  H12R19209   4.782   1.558   7.666  0.2606  1.9182 -0.5569
  170SOPE  H12S19210   4.719   1.601   7.826  0.7471 -2.0956  1.0133
  170SOPE  C21319211   4.934   1.553   7.835 -0.4386  0.0395  0.1711
  170SOPE  H13R19212   5.027   1.585   7.784 -0.1197 -3.0551 -1.3720
  170SOPE  H13S19213   4.939   1.443   7.822  0.6151  0.2091 -1.0634
  170SOPE  C21419214   4.927   1.593   7.979  0.5214  0.5482  0.0246
  170SOPE  H14R19215   4.842   1.543   8.030  1.4193 -1.0136  0.0786
  170SOPE  H14S19216   4.891   1.698   7.979  1.9242  1.0646 -0.5917
  170SOPE  C21519217   5.049   1.556   8.065  0.0713 -0.6667 -0.2063
  170SOPE  H15R19218   5.138   1.585   8.005  0.5768  0.0346  0.8376
  170SOPE  H15S19219   5.044   1.447   8.084 -0.0250 -0.6057  0.1379
  170SOPE  C21619220   5.050   1.631   8.196 -0.1412 -0.6175  0.2998
  170SOPE  H16R19221   5.030   1.736   8.164  0.4713 -0.9591 -1.3051
  170SOPE  H16S19222   5.154   1.626   8.234 -1.0111 -0.7981  2.8243
  170SOPE  C21719223   4.944   1.578   8.293 -0.4583  0.0561  0.4671
  170SOPE  H17R19224   4.931   1.468   8.291 -4.4311  0.3636  0.6360
  170SOPE  H17S19225   4.844   1.609   8.256  0.3516  0.5689 -1.4163
  170SOPE  C21819226   4.975   1.623   8.437 -0.8188  0.6064 -0.4747
  170SOPE  H18R19227   4.965   1.734   8.440 -1.7111  0.5435 -0.9748
  170SOPE  H18S19228   5.073   1.583   8.470 -2.1672 -1.8479  0.8239
  170SOPE  H18T19229   4.902   1.589   8.513  1.3816 -1.2593  0.9488
  170SOPE   C3319230   5.453   1.836   7.149 -0.4824 -0.6399  0.1325
  170SOPE   H3X19231   5.390   1.744   7.144 -2.3110  0.6216 -1.6881
  170SOPE   H3Y19232   5.386   1.907   7.096 -2.2284 -1.5566  1.0355
  170SOPE   C3419233   5.476   1.866   7.301  0.2663 -0.7899 -0.1066
  170SOPE   H4X19234   5.547   1.950   7.314 -1.0389  0.1462  1.3250
  170SOPE   H4Y19235   5.532   1.784   7.351  0.1567 -1.0185 -0.3539
  170SOPE   C3519236   5.352   1.895   7.376 -0.6132  0.6017 -0.6819
  170SOPE   H5X19237   5.274   1.817   7.360 -0.4311 -0.6386  3.3760
  170SOPE   H5Y19238   5.299   1.990   7.353 -1.2645  0.1693 -0.9916
  170SOPE   C3619239   5.362   1.898   7.534 -0.6101  0.0838  0.2611
  170SOPE   H6X19240   5.449   1.957   7.571  1.1260 -0.7533 -2.1694
  170SOPE   H6Y19241   5.384   1.795   7.570  0.7117  0.1939 -0.1813
  170SOPE   C3719242   5.232   1.956   7.601  0.1463  0.3263 -0.2274
  170SOPE   H7X19243   5.152   1.895   7.553 -1.0800  0.6409  1.3197
  170SOPE   H7Y19244   5.218   2.062   7.571 -1.5597 -0.0872 -1.0178
  170SOPE   C3819245   5.233   1.937   7.751  0.3683  0.2136  0.3073
  170SOPE   H8X19246   5.338   1.950   7.784  0.7557  0.9353 -1.1042
  170SOPE   H8Y19247   5.212   1.831   7.776 -0.4192  0.1655 -0.4971
  170SOPE   C3919248   5.141   2.022   7.833  0.6878 -0.9736  0.0660
  170SOPE   H9X19249   5.061   2.062   7.768  3.2287  2.5920 -1.1917
  170SOPE   H9Y19250   5.204   2.110   7.859  1.9763 -2.2419  1.4392
  170SOPE  C31019251   5.072   1.964   7.960 -0.2829 -0.1198 -0.1677
  170SOPE  H10X19252   5.155   1.916   8.016  1.7796  2.0099 -1.2816
  170SOPE  H10Y19253   5.001   1.882   7.934 -2.4788  1.7830 -0.4825
  170SOPE  C31119254   5.023   2.073   8.058 -0.3279  0.3396  0.0787
  170SOPE  H11X19255   4.933   2.113   8.006  1.0944  1.2210 -1.8197
  170SOPE  H11Y19256   5.090   2.160   8.074 -2.8356  1.7691  5.0770
  170SOPE  C31219257   4.971   2.017   8.193 -0.8471 -0.3516  0.6405
  170SOPE  H12X19258   5.052   1.950   8.228  0.2694 -0.1044 -1.2981
  170SOPE  H12Y19259   4.871   1.973   8.173 -1.4633  1.5346 -0.8317
  170SOPE  C31319260   4.953   2.129   8.304 -0.1524  0.0354  0.0917
  170SOPE  H13X19261   4.893   2.212   8.263 -1.4072 -0.1972  1.3790
  170SOPE  H13Y19262   5.060   2.153   8.323  0.1942  0.2085 -1.8756
  170SOPE  C31419263   4.875   2.077   8.426 -0.5648 -0.2760 -0.8203
  170SOPE  H14X19264   4.911   1.976   8.456 -0.4629 -1.2425 -3.9059
  170SOPE  H14Y19265   4.765   2.068   8.416 -1.3086 -2.0622  5.0101
  170SOPE  C31519266   4.898   2.174   8.543 -0.8550  0.2267  0.6231
  170SOPE  H15X19267   4.858   2.276   8.525 -0.4764  0.4142  0.8219
  170SOPE  H15Y19268   5.008   2.188   8.552 -1.0198  0.8798  1.9163
  170SOPE  C31619269   4.844   2.112   8.673  0.5139  0.4267  0.4733
  170SOPE  H16X19270   4.893   2.170   8.754  0.8107  1.8901 -0.6979
  170SOPE  H16Y19271   4.878   2.006   8.668 -3.2647 -1.0078  1.8950
  170SOPE  C31719272   4.691   2.116   8.685  0.9373  1.1318  0.1253
  170SOPE  H17X19273   4.647   2.068   8.595 -0.4251 -0.5507  1.6076
  170SOPE  H17Y19274   4.665   2.224   8.697  2.6002  1.5174  0.4510
  170SOPE  C31819275   4.629   2.041   8.813 -0.0216  0.1893  0.3324
  170SOPE  H18X19276   4.666   1.936   8.819 -0.7511 -0.0476  0.8530
  170SOPE  H18Y19277   4.519   2.037   8.800  0.0615  1.2792 -0.8958
  170SOPE  H18Z19278   4.650   2.102   8.903  1.2672  2.4253 -1.3942
  171SOPE     N19279   4.554   6.153   6.498  0.0368  0.4688 -0.0120
  171SOPE   HN119280   4.630   6.224   6.507  0.8174  0.1853 -2.9978
  171SOPE   HN219281   4.555   6.124   6.398 -0.3302  0.4229 -0.0029
  171SOPE   HN319282   4.461   6.193   6.521  0.3815  1.6855 -0.6423
  171SOPE   C1219283   4.551   6.029   6.581 -0.2736 -0.1130  0.1511
  171SOPE  H12A19284   4.501   5.951   6.519  1.0619  0.4213 -1.6816
  171SOPE  H12B19285   4.484   6.042   6.668 -0.7571 -1.0218 -0.0670
  171SOPE   C1119286   4.694   5.981   6.599 -0.5220 -0.4528  0.0841
  171SOPE  H11A19287   4.698   5.876   6.636  1.8987 -0.0867  1.0588
  171SOPE  H11B19288   4.749   6.041   6.674 -1.0027 -0.8635  0.7816
  171SOPE     P19289   4.913   5.962   6.455 -0.1129  0.1538 -0.3018
  171SOPE   O1319290   4.970   6.055   6.355  0.3580 -0.1498 -1.0266
  171SOPE   O1419291   4.923   5.819   6.403  0.5671 -0.3575  0.2964
  171SOPE   O1219292   4.764   5.995   6.469  0.5351 -0.6145  0.5835
  171SOPE   O1119293   4.981   5.967   6.598  0.7191  0.7624 -0.3447
  171SOPE    C119294   5.019   6.088   6.664 -0.0858 -0.3003 -0.3250
  171SOPE    HA19295   5.023   6.058   6.771 -2.0706 -2.0295 -0.6965
  171SOPE    HB19296   4.949   6.174   6.652  1.3536  1.7988  3.9252
  171SOPE    C219297   5.169   6.129   6.634 -0.2420  0.2193  0.2435
  171SOPE    HS19298   5.169   6.158   6.527  1.7997  3.6914  1.0340
  171SOPE   O2119299   5.257   6.019   6.666 -0.3189 -0.4231 -0.2860
  171SOPE   C2119300   5.368   6.019   6.591  0.2826  0.0719 -0.5213
  171SOPE   O2219301   5.393   6.096   6.506 -0.6532  0.1295  0.2082
  171SOPE   C2219302   5.454   5.900   6.642  1.2865  0.3462 -0.0191
  171SOPE   H2R19303   5.532   5.878   6.567  0.8286  0.7342 -0.6204
  171SOPE   H2S19304   5.385   5.813   6.642 -1.8043  2.5876  1.4557
  171SOPE    C319305   5.208   6.263   6.704 -0.2183  0.9563 -0.4388
  171SOPE    HX19306   5.147   6.341   6.653 -0.6906  0.4460 -0.6633
  171SOPE    HY19307   5.316   6.281   6.687  0.0793 -1.2405 -1.1857
  171SOPE   O3119308   5.173   6.243   6.843 -0.3583 -0.1644  0.0036
  171SOPE   C3119309   5.127   6.358   6.891 -0.5696  0.4064 -0.2995
  171SOPE   O3219310   5.105   6.459   6.830  0.3018  0.0055  0.2012
  171SOPE   C3219311   5.108   6.344   7.044 -0.3728 -0.1253  0.0830
  171SOPE   H2X19312   5.039   6.261   7.072 -0.1661 -0.1404  0.5629
  171SOPE   H2Y19313   5.055   6.434   7.083 -1.2967 -0.7838  0.3849
  171SOPE   C2319314   5.522   5.944   6.783  0.0527  0.7876  0.3209
  171SOPE   H3R19315   5.436   5.968   6.849 -0.9608  0.1105 -0.6952
  171SOPE   H3S19316   5.581   6.038   6.775 -0.2412  0.9529  0.0364
  171SOPE   C2419317   5.606   5.821   6.837 -0.1526  0.0060 -0.3675
  171SOPE   H4R19318   5.530   5.751   6.877 -1.3532  0.7809 -1.2326
  171SOPE   H4S19319   5.644   5.764   6.749 -1.3929 -2.2168  0.4635
  171SOPE   C2519320   5.706   5.846   6.954 -0.0671  0.3896  0.1876
  171SOPE   H5R19321   5.763   5.752   6.973 -0.3612  0.4448  1.3727
  171SOPE   H5S19322   5.774   5.928   6.924 -0.0381 -0.1461 -1.3018
  171SOPE   C2619323   5.629   5.859   7.086  0.3325  0.4185 -0.4946
  171SOPE   H6R19324   5.574   5.955   7.090 -2.8335 -1.2478 -0.7538
  171SOPE   H6S19325   5.552   5.780   7.090  0.8030 -0.0440 -0.3658
  171SOPE   C2719326   5.712   5.855   7.212  0.2752 -0.1777  0.1349
  171SOPE   H7R19327   5.752   5.751   7.214 -1.7010 -0.9647  1.3227
  171SOPE   H7S19328   5.795   5.927   7.196 -2.1384  2.5047 -1.2118
  171SOPE   C2819329   5.621   5.862   7.333 -0.6684  0.2934  0.1124
  171SOPE   H8R19330   5.579   5.965   7.336  2.5404  1.7457 -0.8390
  171SOPE   H8S19331   5.546   5.781   7.321  2.8202 -3.1631 -0.3591
  171SOPE   C2919332   5.692   5.830   7.467  0.3850 -0.6567  0.1540
  171SOPE   H9119333   5.784   5.770   7.460  0.3391 -0.7326  0.1900
  171SOPE  C21019334   5.663   5.877   7.594 -1.4649  0.1405 -0.0919
  171SOPE  H10119335   5.716   5.823   7.674 -1.0029  0.4812 -0.1709
  171SOPE  C21119336   5.561   5.972   7.638 -1.0674 -0.1634 -0.0902
  171SOPE  H11R19337   5.479   5.922   7.693 -0.2764 -0.2256  1.0699
  171SOPE  H11S19338   5.513   6.023   7.552  1.7445  1.9451 -0.5708
  171SOPE  C21219339   5.623   6.081   7.732  0.2493  0.7621  0.1372
  171SOPE  H12R19340   5.543   6.158   7.743 -0.2555  0.1896  0.6490
  171SOPE  H12S19341   5.714   6.126   7.687 -0.4780  0.3396 -1.8494
  171SOPE  C21319342   5.640   6.033   7.877  0.4953 -1.3593  0.4217
  171SOPE  H13R19343   5.720   5.956   7.873  1.4304 -0.3713 -1.3348
  171SOPE  H13S19344   5.547   5.984   7.914 -0.2989  0.6902  1.2309
  171SOPE  C21419345   5.676   6.150   7.976 -0.3161  0.1430 -0.0038
  171SOPE  H14R19346   5.600   6.230   7.964  1.3403  1.8542  0.4094
  171SOPE  H14S19347   5.773   6.197   7.949 -0.4216 -0.1366 -0.9116
  171SOPE  C21519348   5.684   6.106   8.125 -1.1336  0.2544  0.1989
  171SOPE  H15R19349   5.780   6.054   8.144 -2.6056 -1.9628  2.3029
  171SOPE  H15S19350   5.595   6.040   8.132 -1.6186  0.7794 -0.8415
  171SOPE  C21619351   5.686   6.232   8.218 -0.1143  0.4318  0.1009
  171SOPE  H16R19352   5.597   6.293   8.192  0.1317  1.2320  1.0918
  171SOPE  H16S19353   5.783   6.275   8.183 -1.0492  2.1699 -0.4903
  171SOPE  C21719354   5.677   6.197   8.361  0.3548  0.1194 -0.3409
  171SOPE  H17R19355   5.586   6.135   8.373 -0.1432  1.0313  0.8258
  171SOPE  H17S19356   5.646   6.291   8.411  1.3868  0.8927 -1.1237
  171SOPE  C21819357   5.800   6.131   8.423  0.1239 -0.7130  0.8341
  171SOPE  H18R19358   5.786   6.108   8.531  0.9670 -1.4280  0.8024
  171SOPE  H18S19359   5.890   6.194   8.408 -0.0539 -0.2974  1.4682
  171SOPE  H18T19360   5.811   6.035   8.368 -1.2511  0.8555 -2.4515
  171SOPE   C3319361   5.244   6.306   7.112  0.4487  0.2730  0.2603
  171SOPE   H3X19362   5.319   6.386   7.094 -1.9917  2.2907 -1.7114
  171SOPE   H3Y19363   5.285   6.208   7.079 -2.7989 -1.7765  1.8062
  171SOPE   C3419364   5.228   6.292   7.263 -0.1804 -0.0898  0.4747
  171SOPE   H4X19365   5.172   6.203   7.301  0.0790 -0.7240 -0.5687
  171SOPE   H4Y19366   5.171   6.378   7.302 -0.6112 -0.1078 -0.1092
  171SOPE   C3519367   5.364   6.304   7.334  0.1027 -0.1714 -0.3808
  171SOPE   H5X19368   5.410   6.405   7.322  1.0969 -0.5337  0.2289
  171SOPE   H5Y19369   5.427   6.235   7.274  1.6483  0.9269 -0.0901
  171SOPE   C3619370   5.366   6.283   7.481 -0.1378 -0.0629 -0.6636
  171SOPE   H6X19371   5.473   6.267   7.505 -0.1572  0.3147 -0.3037
  171SOPE   H6Y19372   5.304   6.194   7.502  0.9095 -0.7697 -0.5039
  171SOPE   C3719373   5.310   6.400   7.569 -0.0032  0.6569 -1.4001
  171SOPE   H7X19374   5.211   6.432   7.530 -0.5648 -1.5742 -1.9920
  171SOPE   H7Y19375   5.376   6.489   7.576  0.6153  0.1703 -0.8842
  171SOPE   C3819376   5.302   6.353   7.714  0.9461  0.1506  0.3213
  171SOPE   H8X19377   5.244   6.431   7.769  1.0312 -1.7236  3.2961
  171SOPE   H8Y19378   5.403   6.345   7.760  0.0217 -1.2865  2.2341
  171SOPE   C3919379   5.225   6.225   7.741 -0.5122  0.6219 -0.3965
  171SOPE   H9X19380   5.295   6.143   7.714 -0.2595  0.7184 -0.0411
  171SOPE   H9Y19381   5.133   6.212   7.680 -0.5177 -0.7955 -0.1308
  171SOPE  C31019382   5.194   6.208   7.888 -0.5142 -0.3563  0.1915
  171SOPE  H10X19383   5.142   6.110   7.899 -1.1681  0.0585  0.8731
  171SOPE  H10Y19384   5.108   6.277   7.897 -0.2078 -0.0893  1.1360
  171SOPE  C31119385   5.305   6.229   7.996  0.0626  0.2759  0.0684
  171SOPE  H11X19386   5.358   6.326   7.994 -0.1128  0.3791 -2.5283
  171SOPE  H11Y19387   5.381   6.148   7.996 -0.6247 -0.4105  1.2819
  171SOPE  C31219388   5.233   6.233   8.132 -0.7167 -0.1815  0.0633
  171SOPE  H12X19389   5.310   6.229   8.211  0.9495  0.3340 -1.4621
  171SOPE  H12Y19390   5.169   6.143   8.143 -1.5059  0.3165 -0.3170
  171SOPE  C31319391   5.145   6.356   8.155 -0.1232  0.7649 -0.0499
  171SOPE  H13X19392   5.038   6.350   8.123 -0.0516  1.2222 -0.3896
  171SOPE  H13Y19393   5.181   6.445   8.100 -0.8813  2.1870  1.6418
  171SOPE  C31419394   5.158   6.415   8.297 -0.1739  0.1749 -0.0384
  171SOPE  H14X19395   5.144   6.341   8.379 -0.6332  0.9908  0.6254
  171SOPE  H14Y19396   5.078   6.489   8.313 -1.2698 -1.2571  1.3839
  171SOPE  C31519397   5.299   6.471   8.311  0.3640 -0.2043 -0.4808
  171SOPE  H15X19398   5.300   6.569   8.258  0.3532 -0.0798 -0.2515
  171SOPE  H15Y19399   5.373   6.408   8.258  0.2946 -0.3477 -0.4071
  171SOPE  C31619400   5.320   6.499   8.466  0.7374  0.2599  0.2298
  171SOPE  H16X19401   5.428   6.496   8.488  0.3865 -3.8197  2.2342
  171SOPE  H16Y19402   5.276   6.417   8.526  3.0894  0.4700  2.3638
  171SOPE  C31719403   5.259   6.628   8.509  0.9073  0.1819 -0.6702
  171SOPE  H17X19404   5.150   6.617   8.491  0.8552  0.5975 -0.6234
  171SOPE  H17Y19405   5.285   6.718   8.450 -0.3525  0.7373 -0.4006
  171SOPE  C31819406   5.272   6.654   8.657 -0.6041 -0.4911  0.1892
  171SOPE  H18X19407   5.374   6.691   8.682  0.0114 -1.1204 -1.2908
  171SOPE  H18Y19408   5.235   6.568   8.717 -1.7629  0.2095  0.5154
  171SOPE  H18Z19409   5.208   6.736   8.695  0.6183 -0.1451  1.5901
  172SOPE     N19410   5.209   6.629   6.337 -0.2911  0.1378  0.2351
  172SOPE   HN119411   5.193   6.729   6.314  1.5590  0.0257 -1.8793
  172SOPE   HN219412   5.312   6.621   6.340 -0.0423  2.7063  1.0474
  172SOPE   HN319413   5.160   6.571   6.265  1.2286 -1.4962  0.4376
  172SOPE   C1219414   5.177   6.591   6.473 -0.7527 -0.5208 -0.7886
  172SOPE  H12A19415   5.174   6.480   6.483 -0.6482 -0.4175  0.6498
  172SOPE  H12B19416   5.073   6.626   6.492 -0.1264  0.9168  0.2422
  172SOPE   C1119417   5.271   6.654   6.584  0.1203 -0.0899 -0.5886
  172SOPE  H11A19418   5.267   6.593   6.677  1.0777  1.9712  0.8968
  172SOPE  H11B19419   5.233   6.755   6.613  0.5243 -0.3944  1.0955
  172SOPE     P19420   5.521   6.731   6.581 -0.4250  0.1833  0.3886
  172SOPE   O1319421   5.473   6.864   6.638  0.0687  0.7158 -0.0660
  172SOPE   O1419422   5.605   6.742   6.464  0.2578  0.1871  0.3526
  172SOPE   O1219423   5.401   6.643   6.535 -0.1387  0.0101  0.3506
  172SOPE   O1119424   5.592   6.653   6.697  0.3049 -0.4470 -0.0639
  172SOPE    C119425   5.613   6.510   6.688 -0.3800  0.6008  0.6200
  172SOPE    HA19426   5.693   6.498   6.613 -2.6630 -0.3746 -1.8117
  172SOPE    HB19427   5.525   6.450   6.656  0.4364  0.1151 -0.7786
  172SOPE    C219428   5.662   6.459   6.827 -0.9429 -0.2992 -0.1473
  172SOPE    HS19429   5.734   6.539   6.855  0.6594 -1.8881  0.4740
  172SOPE   O2119430   5.733   6.335   6.809 -0.5920  0.1646 -0.0273
  172SOPE   C2119431   5.864   6.334   6.800  0.0305  0.0838  0.2162
  172SOPE   O2219432   5.931   6.431   6.787 -0.1021 -0.5351  0.9559
  172SOPE   C2219433   5.915   6.194   6.809 -0.2448 -0.2120  0.1136
  172SOPE   H2R19434   5.912   6.154   6.705 -0.2619  0.3940 -0.1234
  172SOPE   H2S19435   5.842   6.133   6.867  0.1849  0.1312  1.0227
  172SOPE    C319436   5.546   6.435   6.930  0.1333 -0.5491  0.4518
  172SOPE    HX19437   5.589   6.422   7.031  1.5357 -0.7882 -0.1571
  172SOPE    HY19438   5.494   6.339   6.910  0.6637 -0.7011 -0.2172
  172SOPE   O3119439   5.452   6.538   6.937  0.0366 -0.1752  0.6127
  172SOPE   C3119440   5.495   6.647   7.000  0.5640 -0.3041  0.6311
  172SOPE   O3219441   5.601   6.664   7.044 -0.3417 -0.1862 -0.5197
  172SOPE   C3219442   5.374   6.748   6.992 -0.4521  0.5395  0.1565
  172SOPE   H2X19443   5.356   6.753   6.883  0.8664 -0.2744 -0.1178
  172SOPE   H2Y19444   5.420   6.843   7.027  1.4561  0.0926 -1.0275
  172SOPE   C2319445   6.067   6.186   6.852 -0.9805  0.4012 -0.3092
  172SOPE   H3R19446   6.132   6.249   6.788 -1.6427 -0.5520 -1.9626
  172SOPE   H3S19447   6.102   6.081   6.843 -0.7219  0.5325 -0.9071
  172SOPE   C2419448   6.090   6.234   6.998 -0.4559 -0.1481  0.0553
  172SOPE   H4R19449   6.197   6.233   7.027 -0.6516  0.1764  0.8182
  172SOPE   H4S19450   6.066   6.342   6.991 -2.7714 -0.6325 -0.3706
  172SOPE   C2519451   6.011   6.157   7.102 -0.1083  0.1626  0.2252
  172SOPE   H5R19452   5.916   6.215   7.102 -0.0858  0.2055 -0.2154
  172SOPE   H5S19453   5.997   6.048   7.088  1.8117 -0.3396  1.7900
  172SOPE   C2619454   6.076   6.169   7.241  0.6074 -0.5328 -0.7225
  172SOPE   H6R19455   6.182   6.136   7.247  0.8463  0.4706  1.5421
  172SOPE   H6S19456   6.080   6.276   7.269 -2.1522 -0.4567 -0.4000
  172SOPE   C2719457   5.978   6.102   7.348 -0.1662  0.5223 -0.3394
  172SOPE   H7R19458   5.885   6.163   7.346 -0.8859 -0.4501 -3.7953
  172SOPE   H7S19459   5.952   6.005   7.300  0.0523  0.4185 -0.2497
  172SOPE   C2819460   6.042   6.079   7.492  0.7251 -0.2725 -0.0400
  172SOPE   H8R19461   5.958   6.040   7.553 -0.1254  1.3564 -0.1187
  172SOPE   H8S19462   6.118   5.999   7.484  0.7652 -0.1022 -1.9104
  172SOPE   C2919463   6.117   6.195   7.553  0.1032 -0.2750 -0.4502
  172SOPE   H9119464   6.162   6.263   7.479 -0.6407  0.7723  0.0323
  172SOPE  C21019465   6.135   6.212   7.687  0.1199 -1.4244  0.1672
  172SOPE  H10119466   6.185   6.305   7.716  0.6059 -2.4239  2.8368
  172SOPE  C21119467   6.086   6.130   7.806  0.2964 -0.5205  0.5002
  172SOPE  H11R19468   5.980   6.111   7.779 -0.5964  0.4717  3.0090
  172SOPE  H11S19469   6.071   6.194   7.896 -3.1967 -2.1175  1.1788
  172SOPE  C21219470   6.174   6.004   7.832  0.0900 -0.7720  0.0902
  172SOPE  H12R19471   6.275   6.043   7.860 -0.0370 -1.0488  0.9496
  172SOPE  H12S19472   6.178   5.945   7.738  0.5488 -0.0219 -0.3699
  172SOPE  C21319473   6.116   5.913   7.937 -0.3320  0.1317 -0.3219
  172SOPE  H13R19474   6.188   5.830   7.949 -1.8693 -1.3637 -0.9892
  172SOPE  H13S19475   6.024   5.861   7.902 -0.8322  1.3840 -0.9473
  172SOPE  C21419476   6.083   5.983   8.075 -0.3352 -0.1687 -0.0436
  172SOPE  H14R19477   6.052   5.901   8.143 -1.0155 -0.2610 -0.4559
  172SOPE  H14S19478   6.009   6.064   8.057  0.3313 -0.1393 -3.3775
  172SOPE  C21519479   6.213   6.038   8.137  0.1475 -0.2049  0.3262
  172SOPE  H15R19480   6.248   6.126   8.080 -0.8277  0.3425  0.5560
  172SOPE  H15S19481   6.295   5.962   8.138 -2.2112 -2.9748 -1.2522
  172SOPE  C21619482   6.173   6.088   8.275 -0.2999  0.1875  0.5450
  172SOPE  H16R19483   6.129   6.004   8.332  0.1357 -0.2529  0.2328
  172SOPE  H16S19484   6.097   6.169   8.265 -0.5926  0.1593  2.2294
  172SOPE  C21719485   6.299   6.145   8.347 -0.0055  0.3854 -0.5617
  172SOPE  H17R19486   6.346   6.227   8.289  1.5074 -0.7069 -0.9776
  172SOPE  H17S19487   6.382   6.072   8.362  1.1925  1.6781 -0.6698
  172SOPE  C21819488   6.273   6.201   8.489 -0.0363 -0.2440 -0.1278
  172SOPE  H18R19489   6.202   6.285   8.477  0.3054  0.2233  1.0168
  172SOPE  H18S19490   6.376   6.230   8.520  0.9055 -2.7850 -0.5709
  172SOPE  H18T19491   6.244   6.127   8.566  0.5076  1.4178  1.7399
  172SOPE   C3319492   5.244   6.714   7.076 -1.1947 -0.3562 -0.2820
  172SOPE   H3X19493   5.194   6.628   7.028 -1.0053  0.4266 -1.9686
  172SOPE   H3Y19494   5.175   6.801   7.077 -1.9219 -0.9065  1.3949
  172SOPE   C3419495   5.288   6.686   7.229 -0.4315 -0.0842  0.7417
  172SOPE   H4X19496   5.363   6.763   7.256  1.8368 -2.1677  0.6891
  172SOPE   H4Y19497   5.331   6.584   7.238  0.4912  0.4338  2.5264
  172SOPE   C3519498   5.170   6.670   7.317  0.0133 -0.2141  0.2864
  172SOPE   H5X19499   5.195   6.594   7.394  1.7087 -2.4269 -2.2476
  172SOPE   H5Y19500   5.079   6.643   7.259 -0.5652 -0.8505  1.4530
  172SOPE   C3619501   5.127   6.804   7.378  0.3898 -0.3287 -0.1879
  172SOPE   H6X19502   5.063   6.865   7.310  0.6642 -0.2028 -0.3354
  172SOPE   H6Y19503   5.218   6.867   7.391 -0.2384  0.4443  0.5739
  172SOPE   C3719504   5.047   6.804   7.509 -0.2335 -0.1967 -0.3617
  172SOPE   H7X19505   4.952   6.748   7.508 -0.0937 -0.4401 -0.1135
  172SOPE   H7Y19506   5.033   6.911   7.536  2.5921  0.8954 -2.6158
  172SOPE   C3819507   5.114   6.742   7.633 -0.0870  0.5339  0.0948
  172SOPE   H8X19508   5.219   6.779   7.631 -0.0737  0.8186  2.3955
  172SOPE   H8Y19509   5.121   6.634   7.607  0.5557  1.1674 -2.6379
  172SOPE   C3919510   5.044   6.768   7.762 -0.6810  0.7197  0.2315
  172SOPE   H9X19511   4.935   6.752   7.745 -0.4928 -0.9752  0.4689
  172SOPE   H9Y19512   5.063   6.874   7.792  0.8124  0.4655  0.2526
  172SOPE  C31019513   5.098   6.679   7.880  0.4725 -0.6325  0.0950
  172SOPE  H10X19514   5.209   6.679   7.891  0.4003  0.9099  1.0636
  172SOPE  H10Y19515   5.075   6.574   7.850  1.9902 -1.3624  1.3425
  172SOPE  C31119516   5.037   6.699   8.019  0.1316 -0.0213  0.1466
  172SOPE  H11X19517   5.097   6.637   8.088 -3.1283 -0.8545  2.4567
  172SOPE  H11Y19518   4.932   6.664   8.028 -0.8562  2.9079  1.5125
  172SOPE  C31219519   5.048   6.846   8.072  0.4498  0.3374  0.1592
  172SOPE  H12X19520   4.979   6.915   8.019  0.7388  0.1837 -0.4357
  172SOPE  H12Y19521   5.153   6.878   8.052  0.0098  1.1815 -0.8750
  172SOPE  C31319522   5.030   6.854   8.223 -0.3421  0.1525  0.3916
  172SOPE  H13X19523   5.114   6.794   8.264  1.2914  2.0514  0.0263
  172SOPE  H13Y19524   4.935   6.801   8.245  0.5885 -2.1227 -0.7593
  172SOPE  C31419525   5.035   6.998   8.289  0.1872  0.5164  0.4977
  172SOPE  H14X19526   4.966   7.065   8.234  0.6374  0.3984 -0.2306
  172SOPE  H14Y19527   5.137   7.041   8.286  0.0842  0.7328 -0.0760
  172SOPE  C31519528   4.994   6.983   8.439 -1.0336 -0.1179  0.1209
  172SOPE  H15X19529   4.990   7.084   8.485 -0.3441  0.6636 -1.4660
  172SOPE  H15Y19530   5.079   6.924   8.480 -0.5518 -1.5493 -2.6894
  172SOPE  C31619531   4.861   6.919   8.459 -0.1846  0.0878 -0.1122
  172SOPE  H16X19532   4.877   6.809   8.448  0.1268  0.1323 -0.1026
  172SOPE  H16Y19533   4.787   6.960   8.387 -1.8823 -0.3639  1.3188
  172SOPE  C31719534   4.807   6.930   8.603  0.2722 -0.2592  0.4281
  172SOPE  H17X19535   4.785   7.037   8.624 -1.6945 -0.4441 -0.4326
  172SOPE  H17Y19536   4.879   6.917   8.686  0.7784 -0.0901  0.0192
  172SOPE  C31819537   4.685   6.845   8.620  0.0743 -0.5463 -0.1508
  172SOPE  H18X19538   4.595   6.879   8.565 -0.1319 -0.9268 -0.0553
  172SOPE  H18Y19539   4.646   6.838   8.724  1.0496  0.8594  0.3382
  172SOPE  H18Z19540   4.710   6.739   8.596 -1.5032 -0.8047 -0.7319
  173SAPI   C1219541   6.373   3.908  10.646  0.1383  0.9309 -0.2699
  173SAPI    H219542   6.440   3.861  10.572  1.4608  1.6201  0.4446
  173SAPI    O219543   6.362   4.044  10.607 -0.0335  0.4418 -0.2255
  173SAPI   HO219544   6.284   4.049  10.552 -0.5061 -0.5155  0.3405
  173SAPI   C1319545   6.230   3.852  10.633 -0.1195 -0.0681  0.2529
  173SAPI    H319546   6.229   3.746  10.668 -0.2508  0.3977  1.7403
  173SAPI    O319547   6.185   3.853  10.501 -0.1475 -0.6825 -0.2487
  173SAPI   HO319548   6.147   3.768  10.475  0.8229 -0.5861 -2.2059
  173SAPI   C1419549   6.133   3.923  10.726  0.1707  0.4729 -0.8392
  173SAPI    H419550   6.118   4.025  10.683  0.2087 -0.2552 -2.6936
  173SAPI    O419551   6.005   3.867  10.730 -0.1199 -0.7184 -0.1469
  173SAPI   HO419552   6.010   3.781  10.772 -0.4661 -1.0473 -0.7656
  173SAPI   C1519553   6.181   3.938  10.864 -0.4424 -0.2092  0.4060
  173SAPI    H519554   6.173   3.842  10.921  1.3282  0.0752  1.1865
  173SAPI    O519555   6.100   4.028  10.942  0.1383  0.1922 -0.0465
  173SAPI   HO519556   6.095   4.109  10.889 -1.1590 -1.8651 -3.4109
  173SAPI   C1619557   6.329   3.981  10.875  0.3852  0.1421  0.2143
  173SAPI    H619558   6.338   4.087  10.842  1.8370  0.1200  0.4440
  173SAPI    O619559   6.381   3.954  11.009 -0.0771  0.0108 -0.1135
  173SAPI   HO619560   6.471   3.924  10.999  0.0929  0.2626  0.5752
  173SAPI   C1119561   6.429   3.902  10.786  0.4043 -0.4302 -0.1077
  173SAPI    H119562   6.416   3.797  10.820 -1.8164 -0.4171 -0.7497
  173SAPI     P19563   6.693   3.847  10.742 -0.1096 -0.1316  0.0343
  173SAPI   O1319564   6.653   3.708  10.773  0.0715  0.2580  0.3580
  173SAPI   O1419565   6.818   3.904  10.791  0.1545  0.1172 -0.3715
  173SAPI   O1219566   6.566   3.952  10.797 -0.4833  0.4789  0.3908
  173SAPI   O1119567   6.695   3.870  10.582 -0.2595 -0.0924 -0.9123
  173SAPI    C119568   6.761   3.983  10.536 -0.8967 -0.7320 -0.6265
  173SAPI    HA19569   6.729   4.075  10.590  0.0776 -0.0212 -1.2378
  173SAPI    HB19570   6.870   3.967  10.549 -0.9343 -0.3080  0.3309
  173SAPI    C219571   6.737   4.015  10.392  0.5382 -0.7171 -0.3671
  173SAPI    HS19572   6.777   4.113  10.358 -3.2759  1.2223  0.1962
  173SAPI   O2119573   6.592   4.023  10.364  0.6352  0.0227  0.2252
  173SAPI   C2119574   6.530   4.136  10.346 -0.1383 -0.5020 -0.7689
  173SAPI   O2219575   6.573   4.248  10.370 -0.4237 -0.1614  0.9432
  173SAPI   C2219576   6.387   4.104  10.292  0.2008  0.0484  0.0246
  173SAPI   H2R19577   6.371   3.995  10.311 -0.9485  0.2672  0.3979
  173SAPI   H2S19578   6.316   4.172  10.345 -0.6272 -0.3169 -0.5904
  173SAPI    C319579   6.804   3.916  10.295 -0.0698  0.1912 -0.0529
  173SAPI    HX19580   6.761   3.820  10.331  0.0658 -0.3029 -1.1573
  173SAPI    HY19581   6.912   3.931  10.316 -0.2303 -1.2993  2.2028
  173SAPI   O3119582   6.775   3.933  10.151  0.2504 -0.1619  0.3644
  173SAPI   C3119583   6.839   4.021  10.086 -0.3357  0.1303 -0.0562
  173SAPI   O3219584   6.934   4.087  10.120 -0.2297 -0.2920 -0.0369
  173SAPI   C3219585   6.753   4.057   9.961  0.1186  0.4420 -0.2591
  173SAPI   H2X19586   6.710   4.158   9.980  1.1128  0.6527  0.9784
  173SAPI   H2Y19587   6.681   3.975   9.943  1.9925 -1.6531  1.2950
  173SAPI   C2319588   6.373   4.132  10.144  0.3430 -0.2149 -0.0738
  173SAPI   H3R19589   6.278   4.084  10.112  0.5717 -0.3482 -0.5639
  173SAPI   H3S19590   6.453   4.084  10.083  1.7860  1.8712  0.0702
  173SAPI   C2419591   6.371   4.280  10.105  0.3741 -0.3131 -0.4469
  173SAPI   H4R19592   6.472   4.319  10.080  1.2122 -2.6783 -1.0073
  173SAPI   H4S19593   6.332   4.344  10.188 -0.9593  1.0506 -2.0599
  173SAPI   C2519594   6.286   4.302   9.982  0.2751  0.2679 -1.2648
  173SAPI   H5R19595   6.192   4.356  10.004 -0.7682 -1.1535 -2.0461
  173SAPI   C2619596   6.315   4.286   9.859 -0.2167  1.1473  0.4066
  173SAPI   H6R19597   6.242   4.308   9.779 -0.6085  0.2251  0.4978
  173SAPI   C2719598   6.447   4.228   9.804 -0.6189  0.2166 -0.2068
  173SAPI   H7R19599   6.528   4.210   9.879  2.0267  0.7281 -2.7563
  173SAPI   H7S19600   6.498   4.293   9.730 -0.8149  1.3467  0.6107
  173SAPI   C2819601   6.408   4.100   9.738  0.3846 -0.6463 -0.4129
  173SAPI   H8R19602   6.348   4.033   9.801 -1.0631 -0.2788 -1.3733
  173SAPI   C2919603   6.431   4.056   9.611  0.3721  0.6130 -0.7486
  173SAPI   H9R19604   6.410   3.949   9.595  1.4959 -0.0973  2.0152
  173SAPI  C21019605   6.502   4.118   9.489  0.5032 -0.1631 -0.2699
  173SAPI  H10R19606   6.561   4.207   9.520  2.2354 -1.3934  0.0821
  173SAPI  H10S19607   6.424   4.155   9.419  0.4564 -0.3182 -0.2996
  173SAPI  C21119608   6.589   4.018   9.422  0.1826  0.2404 -0.1838
  173SAPI  H11R19609   6.651   3.954   9.486  1.3121  1.3424 -0.1209
  173SAPI  C21219610   6.574   3.978   9.291 -0.5446 -0.8282 -0.1589
  173SAPI  H12R19611   6.642   3.905   9.243 -1.1285 -1.0686 -0.6377
  173SAPI  C21319612   6.468   4.042   9.196 -1.2727 -0.1637  0.0335
  173SAPI  H13R19613   6.456   4.150   9.222 -1.1261 -0.5074  1.6825
  173SAPI  H13S19614   6.370   3.991   9.190 -1.3322  0.0767 -1.4528
  173SAPI  C21419615   6.518   4.037   9.055  0.3459  0.3245  0.7986
  173SAPI  H14R19616   6.475   3.949   9.006  1.6805 -0.1285  0.3985
  173SAPI  C21519617   6.618   4.104   8.988  0.0147  0.5783 -0.1837
  173SAPI  H15R19618   6.631   4.082   8.881  1.1363  2.6133 -0.5164
  173SAPI  C21619619   6.698   4.217   9.058  0.3107 -0.4352 -0.1756
  173SAPI  H16R19620   6.806   4.213   9.029  0.0399 -3.2978 -1.1383
  173SAPI  H16S19621   6.702   4.212   9.169 -1.4099  2.0380  0.0776
  173SAPI  C21719622   6.661   4.362   9.016  0.0068 -0.7405 -0.6010
  173SAPI  H17R19623   6.719   4.415   9.095 -0.9599 -1.9329  0.9742
  173SAPI  H17S19624   6.556   4.393   9.035  0.4542  2.9113 -3.0545
  173SAPI  C21819625   6.702   4.393   8.870  0.8234 -0.0361 -0.1892
  173SAPI  H18R19626   6.630   4.466   8.827  0.5298 -1.1436 -1.6621
  173SAPI  H18S19627   6.689   4.297   8.817 -0.5508 -0.5851  1.1007
  173SAPI  C21919628   6.837   4.467   8.865 -0.1156 -0.2952  0.0416
  173SAPI  H19R19629   6.887   4.442   8.769  2.5123  1.0758  0.9488
  173SAPI  H19S19630   6.898   4.428   8.949 -1.5277 -0.6173  0.9570
  173SAPI  C22019631   6.840   4.621   8.890  0.0786  0.2567  0.1293
  173SAPI  H20R19632   6.779   4.664   8.808 -0.0966  0.3048  0.2841
  173SAPI  H20S19633   6.939   4.668   8.871  0.2428 -0.8452 -2.0896
  173SAPI  H20T19634   6.803   4.633   8.994  0.7317 -2.5229  0.7813
  173SAPI   C3319635   6.843   4.070   9.839  0.7260 -0.0445  0.2111
  173SAPI   H3X19636   6.775   4.052   9.752 -1.8356  1.7960  1.6882
  173SAPI   H3Y19637   6.920   3.991   9.829  0.5729 -0.4350  1.9200
  173SAPI   C3419638   6.905   4.213   9.811 -0.1130 -0.9860 -0.0170
  173SAPI   H4X19639   6.986   4.222   9.886 -0.9226 -0.8301  0.8674
  173SAPI   H4Y19640   6.836   4.300   9.824  2.0181  0.6609  0.9947
  173SAPI   C3519641   6.950   4.229   9.668 -0.4176 -0.1717  0.6608
  173SAPI   H5X19642   7.017   4.145   9.639  2.2732  2.2770 -0.7838
  173SAPI   H5Y19643   7.020   4.315   9.661  0.2679 -0.8368 -1.4764
  173SAPI   C3619644   6.848   4.253   9.552  0.5892  0.0183  1.1161
  173SAPI   H6X19645   6.800   4.353   9.556  0.3632  0.0990 -1.5210
  173SAPI   H6Y19646   6.769   4.175   9.555  0.0607  0.5145  0.3897
  173SAPI   C3719647   6.907   4.256   9.403 -0.2383  0.7037 -1.0425
  173SAPI   H7X19648   6.985   4.335   9.408  0.6405 -0.1772 -0.3933
  173SAPI   H7Y19649   6.827   4.288   9.333 -0.2794  1.6018 -0.6025
  173SAPI   C3819650   6.972   4.123   9.360  0.4896  0.0989  0.3723
  173SAPI   H8X19651   6.900   4.039   9.371  0.3259  0.1036 -0.6330
  173SAPI   H8Y19652   7.061   4.092   9.419 -0.7691 -1.6192  1.4683
  173SAPI   C3919653   7.025   4.114   9.218 -0.3374  0.0367 -0.1659
  173SAPI   H9X19654   6.940   4.091   9.150 -0.1713 -2.2116  0.3267
  173SAPI   H9Y19655   7.097   4.030   9.203  0.3119  0.5648 -0.0780
  173SAPI  C31019656   7.093   4.246   9.173  0.4370 -0.5559  0.1639
  173SAPI  H10X19657   7.180   4.266   9.240  0.3467 -1.0970  0.4492
  173SAPI  H10Y19658   7.015   4.323   9.161  0.5990 -0.5961 -1.2594
  173SAPI  C31119659   7.158   4.221   9.037 -0.7168 -0.3779 -0.3283
  173SAPI  H11X19660   7.094   4.195   8.951 -0.2507 -2.3035 -0.1267
  173SAPI  H11Y19661   7.234   4.141   9.052 -0.7524 -0.1209  1.4186
  173SAPI  C31219662   7.238   4.355   9.005  0.0051 -0.2473  0.1252
  173SAPI  H12X19663   7.302   4.373   9.094 -0.7955  0.5701  0.5520
  173SAPI  H12Y19664   7.160   4.434   9.000 -0.5142 -0.7543  0.1353
  173SAPI  C31319665   7.327   4.340   8.881  0.2436  0.4790  0.5160
  173SAPI  H13X19666   7.356   4.233   8.877  0.0100  0.4044  0.7993
  173SAPI  H13Y19667   7.425   4.391   8.887  0.1039  0.7647  0.3774
  173SAPI  C31419668   7.243   4.382   8.765 -0.1983 -0.9310  0.2695
  173SAPI  H14X19669   7.228   4.493   8.765 -0.2549 -0.9393 -0.2585
  173SAPI  H14Y19670   7.137   4.352   8.772 -0.3556 -0.7660 -1.2539
  173SAPI  C31519671   7.299   4.334   8.633 -0.0257  1.3303 -0.2070
  173SAPI  H15X19672   7.407   4.359   8.630 -0.3500  3.1928  1.7836
  173SAPI  H15Y19673   7.247   4.384   8.549 -1.0882  0.0979 -0.3105
  173SAPI  C31619674   7.285   4.180   8.620  0.2107 -0.0871 -0.2164
  173SAPI  H16X19675   7.195   4.136   8.668  1.7492 -2.7715  0.4274
  173SAPI  H16Y19676   7.354   4.133   8.694  0.8852  1.3729  0.1224
  173SAPI  C31719677   7.310   4.120   8.479 -0.0236  0.1085 -1.0472
  173SAPI  H17X19678   7.413   4.153   8.457  0.3483  1.3482  2.0528
  173SAPI  H17Y19679   7.248   4.168   8.401  2.6300  3.0870 -1.5084
  173SAPI  C31819680   7.285   3.963   8.462  0.2959 -0.1399  0.5691
  173SAPI  H18X19681   7.188   3.932   8.507  0.3187 -1.6087 -0.3296
  173SAPI  H18Y19682   7.359   3.912   8.526  0.9214  0.9277  0.7249
  173SAPI  H18Z19683   7.299   3.930   8.356 -2.8301 -1.1402  0.3801
  174SAPI   C1219684   4.163   5.087  11.025  0.3143 -0.1141  0.1782
  174SAPI    H219685   4.104   5.089  10.931 -0.1345 -0.3955  0.4510
  174SAPI    O219686   4.091   5.141  11.134 -0.0227  0.0672  0.4169
  174SAPI   HO219687   4.114   5.234  11.142  0.7847 -0.0102 -0.8254
  174SAPI   C1319688   4.201   4.942  11.054  0.1553 -0.4101 -0.1047
  174SAPI    H319689   4.266   4.908  10.971  0.5718  2.4010 -1.0246
  174SAPI    O319690   4.082   4.856  11.053 -0.0429  0.0527  0.2938
  174SAPI   HO319691   4.052   4.843  10.963  2.3332 -1.8090 -0.3170
  174SAPI   C1419692   4.289   4.933  11.177 -0.1277  0.1777  0.3167
  174SAPI    H419693   4.225   4.966  11.263  0.5929 -0.2419  1.0276
  174SAPI    O419694   4.311   4.797  11.193 -0.5775  0.3436  0.4093
  174SAPI   HO419695   4.239   4.768  11.250 -0.8662 -3.6219 -1.6995
  174SAPI   C1519696   4.416   5.015  11.159  0.2906 -0.3075 -0.2166
  174SAPI    H519697   4.479   4.966  11.082  0.3320 -0.0565 -0.3448
  174SAPI    O519698   4.497   5.009  11.276  0.1613  0.1409 -0.2261
  174SAPI   HO519699   4.561   5.081  11.274  1.0249 -0.5822  0.5677
  174SAPI   C1619700   4.383   5.158  11.116  0.3633 -0.3534 -0.1254
  174SAPI    H619701   4.326   5.197  11.203 -2.4798 -2.1896 -1.0435
  174SAPI    O619702   4.501   5.236  11.099  0.4244  0.3221  0.5134
  174SAPI   HO619703   4.546   5.208  11.020 -0.7108  2.4789 -1.0067
  174SAPI   C1119704   4.284   5.175  10.999 -0.2090  0.0636 -0.0212
  174SAPI    H119705   4.325   5.135  10.904 -0.4702 -2.9755  1.0266
  174SAPI     P19706   4.212   5.391  10.846 -0.0250 -0.1514 -0.4710
  174SAPI   O1319707   4.115   5.501  10.860  0.4764  0.4833 -0.5657
  174SAPI   O1419708   4.176   5.289  10.745  0.3837  0.1000  0.0423
  174SAPI   O1219709   4.239   5.318  10.997  0.2371  0.3884  0.5879
  174SAPI   O1119710   4.349   5.462  10.809  0.3131 -0.3592  0.5678
  174SAPI    C119711   4.459   5.390  10.759  0.4815 -0.0301 -0.3370
  174SAPI    HA19712   4.514   5.358  10.850  0.6688 -1.4794 -0.9301
  174SAPI    HB19713   4.431   5.294  10.711 -0.2614 -0.6136  1.2276
  174SAPI    C219714   4.543   5.479  10.657  0.0291  0.4169 -0.2792
  174SAPI    HS19715   4.592   5.563  10.710  2.4799 -0.4017 -1.0742
  174SAPI   O2119716   4.468   5.517  10.540 -0.4646  0.0421  0.2572
  174SAPI   C2119717   4.422   5.645  10.545 -0.8039  0.4892 -0.7544
  174SAPI   O2219718   4.419   5.713  10.646 -0.8297  0.0928  0.0502
  174SAPI   C2219719   4.374   5.697  10.404 -0.6298 -0.5944  0.1515
  174SAPI   H2R19720   4.393   5.805  10.383 -2.1092 -0.2630  0.4070
  174SAPI   H2S19721   4.442   5.641  10.336 -0.0118 -0.2826  0.5101
  174SAPI    C319722   4.655   5.382  10.606  0.2803  0.0962  0.4196
  174SAPI    HX19723   4.604   5.297  10.556  0.8040  0.9606 -1.6744
  174SAPI    HY19724   4.710   5.340  10.694 -0.8378  0.6157  1.3901
  174SAPI   O3119725   4.750   5.454  10.525 -0.2009 -0.3926 -0.1253
  174SAPI   C3119726   4.724   5.459  10.400  1.0566 -0.5596 -0.8887
  174SAPI   O3219727   4.633   5.406  10.344 -0.0235  0.1437 -0.2359
  174SAPI   C3219728   4.812   5.563  10.326 -0.2319 -0.2194 -0.6847
  174SAPI   H2X19729   4.856   5.629  10.403 -0.8328 -2.1986  1.4640
  174SAPI   H2Y19730   4.734   5.622  10.274 -0.4915  0.1302  0.0858
  174SAPI   C2319731   4.230   5.657  10.361  0.1676  0.1252  0.4457
  174SAPI   H3R19732   4.162   5.689  10.443 -1.0924  2.5473 -1.3984
  174SAPI   H3S19733   4.229   5.548  10.343  2.0433 -0.0132  0.9190
  174SAPI   C2419734   4.181   5.724  10.230  0.3313 -0.1592  0.2652
  174SAPI   H4R19735   4.251   5.707  10.146 -1.3097  2.0886 -1.7292
  174SAPI   H4S19736   4.173   5.832  10.258 -3.2734 -0.5940  1.4296
  174SAPI   C2519737   4.037   5.680  10.187  0.2380 -0.1193 -0.8192
  174SAPI   H5R19738   3.971   5.648  10.268  2.8260 -3.1134  0.3338
  174SAPI   C2619739   3.990   5.687  10.065 -0.7333 -0.6648 -0.2956
  174SAPI   H6R19740   3.886   5.659  10.042 -0.3630 -1.8298 -0.6260
  174SAPI   C2719741   4.065   5.740   9.948  0.1346  0.3476  0.5345
  174SAPI   H7R19742   4.174   5.726   9.964  0.2842 -0.0838 -0.7980
  174SAPI   H7S19743   4.064   5.851   9.947  1.8290  0.4084 -1.9146
  174SAPI   C2819744   4.017   5.676   9.823  0.1238  0.5543 -0.6956
  174SAPI   H8R19745   3.992   5.569   9.828  0.3871  0.5468  0.9208
  174SAPI   C2919746   4.007   5.735   9.707  0.0120  0.1835 -0.3357
  174SAPI   H9R19747   3.981   5.666   9.625  0.8404  1.0390 -1.3568
  174SAPI  C21019748   4.028   5.877   9.665  0.1390  0.9474 -0.0124
  174SAPI  H10R19749   4.089   5.934   9.738 -1.3223 -0.2249  2.2528
  174SAPI  H10S19750   3.929   5.927   9.653 -0.7110 -0.6114  0.1481
  174SAPI  C21119751   4.102   5.883   9.526  0.1233 -0.2250 -0.0495
  174SAPI  H11R19752   4.212   5.893   9.535  0.6760 -3.3624 -1.7883
  174SAPI  C21219753   4.041   5.897   9.408 -0.0239 -0.4415  0.5963
  174SAPI  H12R19754   4.104   5.917   9.321 -0.6717 -0.2741  0.1621
  174SAPI  C21319755   3.893   5.901   9.382 -0.6988  0.5282  0.0196
  174SAPI  H13R19756   3.844   5.892   9.481 -0.2102  0.4498  0.2543
  174SAPI  H13S19757   3.863   5.823   9.310 -1.5353  0.9127 -0.0590
  174SAPI  C21419758   3.846   6.033   9.323  0.4509 -0.9529  0.8788
  174SAPI  H14R19759   3.860   6.127   9.377 -1.0186  1.5798 -2.7373
  174SAPI  C21519760   3.772   6.047   9.208  0.1963 -0.2002  0.5682
  174SAPI  H15R19761   3.750   6.145   9.162  1.0327 -1.3057 -2.4073
  174SAPI  C21619762   3.742   5.934   9.115  0.1199 -0.2661 -0.0394
  174SAPI  H16R19763   3.659   5.959   9.045 -0.7132 -2.3367  0.1265
  174SAPI  H16S19764   3.688   5.856   9.173  2.2191 -1.2815  0.6441
  174SAPI  C21719765   3.853   5.854   9.037  0.1656 -0.0324  0.0469
  174SAPI  H17R19766   3.802   5.778   8.973  2.9315 -0.5535 -1.6821
  174SAPI  H17S19767   3.924   5.798   9.101  0.3077 -2.9889 -2.4869
  174SAPI  C21819768   3.910   5.940   8.924 -0.1258 -0.2401 -0.2629
  174SAPI  H18R19769   3.980   6.010   8.975 -0.9334 -0.7848  1.7235
  174SAPI  H18S19770   3.823   5.998   8.885  0.8023  0.8867 -0.7005
  174SAPI  C21919771   3.980   5.847   8.830  0.5411 -0.5272 -0.1278
  174SAPI  H19R19772   3.916   5.763   8.795 -0.2996  0.1866 -0.3174
  174SAPI  H19S19773   4.071   5.811   8.883  0.5754  0.9190  0.8299
  174SAPI  C22019774   4.025   5.926   8.699 -0.1022  0.1505 -0.2994
  174SAPI  H20R19775   4.082   5.852   8.639  1.8580  0.3671  1.1605
  174SAPI  H20S19776   4.079   6.021   8.721  2.3953 -1.6610  2.1393
  174SAPI  H20T19777   3.929   5.941   8.645 -1.3484 -1.3368  1.3705
  174SAPI   C3319778   4.910   5.485  10.238 -0.5641  0.1963  0.2279
  174SAPI   H3X19779   4.983   5.420  10.291  0.9340  1.0236 -0.7387
  174SAPI   H3Y19780   4.987   5.564  10.224  2.0258 -1.9736  1.2515
  174SAPI   C3419781   4.843   5.443  10.101  0.1413 -0.3158 -0.4962
  174SAPI   H4X19782   4.739   5.406  10.114  0.4294 -0.6183  1.2047
  174SAPI   H4Y19783   4.906   5.360  10.062 -0.2144 -0.3395 -1.0286
  174SAPI   C3519784   4.858   5.556   9.994 -0.1955  0.4036  0.0424
  174SAPI   H5X19785   4.961   5.598   9.989 -0.3889  1.0333  1.1034
  174SAPI   H5Y19786   4.782   5.636  10.008 -0.5460  0.3789 -1.5166
  174SAPI   C3619787   4.830   5.505   9.857 -0.3443  0.3117  0.3770
  174SAPI   H6X19788   4.722   5.479   9.855 -0.1035 -1.2019  2.8012
  174SAPI   H6Y19789   4.869   5.401   9.848 -1.5577 -0.2661  1.3806
  174SAPI   C3719790   4.873   5.589   9.734  0.0194 -0.2476 -1.0329
  174SAPI   H7X19791   4.982   5.605   9.726 -0.2202  3.2704  0.9652
  174SAPI   H7Y19792   4.829   5.691   9.732 -2.6012 -1.2084  1.1767
  174SAPI   C3819793   4.821   5.524   9.603  0.4803 -0.1947  0.2970
  174SAPI   H8X19794   4.717   5.563   9.594  1.0415  2.0814  2.6334
  174SAPI   H8Y19795   4.815   5.414   9.613 -1.2894 -0.2718 -0.9551
  174SAPI   C3919796   4.899   5.584   9.479  0.1249  0.1778  0.5336
  174SAPI   H9X19797   5.006   5.561   9.499  0.3534  0.9106  0.1974
  174SAPI   H9Y19798   4.886   5.694   9.469 -0.8752 -0.1053 -1.8513
  174SAPI  C31019799   4.855   5.529   9.346 -0.0569 -0.1630  0.3157
  174SAPI  H10X19800   4.749   5.557   9.327 -0.7915 -3.0086 -0.1853
  174SAPI  H10Y19801   4.888   5.423   9.344  2.3887  0.4107  2.8598
  174SAPI  C31119802   4.929   5.595   9.224 -0.1341  0.2435 -0.2123
  174SAPI  H11X19803   5.038   5.601   9.239  0.2356 -1.3277 -1.9359
  174SAPI  H11Y19804   4.890   5.698   9.214 -0.3384  0.2714  0.7015
  174SAPI  C31219805   4.894   5.518   9.097  0.4987  0.2043  0.2943
  174SAPI  H12X19806   4.784   5.515   9.082  0.6211 -3.9713 -0.9224
  174SAPI  H12Y19807   4.937   5.416   9.097 -0.0245 -0.0481  1.6857
  174SAPI  C31319808   4.952   5.577   8.970 -0.1449  0.2053 -0.6032
  174SAPI  H13X19809   4.936   5.499   8.892 -0.5955 -1.9535  1.5307
  174SAPI  H13Y19810   5.060   5.592   8.988 -0.0574 -0.0609 -0.8946
  174SAPI  C31419811   4.880   5.706   8.922 -0.1952  0.7938  0.1804
  174SAPI  H14X19812   4.893   5.786   8.999  0.3151 -1.4634  2.5765
  174SAPI  H14Y19813   4.775   5.676   8.905  0.0663  0.5904 -1.1941
  174SAPI  C31519814   4.935   5.753   8.791 -0.4144  0.1096  0.6712
  174SAPI  H15X19815   4.945   5.670   8.719  2.2127  0.0765  0.9803
  174SAPI  H15Y19816   5.035   5.797   8.813 -0.0425  0.5129 -1.6253
  174SAPI  C31619817   4.855   5.876   8.736 -0.0353 -0.9783  0.8698
  174SAPI  H16X19818   4.862   5.946   8.822  2.1193  1.3850 -1.0872
  174SAPI  H16Y19819   4.747   5.849   8.727  0.1834 -2.0233  1.1996
  174SAPI  C31719820   4.915   5.958   8.628  0.3414  0.5752  0.5449
  174SAPI  H17X19821   4.925   5.900   8.534 -2.9814  0.2282  0.2756
  174SAPI  H17Y19822   5.014   5.994   8.663 -0.9559  2.7084  2.2745
  174SAPI  C31819823   4.834   6.081   8.600  0.3719 -0.2579  0.8009
  174SAPI  H18X19824   4.861   6.159   8.675 -0.6737 -1.6654  2.7218
  174SAPI  H18Y19825   4.726   6.063   8.616  1.0290 -1.3817  5.3193
  174SAPI  H18Z19826   4.859   6.118   8.498  2.1101 -1.4807  0.7394
  175SAPI   C1219827   0.496   5.575   6.257 -0.2386  0.4946 -0.6138
  175SAPI    H219828   0.539   5.485   6.208 -0.0443  0.0674  0.3267
  175SAPI    O219829   0.602   5.634   6.338  0.0914  0.0948 -0.0309
  175SAPI   HO219830   0.682   5.631   6.286  0.0354  0.0563 -0.1136
  175SAPI   C1319831   0.445   5.667   6.149  0.2761  0.2812 -0.4170
  175SAPI    H319832   0.363   5.620   6.091 -0.3306  0.5313  0.2232
  175SAPI    O319833   0.557   5.698   6.053  0.1439 -0.2408 -0.0261
  175SAPI   HO319834   0.562   5.794   6.055 -0.8602 -0.1840  0.5538
  175SAPI   C1419835   0.384   5.794   6.219 -0.7686  0.1570  0.3453
  175SAPI    H419836   0.467   5.838   6.277 -0.2391  1.6569 -1.4527
  175SAPI    O419837   0.343   5.885   6.116  0.0694  0.5308  0.1435
  175SAPI   HO419838   0.344   5.972   6.156  1.8640  1.0173 -0.8575
  175SAPI   C1519839   0.276   5.762   6.314  0.9693  0.1081 -0.0871
  175SAPI    H519840   0.197   5.712   6.255  0.0807  1.0652  0.2596
  175SAPI    O519841   0.216   5.881   6.373 -0.2060 -0.4811 -0.5139
  175SAPI   HO519842   0.164   5.844   6.445 -0.6914  1.1023 -0.0017
  175SAPI   C1619843   0.326   5.663   6.417 -0.5806 -0.1795 -0.1883
  175SAPI    H619844   0.412   5.709   6.471 -0.2842 -3.6363  2.5919
  175SAPI    O619845   0.228   5.622   6.509  0.0324  0.7311 -0.3865
  175SAPI   HO619846   0.266   5.579   6.586 -0.4922 -0.0045 -0.5273
  175SAPI   C1119847   0.377   5.540   6.350  0.5206 -0.7875  0.1373
  175SAPI    H119848   0.293   5.508   6.284 -1.8608  0.8536  2.1933
  175SAPI     P19849   0.425   5.278   6.390  0.4046  0.3213  0.2271
  175SAPI   O1319850   0.566   5.232   6.397 -0.9800 -0.0586  0.3515
  175SAPI   O1419851   0.356   5.281   6.256 -0.5754 -0.0856  0.3688
  175SAPI   O1219852   0.414   5.433   6.444  0.1145 -0.4262 -0.2521
  175SAPI   O1119853   0.331   5.189   6.490 -0.7206 -0.3745 -0.0551
  175SAPI    C119854   0.186   5.211   6.500  0.0833 -0.1190 -0.4104
  175SAPI    HA19855   0.140   5.237   6.402 -1.5400  1.8439  0.8065
  175SAPI    HB19856   0.148   5.112   6.532  1.3371 -0.7325 -0.7580
  175SAPI    C219857   0.155   5.314   6.609  0.3143  0.5485  0.0729
  175SAPI    HS19858   0.173   5.408   6.553  1.8391  0.5925  0.6043
  175SAPI   O2119859   0.238   5.298   6.724 -0.3363 -0.7337  0.1927
  175SAPI   C2119860   0.269   5.408   6.791 -0.1740  0.0384  0.3603
  175SAPI   O2219861   0.243   5.523   6.758 -0.0931 -0.6563 -0.0750
  175SAPI   C2219862   0.351   5.353   6.909  0.4903 -0.0222 -0.2755
  175SAPI   H2R19863   0.286   5.280   6.961  3.4060 -0.9703  2.3075
  175SAPI   H2S19864   0.434   5.296   6.862  0.6246  0.6475 -0.8634
  175SAPI    C319865   0.002   5.300   6.652  0.4978  0.0840  0.4353
  175SAPI    HX19866  -0.017   5.198   6.692 -2.4513  1.1738  2.1135
  175SAPI    HY19867  -0.056   5.308   6.558  0.7919 -2.7019 -0.0739
  175SAPI   O3119868  -0.044   5.381   6.766  0.2216 -0.1585 -0.1004
  175SAPI   C3119869  -0.082   5.501   6.738 -0.1599  0.3769  0.2735
  175SAPI   O3219870  -0.082   5.552   6.626 -0.2354  0.3349 -0.2156
  175SAPI   C3219871  -0.126   5.565   6.869  0.2378 -0.2015 -0.1585
  175SAPI   H2X19872  -0.191   5.502   6.933  1.9269 -2.0073 -0.1376
  175SAPI   H2Y19873  -0.194   5.650   6.844 -0.3734 -1.2841 -2.3935
  175SAPI   C2319874   0.407   5.462   6.993  0.0600  0.2902 -0.3398
  175SAPI   H3R19875   0.327   5.521   7.043  0.2231 -0.7349  1.2123
  175SAPI   H3S19876   0.477   5.523   6.932 -0.3161  0.5765 -0.4888
  175SAPI   C2419877   0.489   5.396   7.113  0.3346  0.1494 -0.4184
  175SAPI   H4R19878   0.565   5.473   7.136  1.5077 -0.7048 -1.3183
  175SAPI   H4S19879   0.549   5.313   7.070 -0.1249  1.0680 -3.0650
  175SAPI   C2519880   0.404   5.344   7.231  0.2446 -0.2824 -0.2015
  175SAPI   H5R19881   0.330   5.266   7.207 -2.8528  2.5215 -0.5768
  175SAPI   C2619882   0.401   5.403   7.354 -0.5399  0.4016 -0.6457
  175SAPI   H6R19883   0.335   5.375   7.437  0.1254  0.8814  0.0612
  175SAPI   C2719884   0.479   5.521   7.399  0.9886  0.1548 -0.0199
  175SAPI   H7R19885   0.426   5.587   7.472  1.6910 -1.0636  1.6526
  175SAPI   H7S19886   0.490   5.589   7.311  0.6083  1.1737  0.6983
  175SAPI   C2819887   0.617   5.505   7.454  0.6118  0.3493  0.7466
  175SAPI   H8R19888   0.689   5.494   7.372 -0.8981 -0.0421 -0.5802
  175SAPI   C2919889   0.654   5.478   7.579 -0.3996  0.7271 -0.0918
  175SAPI   H9R19890   0.763   5.475   7.585 -0.2392  1.1252 -2.2003
  175SAPI  C21019891   0.571   5.465   7.705 -0.1908  0.2493 -0.0019
  175SAPI  H10R19892   0.614   5.376   7.754 -0.3028 -0.9210 -1.9396
  175SAPI  H10S19893   0.466   5.436   7.686 -0.0082 -0.0502 -0.5747
  175SAPI  C21119894   0.591   5.596   7.781 -0.2355  0.6982  0.1968
  175SAPI  H11R19895   0.620   5.682   7.719 -0.1804 -0.9992 -2.2727
  175SAPI  C21219896   0.598   5.601   7.917  0.6382  0.0415 -0.3079
  175SAPI  H12R19897   0.592   5.695   7.972 -1.0352 -1.0254  1.4190
  175SAPI  C21319898   0.576   5.490   8.010  0.0830  0.3664  0.1714
  175SAPI  H13R19899   0.498   5.425   7.964  0.2527  1.5376 -1.8982
  175SAPI  H13S19900   0.535   5.532   8.104 -0.3993  1.6813 -0.6011
  175SAPI  C21419901   0.699   5.408   8.053  0.6338 -0.1645 -0.2213
  175SAPI  H14R19902   0.800   5.436   8.020  1.0881 -3.4979 -2.0613
  175SAPI  C21519903   0.696   5.294   8.123  0.4163 -0.0475 -0.2337
  175SAPI  H15R19904   0.787   5.235   8.144  1.9400  1.6663 -1.6671
  175SAPI  C21619905   0.569   5.231   8.180 -0.0787  0.7194 -0.5301
  175SAPI  H16R19906   0.573   5.120   8.177 -0.9639  0.7060 -1.5578
  175SAPI  H16S19907   0.470   5.265   8.143 -1.2202  1.0490  2.5682
  175SAPI  C21719908   0.596   5.259   8.329  0.6002 -0.7867 -0.6192
  175SAPI  H17R19909   0.579   5.367   8.346 -3.5482 -1.3255 -0.2052
  175SAPI  H17S19910   0.694   5.230   8.371  0.5186 -0.0603  0.0935
  175SAPI  C21819911   0.478   5.201   8.411 -0.4697 -0.8343  0.5760
  175SAPI  H18R19912   0.477   5.090   8.411  0.7555 -0.8596  0.3943
  175SAPI  H18S19913   0.384   5.233   8.363  0.1595  0.2717  0.0437
  175SAPI  C21919914   0.475   5.256   8.556 -0.0222 -0.7500 -0.0168
  175SAPI  H19R19915   0.482   5.366   8.542 -4.0807 -0.3128  0.3019
  175SAPI  H19S19916   0.564   5.210   8.602 -0.5755 -1.8639 -0.0364
  175SAPI  C22019917   0.350   5.211   8.631 -0.0950 -0.5649 -0.5480
  175SAPI  H20R19918   0.258   5.247   8.582 -0.7561  0.4139  1.3180
  175SAPI  H20S19919   0.362   5.246   8.735 -1.3126  2.1356 -1.2529
  175SAPI  H20T19920   0.352   5.100   8.634 -1.3288 -0.6650 -1.9716
  175SAPI   C3319921  -0.013   5.621   6.953 -0.2538  0.1648 -0.2086
  175SAPI   H3X19922   0.043   5.696   6.892  1.3240 -0.3487  0.5407
  175SAPI   H3Y19923   0.058   5.542   6.985 -0.8251 -0.0032  0.6753
  175SAPI   C3419924  -0.064   5.686   7.084 -0.4129 -0.3093 -0.1431
  175SAPI   H4X19925  -0.107   5.621   7.163  2.5487  2.0569  3.7812
  175SAPI   H4Y19926  -0.142   5.761   7.057 -2.5362 -1.9688  1.1069
  175SAPI   C3519927   0.052   5.754   7.154 -0.1184 -0.0186  0.5214
  175SAPI   H5X19928   0.090   5.836   7.089 -2.3887  1.5496  1.0849
  175SAPI   H5Y19929   0.147   5.696   7.167  0.8340  1.2885 -0.3208
  175SAPI   C3619930   0.011   5.796   7.292  0.7956  0.0962  0.2707
  175SAPI   H6X19931  -0.095   5.828   7.286  1.6422  3.3502  0.4491
  175SAPI   H6Y19932   0.071   5.885   7.322  1.3184  0.7764 -2.4833
  175SAPI   C3719933   0.027   5.692   7.400 -0.1441  0.0604 -0.5024
  175SAPI   H7X19934   0.013   5.591   7.357 -0.0177  0.2494 -1.0079
  175SAPI   H7Y19935  -0.060   5.703   7.467  0.3237 -3.0254  0.7503
  175SAPI   C3819936   0.149   5.707   7.493  0.3453  0.3048  0.0369
  175SAPI   H8X19937   0.243   5.729   7.438  1.3786  1.9404  2.2911
  175SAPI   H8Y19938   0.158   5.611   7.549  0.6116  0.8808  1.0153
  175SAPI   C3919939   0.133   5.806   7.606  0.4720 -0.7316 -0.0758
  175SAPI   H9X19940   0.035   5.782   7.654 -0.4818  1.4922 -0.7635
  175SAPI   H9Y19941   0.124   5.910   7.566 -0.9147 -1.6396 -2.3296
  175SAPI  C31019942   0.255   5.817   7.690 -0.0483 -0.1508 -0.2063
  175SAPI  H10X19943   0.343   5.842   7.627  2.8586 -2.9284  2.3913
  175SAPI  H10Y19944   0.276   5.718   7.735 -0.9822 -1.1134 -1.8196
  175SAPI  C31119945   0.250   5.916   7.797  0.6748  0.2541  0.1218
  175SAPI  H11X19946   0.239   6.021   7.763 -2.5434  0.6316  1.8538
  175SAPI  H11Y19947   0.346   5.910   7.853  0.1956  1.3577  1.1185
  175SAPI  C31219948   0.135   5.890   7.905  0.3104 -0.1633  0.0399
  175SAPI  H12X19949   0.117   5.781   7.918  1.0180 -0.5467 -1.8713
  175SAPI  H12Y19950   0.039   5.922   7.860  0.2770  0.0464  0.2600
  175SAPI  C31319951   0.150   5.973   8.030 -0.0744 -0.2325  0.5668
  175SAPI  H13X19952   0.069   5.965   8.105 -1.5249  1.3804 -0.7580
  175SAPI  H13Y19953   0.148   6.078   7.992  0.5902 -0.7489 -1.0041
  175SAPI  C31419954   0.287   5.940   8.101 -0.0990  0.1040 -0.1922
  175SAPI  H14X19955   0.293   5.991   8.200  0.4420  0.9264 -0.6386
  175SAPI  H14Y19956   0.350   5.993   8.026 -1.6902 -1.1026 -2.5119
  175SAPI  C31519957   0.319   5.793   8.122 -0.7765 -0.4133  0.1232
  175SAPI  H15X19958   0.424   5.785   8.155 -1.1237  1.0622  1.7479
  175SAPI  H15Y19959   0.319   5.732   8.030 -0.9235 -0.2557  0.0167
  175SAPI  C31619960   0.219   5.737   8.225  0.1784  0.1270 -0.7279
  175SAPI  H16X19961   0.116   5.742   8.182 -0.3242 -0.3604  0.3659
  175SAPI  H16Y19962   0.217   5.807   8.311  0.7905 -0.6979 -0.0228
  175SAPI  C31719963   0.255   5.593   8.267  0.1452  0.2169  0.5483
  175SAPI  H17X19964   0.365   5.579   8.276  0.1689 -0.3880 -0.4223
  175SAPI  H17Y19965   0.223   5.528   8.182  0.0572  0.0063  0.7413
  175SAPI  C31819966   0.187   5.550   8.397  0.2999 -0.3288 -0.8859
  175SAPI  H18X19967   0.078   5.532   8.386  0.3167 -2.6405  1.6571
  175SAPI  H18Y19968   0.197   5.628   8.474  1.8847 -0.1243 -1.2710
  175SAPI  H18Z19969   0.237   5.459   8.436  0.2069  0.0226  0.0576
  176SAPI   C1219970   4.908   2.503   6.196  0.7285  0.5535 -0.1457
  176SAPI    H219971   4.895   2.435   6.283 -4.2219  1.5364  0.1973
  176SAPI    O219972   5.042   2.493   6.154 -0.4403  0.0941  0.6839
  176SAPI   HO219973   5.067   2.401   6.161 -1.4487 -0.0827  2.1742
  176SAPI   C1319974   4.816   2.446   6.089  0.0595  0.1697  0.0966
  176SAPI    H319975   4.714   2.444   6.131  0.6526 -2.2540  1.6182
  176SAPI    O319976   4.846   2.312   6.056 -0.0703  0.5211  0.2344
  176SAPI   HO319977   4.795   2.258   6.116  1.5433 -1.8886 -0.4393
  176SAPI   C1419978   4.811   2.537   5.967 -0.2049 -0.0327  0.2138
  176SAPI    H419979   4.918   2.544   5.937  0.7106 -1.6193  2.7954
  176SAPI    O419980   4.724   2.477   5.866  0.2444 -0.1691  0.2993
  176SAPI   HO419981   4.631   2.486   5.887 -0.1175 -0.4626 -1.0710
  176SAPI   C1519982   4.774   2.683   6.009  0.5641 -0.6897  0.4450
  176SAPI    H519983   4.675   2.692   6.058  0.9698  2.3604  0.9562
  176SAPI    O519984   4.767   2.770   5.891  0.3021 -0.0903 -0.2686
  176SAPI   HO519985   4.697   2.745   5.830 -0.5703  1.9519 -0.1940
  176SAPI   C1619986   4.869   2.735   6.114 -0.5522 -0.3537  0.4534
  176SAPI    H619987   4.970   2.734   6.067 -0.7668  0.2726 -0.0264
  176SAPI    O619988   4.841   2.875   6.150  0.2550 -0.0850 -0.1082
  176SAPI   HO619989   4.821   2.871   6.243  0.7383 -3.5606 -0.0054
  176SAPI   C1119990   4.871   2.645   6.238 -0.1227 -0.3004 -0.2624
  176SAPI    H119991   4.767   2.642   6.277  0.0018  0.0831  0.1017
  176SAPI     P19992   4.913   2.760   6.468  0.0097  0.3014  0.2365
  176SAPI   O1319993   4.775   2.812   6.456  0.2249  0.0060 -0.1341
  176SAPI   O1419994   5.013   2.842   6.538  0.4552 -0.0098  0.4354
  176SAPI   O1219995   4.959   2.703   6.331  0.2520 -0.2793  0.0752
  176SAPI   O1119996   4.916   2.619   6.546  0.3098  0.3985  0.1981
  176SAPI    C119997   5.048   2.554   6.546  0.0156  0.3689 -0.2154
  176SAPI    HA19998   5.023   2.455   6.503  1.9902  0.6619 -2.2467
  176SAPI    HB19999   5.126   2.591   6.476  0.9511  0.5802  0.9102
  176SAPI    C220000   5.111   2.531   6.679 -1.0064 -0.1245  0.5177
  176SAPI    HS20001   5.177   2.441   6.684 -0.5703  0.1878  0.3693
  176SAPI   O2120002   5.022   2.525   6.783  0.6701  0.0859 -0.0950
  176SAPI   C2120003   4.943   2.415   6.777 -0.8149  0.5612  0.6700
  176SAPI   O2220004   4.957   2.327   6.700 -0.3876  0.7427 -0.4662
  176SAPI   C2220005   4.838   2.424   6.887  0.2707 -0.0231  0.4046
  176SAPI   H2R20006   4.897   2.451   6.978  1.2732 -0.0066 -0.2264
  176SAPI   H2S20007   4.773   2.511   6.867 -0.2094 -0.8026 -1.6344
  176SAPI    C320008   5.197   2.661   6.714  0.5374  0.4592  0.2777
  176SAPI    HX20009   5.121   2.742   6.712 -0.4074 -0.4136 -1.2651
  176SAPI    HY20010   5.266   2.687   6.630  1.6552  0.8842  1.2946
  176SAPI   O3120011   5.274   2.641   6.842 -0.0644  0.4197 -0.4845
  176SAPI   C3120012   5.332   2.756   6.879  0.7504  0.3809  0.6618
  176SAPI   O3220013   5.319   2.860   6.817  0.2340  0.1534 -0.1096
  176SAPI   C3220014   5.406   2.718   7.011 -0.4066 -0.4269  0.1957
  176SAPI   H2X20015   5.512   2.725   6.981  0.0836  0.9004  2.0258
  176SAPI   H2Y20016   5.379   2.616   7.045  0.1400 -0.5905  0.1378
  176SAPI   C2320017   4.769   2.296   6.915  0.3840  0.2378 -0.0496
  176SAPI   H3R20018   4.837   2.208   6.901 -1.5779 -1.3394 -0.1476
  176SAPI   H3S20019   4.696   2.291   6.831  0.0505  1.0121  0.1902
  176SAPI   C2420020   4.713   2.284   7.057 -0.6399  0.0606  0.4004
  176SAPI   H4R20021   4.787   2.290   7.140  0.2777 -0.1158 -0.3901
  176SAPI   H4S20022   4.670   2.182   7.060 -2.0093  0.6082  0.2288
  176SAPI   C2520023   4.599   2.386   7.077 -0.4099  0.7595 -0.2553
  176SAPI   H5R20024   4.527   2.384   6.995 -2.8312  0.2700  1.7611
  176SAPI   C2620025   4.573   2.467   7.181 -1.2425  1.4997  0.3849
  176SAPI   H6R20026   4.478   2.523   7.178 -1.7933  0.7232  2.0528
  176SAPI   C2720027   4.659   2.470   7.305  0.6708  0.7887  0.3516
  176SAPI   H7R20028   4.754   2.521   7.276  2.1473 -1.1946  1.4262
  176SAPI   H7S20029   4.683   2.363   7.325 -0.1963  0.1825 -1.5470
  176SAPI   C2820030   4.603   2.542   7.421  0.7343 -0.8054 -0.4222
  176SAPI   H8R20031   4.619   2.650   7.424  1.1700 -0.8601 -0.7200
  176SAPI   C2920032   4.534   2.482   7.522  0.7169 -0.0256 -0.0770
  176SAPI   H9R20033   4.511   2.549   7.606  0.6259  1.4188 -1.2028
  176SAPI  C21020034   4.493   2.338   7.530 -0.1148 -0.1972 -0.1346
  176SAPI  H10R20035   4.496   2.279   7.436 -3.7173 -0.4520 -0.2220
  176SAPI  H10S20036   4.387   2.327   7.561 -0.2335 -0.0689 -0.4959
  176SAPI  C21120037   4.585   2.270   7.627  0.1165 -0.6587 -0.5376
  176SAPI  H11R20038   4.690   2.272   7.594  0.4310  0.3043  0.4893
  176SAPI  C21220039   4.559   2.212   7.750  0.2759 -0.0886  0.1536
  176SAPI  H12R20040   4.644   2.171   7.806  1.5728  1.6177 -0.4885
  176SAPI  C21320041   4.423   2.200   7.808  0.6788 -0.7914 -0.1869
  176SAPI  H13R20042   4.356   2.273   7.758  3.3452  0.6511 -1.8803
  176SAPI  H13S20043   4.439   2.224   7.915 -0.9052  0.7883 -0.2565
  176SAPI  C21420044   4.364   2.063   7.813  0.3461  0.3282 -0.1828
  176SAPI  H14R20045   4.393   2.002   7.726  1.3725  0.9629 -0.2987
  176SAPI  C21520046   4.279   2.018   7.909  0.7990 -0.0881  0.7341
  176SAPI  H15R20047   4.243   1.916   7.889 -0.0051  0.4725 -0.8707
  176SAPI  C21620048   4.231   2.097   8.018 -0.2886  0.0861 -0.1229
  176SAPI  H16R20049   4.125   2.074   8.040 -0.5407  2.5768  1.6646
  176SAPI  H16S20050   4.237   2.205   7.992  3.0253 -0.3082 -1.4771
  176SAPI  C21720051   4.299   2.077   8.158  0.3385 -0.8270  0.5000
  176SAPI  H17R20052   4.404   2.097   8.126 -0.0071  0.1001 -0.0737
  176SAPI  H17S20053   4.288   1.975   8.201  0.6767 -0.5884  1.1634
  176SAPI  C21820054   4.253   2.186   8.263  0.1880 -0.2075 -0.0715
  176SAPI  H18R20055   4.149   2.162   8.292 -0.8884 -1.3576 -4.2221
  176SAPI  H18S20056   4.259   2.287   8.216  0.1184  0.7837  1.9445
  176SAPI  C21920057   4.336   2.201   8.393  0.3694 -0.1321  0.2643
  176SAPI  H19R20058   4.282   2.270   8.461  1.7081  0.7853  0.4230
  176SAPI  H19S20059   4.428   2.255   8.363 -0.6364  1.3679 -0.2549
  176SAPI  C22020060   4.334   2.078   8.479 -0.4743  0.5435  0.3517
  176SAPI  H20R20061   4.380   1.989   8.430  1.1280  1.7743 -0.4781
  176SAPI  H20S20062   4.234   2.045   8.514 -0.3574  1.0311  1.1742
  176SAPI  H20T20063   4.394   2.109   8.568 -0.5142 -1.4872  1.1430
  176SAPI   C3320064   5.355   2.825   7.116 -0.1907  0.2312 -0.6407
  176SAPI   H3X20065   5.244   2.821   7.125 -0.0831 -2.2983  0.2897
  176SAPI   H3Y20066   5.386   2.931   7.100  1.3605  0.3242  2.2592
  176SAPI   C3420067   5.417   2.791   7.255 -0.1640  0.1975 -0.1750
  176SAPI   H4X20068   5.396   2.684   7.278 -0.0642  0.3519  0.6703
  176SAPI   H4Y20069   5.379   2.860   7.333 -0.1713  0.9212 -0.8078
  176SAPI   C3520070   5.571   2.805   7.249 -0.4364 -0.4859  0.5801
  176SAPI   H5X20071   5.597   2.907   7.213 -0.4683 -0.4587  0.6359
  176SAPI   H5Y20072   5.621   2.720   7.198  1.5111  1.7969 -1.5834
  176SAPI   C3620073   5.639   2.807   7.391  0.0906 -0.1131  0.8501
  176SAPI   H6X20074   5.750   2.797   7.385  0.0032 -0.8984  0.4499
  176SAPI   H6Y20075   5.590   2.727   7.449 -1.4624  0.2818  0.1146
  176SAPI   C3720076   5.606   2.941   7.473  0.2741  0.8608 -0.6944
  176SAPI   H7X20077   5.496   2.957   7.466  0.0390  0.5351  1.4169
  176SAPI   H7Y20078   5.643   3.032   7.423 -0.2157  1.1791 -0.4854
  176SAPI   C3820079   5.661   2.924   7.614 -0.3778  0.2001  0.4882
  176SAPI   H8X20080   5.770   2.910   7.605 -0.1929  2.7081 -3.3299
  176SAPI   H8Y20081   5.620   2.831   7.659  1.8969  0.0534  2.4538
  176SAPI   C3920082   5.630   3.029   7.724  0.0872 -0.2108  0.4061
  176SAPI   H9X20083   5.520   3.031   7.738 -0.4038 -0.4006 -2.6696
  176SAPI   H9Y20084   5.660   3.130   7.689 -0.6933 -0.2523 -0.4339
  176SAPI  C31020085   5.679   3.001   7.865  0.0142  0.2057  0.0070
  176SAPI  H10X20086   5.622   2.914   7.906  0.3366  0.0167  0.0584
  176SAPI  H10Y20087   5.655   3.091   7.926 -0.2262  0.5425 -0.5739
  176SAPI  C31120088   5.825   2.981   7.888  0.6647 -0.1226  0.4498
  176SAPI  H11X20089   5.885   3.071   7.862  0.8193 -1.0989 -3.1193
  176SAPI  H11Y20090   5.858   2.904   7.815 -0.1866  1.2316 -1.4298
  176SAPI  C31220091   5.858   2.940   8.033  0.1665 -0.3277 -0.0379
  176SAPI  H12X20092   5.965   2.965   8.046  0.2782 -0.5949 -0.4279
  176SAPI  H12Y20093   5.836   2.832   8.049 -0.8386  0.1227  1.9507
  176SAPI  C31320094   5.781   3.017   8.139 -0.3683 -0.1076  0.8441
  176SAPI  H13X20095   5.672   3.001   8.123 -0.1254 -0.8922 -0.0806
  176SAPI  H13Y20096   5.805   3.123   8.119 -2.6823 -0.0159 -2.1041
  176SAPI  C31420097   5.814   2.968   8.280  0.9249  0.2501 -0.0034
  176SAPI  H14X20098   5.750   3.028   8.349  0.6488 -1.8240  1.6419
  176SAPI  H14Y20099   5.918   2.997   8.308  0.8540 -1.0417  1.7279
  176SAPI  C31520100   5.783   2.825   8.302  0.1841  0.6674 -0.2162
  176SAPI  H15X20101   5.821   2.799   8.403  2.6513 -0.2614 -1.3039
  176SAPI  H15Y20102   5.832   2.753   8.233 -0.8058 -0.3137  0.0733
  176SAPI  C31620103   5.634   2.783   8.301 -0.1631 -0.1279 -0.5152
  176SAPI  H16X20104   5.608   2.810   8.196 -0.8248  2.4455  0.2407
  176SAPI  H16Y20105   5.573   2.859   8.354  1.5651  2.1354 -1.5876
  176SAPI  C31720106   5.605   2.635   8.325 -0.0497 -0.6662  0.0485
  176SAPI  H17X20107   5.656   2.567   8.253  0.0372 -1.8861  1.2267
  176SAPI  H17Y20108   5.495   2.618   8.321  0.0118 -1.1290  0.2460
  176SAPI  C31820109   5.650   2.592   8.466  0.3662 -0.6496  0.2469
  176SAPI  H18X20110   5.597   2.655   8.541  0.6277  1.9444 -1.5962
  176SAPI  H18Y20111   5.758   2.613   8.477  0.1563  3.1369 -2.9592
  176SAPI  H18Z20112   5.623   2.485   8.475 -1.0464 -0.4560 -1.1666
  177SLPC     N20113   5.962   6.104  11.244 -0.6318 -0.3112 -0.7227
  177SLPC   C1320114   5.986   5.960  11.290 -0.1520  0.7188 -0.5981
  177SLPC  H13A20115   6.082   5.922  11.257 -0.9115 -0.6735 -1.2719
  177SLPC  H13B20116   5.968   5.946  11.395  0.4753  2.0353 -0.2935
  177SLPC  H13C20117   5.918   5.889  11.245  2.8014 -1.7393 -1.5245
  177SLPC   C1420118   6.054   6.193  11.320  0.0776  0.2002 -0.4681
  177SLPC  H14A20119   6.042   6.186  11.427  1.6965 -2.3866 -0.3973
  177SLPC  H14B20120   6.160   6.176  11.315  0.2183  0.6357  0.7047
  177SLPC  H14C20121   6.048   6.298  11.295  1.2324  1.6263  4.2169
  177SLPC   C1520122   5.822   6.150  11.272 -0.3138  0.0931 -0.0846
  177SLPC  H15A20123   5.757   6.097  11.205 -3.3336  1.2895  1.6800
  177SLPC  H15B20124   5.787   6.112  11.367 -0.9368 -0.9565 -0.7110
  177SLPC  H15C20125   5.808   6.256  11.261  0.0231  0.2399  0.7953
  177SLPC   C1220126   5.998   6.132  11.094  0.9869  0.4869 -0.0604
  177SLPC  H12A20127   6.106   6.130  11.085  1.0069 -4.5608 -2.1123
  177SLPC  H12B20128   5.959   6.229  11.067 -1.0215  0.0086  0.9279
  177SLPC   C1120129   5.936   6.029  10.994 -0.1026  0.4838 -0.0989
  177SLPC  H11A20130   5.991   5.933  11.002 -1.6204 -0.4502 -0.4577
  177SLPC  H11B20131   5.956   6.062  10.889  0.7554  3.3136  0.8710
  177SLPC     P20132   5.738   5.859  11.036 -0.1823  0.0868 -0.0732
  177SLPC   O1320133   5.818   5.784  11.131 -0.3779  0.1053 -0.4146
  177SLPC   O1420134   5.594   5.879  11.068  0.6601  0.2552 -0.2479
  177SLPC   O1220135   5.800   6.006  11.020  0.4219  0.1209  0.3369
  177SLPC   O1120136   5.738   5.788  10.889 -0.1531 -0.1298 -0.1922
  177SLPC    C120137   5.686   5.866  10.780  0.1216  0.6168 -0.3768
  177SLPC    HA20138   5.637   5.962  10.806  0.8773  1.0687 -0.6027
  177SLPC    HB20139   5.766   5.899  10.710  0.8468 -0.6050 -0.1698
  177SLPC    C220140   5.588   5.778  10.697  0.6029  0.0392  0.6398
  177SLPC    HS20141   5.537   5.716  10.774  1.4144 -1.3824  0.0607
  177SLPC   O2120142   5.652   5.697  10.593 -0.3352 -0.1777  0.2364
  177SLPC   C2120143   5.591   5.583  10.568 -0.3704 -0.0555  0.8459
  177SLPC   O2220144   5.509   5.529  10.645 -0.3220  0.6621  0.3953
  177SLPC   C2220145   5.653   5.512  10.453  0.1627  0.1402  0.7143
  177SLPC   H2R20146   5.674   5.585  10.372  1.4159  0.6360  1.4530
  177SLPC   H2S20147   5.752   5.475  10.487 -0.0784 -1.3327 -0.0825
  177SLPC    C320148   5.476   5.870  10.642 -0.2343  0.1203  0.5765
  177SLPC    HX20149   5.410   5.904  10.724 -2.3013 -0.4204 -0.7802
  177SLPC    HY20150   5.417   5.797  10.581  0.9783 -0.7564  0.4161
  177SLPC   O3120151   5.538   5.977  10.561  0.3713  0.9496 -0.6678
  177SLPC   C3120152   5.542   5.950  10.430  0.4262 -0.3133  0.0058
  177SLPC   O3220153   5.490   5.852  10.381  0.9124  0.1833 -0.0623
  177SLPC   C3220154   5.632   6.048  10.355 -0.5867  0.3081 -0.5963
  177SLPC   H2X20155   5.741   6.030  10.367 -0.7022  0.8266  1.7717
  177SLPC   H2Y20156   5.625   6.150  10.398 -2.9380 -0.0529 -0.0007
  177SLPC   C2320157   5.585   5.379  10.410 -0.2518 -1.0648 -0.2110
  177SLPC   H3R20158   5.499   5.410  10.347 -0.3998 -0.4027  0.3037
  177SLPC   H3S20159   5.548   5.308  10.487 -2.1960  1.0660  0.9426
  177SLPC   C2420160   5.680   5.306  10.314 -0.0524  0.4739  0.3258
  177SLPC   H4R20161   5.640   5.203  10.303  1.0997  0.1590 -1.5907
  177SLPC   H4S20162   5.776   5.285  10.366 -0.6296  0.7496  1.5330
  177SLPC   C2520163   5.700   5.374  10.175 -0.3854 -0.5231  0.3590
  177SLPC   H5R20164   5.771   5.314  10.115  1.2442  0.9198  0.7681
  177SLPC   H5S20165   5.751   5.470  10.197 -1.1446 -0.1320  0.4648
  177SLPC   C2620166   5.573   5.375  10.092  0.4712 -0.3247  1.0231
  177SLPC   H6R20167   5.504   5.447  10.141 -1.0135 -1.6785  1.0065
  177SLPC   H6S20168   5.523   5.276  10.081  2.4172 -1.2733  0.3360
  177SLPC   C2720169   5.600   5.417   9.942 -0.6270 -0.1213  0.2735
  177SLPC   H7R20170   5.502   5.425   9.890  0.0792 -1.6391 -1.3827
  177SLPC   H7S20171   5.665   5.344   9.890  1.0434  0.8041  0.9926
  177SLPC   C2820172   5.689   5.547   9.941 -0.3073  0.3916  0.4161
  177SLPC   H8R20173   5.787   5.528   9.988  2.3206  3.5950 -3.1692
  177SLPC   H8S20174   5.635   5.624  10.000 -1.9587 -1.3620  1.3192
  177SLPC   C2920175   5.728   5.593   9.802 -0.1360 -0.1803 -0.2574
  177SLPC   H9R20176   5.647   5.654   9.759 -0.6849  0.0211  1.0006
  177SLPC  C21020177   5.846   5.577   9.732 -0.0984  0.8453 -0.0138
  177SLPC  H10R20178   5.868   5.619   9.632 -1.0025  1.7332  0.1526
  177SLPC  C21120179   5.956   5.489   9.791  0.1283  0.9205  0.9422
  177SLPC  H11R20180   6.045   5.555   9.806  0.4156  0.5668  0.8200
  177SLPC  H11S20181   5.931   5.448   9.891  0.2397  0.2102  0.6816
  177SLPC  C21220182   5.994   5.376   9.694  0.0405 -0.3752  0.0001
  177SLPC  H12R20183   5.909   5.308   9.675 -2.3316  1.4298  3.1413
  177SLPC  C21320184   6.112   5.356   9.632 -0.6395 -0.6856  0.8792
  177SLPC  H13R20185   6.113   5.277   9.556 -1.4023 -0.4586  0.6267
  177SLPC  C21420186   6.240   5.438   9.649 -0.6264  0.1786 -1.1032
  177SLPC  H14R20187   6.312   5.354   9.642 -2.0907 -1.4410  1.5246
  177SLPC  H14S20188   6.249   5.477   9.752  2.2306 -1.0312 -0.7819
  177SLPC  C21520189   6.253   5.549   9.536 -0.7821  0.1511 -0.2142
  177SLPC  H15R20190   6.325   5.627   9.569 -1.9112  1.2192 -0.1958
  177SLPC  H15S20191   6.161   5.612   9.532  0.5541  2.3921  1.7262
  177SLPC  C21620192   6.287   5.502   9.395 -0.1062 -0.0888  0.8088
  177SLPC  H16R20193   6.218   5.424   9.357  0.1359  0.4501 -0.8478
  177SLPC  H16S20194   6.385   5.452   9.406  0.7975  1.0008 -1.4821
  177SLPC  C21720195   6.296   5.625   9.299 -0.0465  0.1844  0.0932
  177SLPC  H17R20196   6.369   5.686   9.357  0.1821 -1.3322  1.4551
  177SLPC  H17S20197   6.196   5.673   9.300 -0.8729 -1.4759 -0.8084
  177SLPC  C21820198   6.332   5.590   9.156  0.3395  0.7310 -0.6350
  177SLPC  H18R20199   6.265   5.527   9.095 -0.9871 -1.0121  2.3768
  177SLPC  H18S20200   6.437   5.555   9.149  0.4927  1.5206 -2.9867
  177SLPC  H18T20201   6.338   5.686   9.099  1.0261  0.2138 -1.4594
  177SLPC   C3320202   5.617   6.055  10.205  0.8953 -0.1818 -0.6589
  177SLPC   H3X20203   5.691   6.125  10.161 -0.5423  1.8693  0.0235
  177SLPC   H3Y20204   5.525   6.107  10.171  0.2538 -1.1004 -0.3603
  177SLPC   C3420205   5.646   5.918  10.147 -0.2436 -0.0360 -0.0920
  177SLPC   H4X20206   5.556   5.854  10.159 -1.0989  1.4927  2.3981
  177SLPC   H4Y20207   5.728   5.876  10.210 -0.3846 -0.6233 -0.2934
  177SLPC   C3520208   5.682   5.928   9.997 -0.1870  0.1188 -0.4862
  177SLPC   H5X20209   5.750   5.844   9.970  0.0384  0.8854 -2.4887
  177SLPC   H5Y20210   5.745   6.019   9.990  1.4405 -1.0049 -0.8965
  177SLPC   C3620211   5.560   5.932   9.902  0.3362 -0.2065  0.7590
  177SLPC   H6X20212   5.486   6.010   9.929  0.0968  0.2845 -1.2068
  177SLPC   H6Y20213   5.519   5.829   9.889  2.0891 -0.6611 -1.8372
  177SLPC   C3720214   5.617   5.986   9.764  0.0391 -0.3876 -0.7460
  177SLPC   H7X20215   5.702   5.919   9.739 -0.3026  0.1495 -3.6362
  177SLPC   H7Y20216   5.655   6.088   9.783 -1.1298 -0.1477  0.4700
  177SLPC   C3820217   5.519   5.996   9.653 -0.3432  0.6023  0.7719
  177SLPC   H8X20218   5.416   6.026   9.683 -0.3544  2.7134 -1.1567
  177SLPC   H8Y20219   5.511   5.897   9.601  0.0447  1.2399 -0.5468
  177SLPC   C3920220   5.572   6.105   9.550  0.7708 -0.1440 -0.2517
  177SLPC   H9X20221   5.683   6.098   9.542  1.1394  1.8904  1.9371
  177SLPC   H9Y20222   5.561   6.202   9.602  0.0927  1.3462 -2.9942
  177SLPC  C31020223   5.496   6.097   9.422 -0.3170  0.3945  0.4490
  177SLPC  H10X20224   5.394   6.134   9.447 -1.6020 -1.9210 -1.0456
  177SLPC  H10Y20225   5.476   5.993   9.389 -2.2422 -0.0996  2.9042
  177SLPC  C31120226   5.562   6.181   9.304  0.1959  0.5702 -0.1924
  177SLPC  H11X20227   5.607   6.272   9.350  1.5578 -0.8648  1.4641
  177SLPC  H11Y20228   5.476   6.216   9.243  0.0368 -1.2486 -1.0763
  177SLPC  C31220229   5.669   6.104   9.219  0.7912  0.2810  0.0630
  177SLPC  H12X20230   5.658   5.999   9.250  2.3446  0.9989  3.5148
  177SLPC  H12Y20231   5.765   6.146   9.256 -0.3078  1.5297  1.5971
  177SLPC  C31320232   5.657   6.138   9.071  0.4961  0.0398 -0.2467
  177SLPC  H13X20233   5.702   6.239   9.061  3.1921 -0.9140  1.0950
  177SLPC  H13Y20234   5.547   6.136   9.054  0.3363 -1.0557  0.7941
  177SLPC  C31420235   5.732   6.044   8.972  0.4387 -0.6187  0.3260
  177SLPC  H14X20236   5.688   6.075   8.874  0.2181  0.3864  0.7311
  177SLPC  H14Y20237   5.720   5.939   9.007 -1.6006 -0.9640 -1.1899
  177SLPC  C31520238   5.881   6.082   8.954  0.8759  0.3297  0.6203
  177SLPC  H15X20239   5.935   6.068   9.050 -0.4064 -0.8165  1.2083
  177SLPC  H15Y20240   5.885   6.192   8.941 -1.8116  0.4000 -0.2147
  177SLPC  C31620241   5.949   6.010   8.838  0.1337 -0.0599  0.6040
  177SLPC  H16X20242   6.046   6.062   8.825 -1.3412  2.3844 -1.6784
  177SLPC  H16Y20243   5.884   6.012   8.747  1.3141 -0.7799 -0.2814
  177SLPC  C31720244   5.983   5.858   8.861  0.3000 -0.1347 -0.3279
  177SLPC  H17X20245   6.026   5.810   8.771  0.7464  2.0792 -1.3641
  177SLPC  H17Y20246   5.893   5.811   8.907  1.7609 -1.4811  1.3268
  177SLPC  C31820247   6.089   5.845   8.962 -0.4879 -0.2744 -0.7476
  177SLPC  H18X20248   6.053   5.895   9.055 -0.0928  1.0991 -1.3121
  177SLPC  H18Y20249   6.182   5.899   8.934 -0.6343  1.3574  1.5965
  177SLPC  H18Z20250   6.127   5.745   8.995 -1.7524 -0.7798 -0.7605
  178SLPC     N20251   0.683   1.673  10.943  0.0399  0.1037  0.1388
  178SLPC   C1320252   0.674   1.555  11.036  0.3535  0.6463  0.7209
  178SLPC  H13A20253   0.768   1.511  11.066  1.6053  3.3273  1.0303
  178SLPC  H13B20254   0.646   1.592  11.134  1.8536  1.2394  0.9421
  178SLPC  H13C20255   0.599   1.488  10.997  0.8498 -0.3136  1.3943
  178SLPC   C1420256   0.703   1.801  11.020 -0.9020  0.2531 -0.1428
  178SLPC  H14A20257   0.725   1.882  10.952 -0.8905  0.2628 -0.1268
  178SLPC  H14B20258   0.616   1.835  11.075 -0.1395  0.1878  1.1408
  178SLPC  H14C20259   0.792   1.793  11.079  0.6908  2.3598 -2.0719
  178SLPC   C1520260   0.548   1.689  10.867 -0.3976 -0.6078 -0.1119
  178SLPC  H15A20261   0.548   1.784  10.816 -0.8953  0.0413  1.0571
  178SLPC  H15B20262   0.530   1.607  10.799  3.8687 -1.2391 -0.7967
  178SLPC  H15C20263   0.463   1.706  10.930 -0.9199 -0.7606 -0.7676
  178SLPC   C1220264   0.795   1.660  10.834 -0.3679  0.0111 -0.9927
  178SLPC  H12A20265   0.784   1.744  10.768 -2.4156 -0.3602 -1.1932
  178SLPC  H12B20266   0.761   1.582  10.767  0.6769 -1.4571  0.1154
  178SLPC   C1120267   0.945   1.648  10.887 -0.2362 -0.1804  0.6054
  178SLPC  H11A20268   0.998   1.637  10.789 -2.3048 -0.2220 -0.5700
  178SLPC  H11B20269   0.948   1.553  10.944  2.3715 -0.5801 -0.0661
  178SLPC     P20270   1.024   1.900  10.922 -0.2860 -0.2654  0.0369
  178SLPC   O1320271   0.976   2.013  11.007  0.4928 -0.0224  0.1963
  178SLPC   O1420272   1.169   1.899  10.881  0.0071 -0.2675 -0.0530
  178SLPC   O1220273   0.988   1.755  10.965  0.2615  0.6337 -0.2138
  178SLPC   O1120274   0.928   1.918  10.796 -0.1912  0.5456 -0.4570
  178SLPC    C120275   0.959   1.893  10.656 -0.0855  0.1188  0.4476
  178SLPC    HA20276   1.047   1.826  10.646 -0.6583 -0.7499  1.1610
  178SLPC    HB20277   0.874   1.846  10.603 -1.2985  3.5263 -0.9329
  178SLPC    C220278   0.997   2.026  10.581 -0.3594 -0.5330  0.3319
  178SLPC    HS20279   1.055   2.082  10.658  0.5659  2.4847 -2.2920
  178SLPC   O2120280   0.877   2.099  10.537 -0.6759  0.5535  0.2956
  178SLPC   C2120281   0.891   2.234  10.538 -0.0054  0.5219 -1.3157
  178SLPC   O2220282   0.988   2.293  10.580 -0.2203 -0.0552 -0.4113
  178SLPC   C2220283   0.765   2.286  10.483 -0.5979 -0.0731  0.4739
  178SLPC   H2R20284   0.686   2.267  10.559 -1.1080 -1.2132 -0.3201
  178SLPC   H2S20285   0.789   2.395  10.478 -0.6748 -0.0087  1.3626
  178SLPC    C320286   1.101   2.004  10.472 -0.0079  0.6379  0.5455
  178SLPC    HX20287   1.195   1.953  10.502 -1.1147 -2.0090 -0.1408
  178SLPC    HY20288   1.133   2.106  10.443 -2.0529  1.7366  1.9006
  178SLPC   O3120289   1.035   1.915  10.374  0.1528 -0.5498 -0.1027
  178SLPC   C3120290   0.981   1.975  10.263  0.7450 -0.5272 -0.8529
  178SLPC   O3220291   1.001   2.090  10.227 -0.2093 -0.0798  0.3987
  178SLPC   C3220292   0.889   1.877  10.200  0.6112 -0.7752 -0.7886
  178SLPC   H2X20293   0.827   1.832  10.281  0.9479 -1.1755 -0.7524
  178SLPC   H2Y20294   0.958   1.802  10.156  2.2882  1.6668 -2.5535
  178SLPC   C2320295   0.735   2.229  10.339 -0.2099 -0.8846  0.2024
  178SLPC   H3R20296   0.711   2.121  10.350  0.4055 -1.0096  0.3629
  178SLPC   H3S20297   0.818   2.252  10.269 -0.7472  0.4728 -0.0168
  178SLPC   C2420298   0.615   2.311  10.293  0.0641 -0.1388 -0.1566
  178SLPC   H4R20299   0.637   2.418  10.275 -2.9447  0.4847 -0.7322
  178SLPC   H4S20300   0.533   2.315  10.368  1.6980  2.3376  1.6692
  178SLPC   C2520301   0.575   2.274  10.147  0.1396  0.3979 -0.0926
  178SLPC   H5R20302   0.505   2.188  10.149  1.3469 -0.6084  1.2755
  178SLPC   H5S20303   0.663   2.241  10.088  0.2992  0.9185 -0.1528
  178SLPC   C2620304   0.508   2.396  10.078 -0.7665 -0.1335 -0.0768
  178SLPC   H6R20305   0.589   2.470  10.066 -2.1411  1.6506  1.0275
  178SLPC   H6S20306   0.432   2.448  10.140  0.1097 -0.8006  1.5961
  178SLPC   C2720307   0.455   2.359   9.939 -0.0402 -0.3854 -0.0409
  178SLPC   H7R20308   0.375   2.432   9.915  0.4667  1.0266  2.2861
  178SLPC   H7S20309   0.408   2.259   9.928 -0.6819 -0.7428  4.1078
  178SLPC   C2820310   0.564   2.389   9.841  0.3030 -0.2334  0.6432
  178SLPC   H8R20311   0.661   2.359   9.886  0.9237  3.3076  1.9891
  178SLPC   H8S20312   0.553   2.498   9.825 -1.2830 -0.3942  0.4732
  178SLPC   C2920313   0.567   2.307   9.714 -0.6471  0.1706 -0.0312
  178SLPC   H9R20314   0.606   2.206   9.736  3.3375  0.8233 -2.8024
  178SLPC  C21020315   0.544   2.355   9.592  1.3917  0.0779  0.2983
  178SLPC  H10R20316   0.547   2.284   9.508  0.9335 -0.0449  0.3811
  178SLPC  C21120317   0.502   2.496   9.550  0.4125 -0.1447  1.3477
  178SLPC  H11R20318   0.591   2.562   9.537  0.0138  0.2876  0.8094
  178SLPC  H11S20319   0.444   2.549   9.629 -0.3616 -0.5870  1.0780
  178SLPC  C21220320   0.431   2.505   9.414  0.1688 -0.0306  0.5449
  178SLPC  H12R20321   0.444   2.414   9.353 -0.1642 -0.2997  0.8661
  178SLPC  C21320322   0.343   2.608   9.381  0.0535  0.2005  0.2659
  178SLPC  H13R20323   0.290   2.604   9.285  0.4262  2.4663 -0.0918
  178SLPC  C21420324   0.321   2.732   9.462 -0.1353  0.2111 -0.1139
  178SLPC  H14R20325   0.386   2.729   9.552  0.2365  1.1406 -0.3298
  178SLPC  H14S20326   0.219   2.733   9.506  0.3537 -0.2987  1.0616
  178SLPC  C21520327   0.350   2.862   9.393  0.5727 -0.5612 -0.1304
  178SLPC  H15R20328   0.301   2.856   9.294  0.4070 -0.7126 -0.0408
  178SLPC  H15S20329   0.459   2.877   9.378  0.0620  1.1944 -2.5645
  178SLPC  C21620330   0.292   2.983   9.468  0.2123  0.3335 -0.6543
  178SLPC  H16R20331   0.182   2.982   9.483  0.3076 -0.3956  0.0072
  178SLPC  H16S20332   0.327   3.062   9.397  1.0211 -0.5636 -1.2737
  178SLPC  C21720333   0.357   3.008   9.611  1.0458  0.3513  1.8297
  178SLPC  H17R20334   0.465   3.034   9.609  1.2692 -0.5890  0.7520
  178SLPC  H17S20335   0.334   2.912   9.662 -1.2684  0.0587  0.3924
  178SLPC  C21820336   0.298   3.121   9.694  0.8658 -0.7783  0.0458
  178SLPC  H18R20337   0.333   3.106   9.798  0.7684 -1.0327  0.0412
  178SLPC  H18S20338   0.187   3.128   9.690  0.9545  1.3264  0.1959
  178SLPC  H18T20339   0.342   3.218   9.661  1.0385 -0.4362  1.2501
  178SLPC   C3320340   0.787   1.942  10.109  0.7217 -0.2630 -0.4184
  178SLPC   H3X20341   0.730   2.026  10.155  0.0315 -0.0252 -1.6465
  178SLPC   H3Y20342   0.714   1.864  10.077 -0.8892  0.1625  1.9707
  178SLPC   C3420343   0.849   1.984   9.981  0.5560 -0.0559  0.1100
  178SLPC   H4X20344   0.930   2.060   9.995 -0.3653  0.4962  3.1760
  178SLPC   H4Y20345   0.767   2.042   9.934 -1.4289 -1.3396  1.8285
  178SLPC   C3520346   0.892   1.864   9.894 -0.1001 -0.7073  0.4071
  178SLPC   H5X20347   0.808   1.793   9.882  1.0930 -1.8249 -2.0196
  178SLPC   H5Y20348   0.983   1.811   9.928  1.4305  0.6428 -1.3688
  178SLPC   C3620349   0.921   1.906   9.748 -0.2581 -0.3992 -0.3405
  178SLPC   H6X20350   0.988   1.995   9.754  1.7482 -1.7775 -1.2865
  178SLPC   H6Y20351   0.827   1.940   9.699 -0.3168 -0.5427 -0.3291
  178SLPC   C3720352   0.982   1.793   9.663  0.0363  0.2306  0.0223
  178SLPC   H7X20353   0.912   1.706   9.668 -0.5299  0.7607  2.0640
  178SLPC   H7Y20354   1.080   1.763   9.705  1.0197  1.4656 -1.2994
  178SLPC   C3820355   1.016   1.820   9.519  0.4886  0.4619  0.4085
  178SLPC   H8X20356   1.103   1.887   9.504  0.4673 -0.3066 -4.6213
  178SLPC   H8Y20357   0.930   1.872   9.472 -0.8010 -1.9702 -0.0970
  178SLPC   C3920358   1.056   1.689   9.441  0.0975  0.0224 -0.4241
  178SLPC   H9X20359   0.976   1.612   9.436  1.1628 -1.0363 -2.6259
  178SLPC   H9Y20360   1.144   1.639   9.486 -1.0059  0.0678  1.9405
  178SLPC  C31020361   1.080   1.726   9.299  0.1490 -0.6110  0.6562
  178SLPC  H10X20362   1.143   1.647   9.253 -1.9915 -2.3894  0.6223
  178SLPC  H10Y20363   1.154   1.808   9.290 -1.7928  1.0126 -1.6001
  178SLPC  C31120364   0.959   1.767   9.210 -0.0520 -0.2040  0.5069
  178SLPC  H11X20365   0.923   1.867   9.244  2.2084  0.5107  0.9276
  178SLPC  H11Y20366   0.879   1.690   9.218 -0.7180  0.2165 -1.5501
  178SLPC  C31220367   0.990   1.796   9.063  0.7406  0.8722  0.6861
  178SLPC  H12X20368   1.061   1.726   9.013 -1.4438 -1.0834  0.1926
  178SLPC  H12Y20369   1.055   1.886   9.055  0.7125  0.9192  0.9565
  178SLPC  C31320370   0.861   1.803   8.974 -0.3164 -0.0486 -0.2627
  178SLPC  H13X20371   0.784   1.861   9.030  0.5657  1.7548 -0.8279
  178SLPC  H13Y20372   0.833   1.701   8.941 -0.0753 -0.1717 -0.0881
  178SLPC  C31420373   0.887   1.878   8.838 -0.5297  0.3915 -0.3614
  178SLPC  H14X20374   0.957   1.825   8.770  0.7236  0.6486  0.6914
  178SLPC  H14Y20375   0.944   1.973   8.848  1.0728 -0.4390 -1.2234
  178SLPC  C31520376   0.753   1.886   8.765  0.5051  0.3263  0.2943
  178SLPC  H15X20377   0.722   1.784   8.735 -1.1106  1.2739 -1.4813
  178SLPC  H15Y20378   0.668   1.923   8.825 -0.3012 -1.3173  0.2238
  178SLPC  C31620379   0.763   1.965   8.635 -0.2984 -0.6271  0.4223
  178SLPC  H16X20380   0.780   2.074   8.647 -1.5090 -0.4732  0.8989
  178SLPC  H16Y20381   0.664   1.954   8.586 -0.9485  1.4288  1.1472
  178SLPC  C31720382   0.872   1.921   8.535  0.5000  0.3371  0.6137
  178SLPC  H17X20383   0.864   1.810   8.539 -1.6157  0.3879 -0.4789
  178SLPC  H17Y20384   0.976   1.943   8.567  0.2057  2.9990 -0.0291
  178SLPC  C31820385   0.867   1.981   8.392 -0.2950  0.5414 -0.3962
  178SLPC  H18X20386   0.769   1.956   8.344 -0.4891 -1.2448  0.8404
  178SLPC  H18Y20387   0.944   1.932   8.329  0.0440  1.3563 -0.6283
  178SLPC  H18Z20388   0.893   2.087   8.412  0.1161 -0.0043  2.2476
  179SLPC     N20389   2.106   5.582  10.551  0.4173 -0.1631  0.3841
  179SLPC   C1320390   2.230   5.604  10.627 -0.3063  0.1294  0.4116
  179SLPC  H13A20391   2.269   5.704  10.635  2.8386 -0.7857 -1.6752
  179SLPC  H13B20392   2.219   5.571  10.730 -1.8475  0.5653  0.4064
  179SLPC  H13C20393   2.316   5.550  10.591 -0.9907 -0.1707 -0.8173
  179SLPC   C1420394   2.011   5.682  10.601 -0.7846 -0.2469 -0.4154
  179SLPC  H14A20395   2.012   5.672  10.708  2.0780 -1.3114 -0.4518
  179SLPC  H14B20396   2.051   5.780  10.575 -2.7185  0.0749 -2.5051
  179SLPC  H14C20397   1.914   5.667  10.557 -0.6729 -0.9149 -0.4361
  179SLPC   C1520398   2.062   5.438  10.573  0.2221  0.9551  0.3518
  179SLPC  H15A20399   2.068   5.408  10.676  0.1889 -0.2465  0.0308
  179SLPC  H15B20400   1.970   5.411  10.523  0.4162 -0.5444  0.7597
  179SLPC  H15C20401   2.137   5.371  10.531  0.5896  2.3597 -1.3433
  179SLPC   C1220402   2.126   5.612  10.404 -0.2792 -0.1931  0.4316
  179SLPC  H12A20403   2.211   5.560  10.364 -2.0038 -0.3386 -3.4031
  179SLPC  H12B20404   2.165   5.712  10.387  0.4412 -0.2071  1.8297
  179SLPC   C1120405   2.003   5.588  10.305 -0.0213 -0.1033 -0.1964
  179SLPC  H11A20406   1.980   5.479  10.309  3.9882 -1.0427  1.7341
  179SLPC  H11B20407   2.039   5.613  10.203 -0.0886  1.0153  0.0403
  179SLPC     P20408   1.873   5.810  10.311 -0.1940  0.0580  0.5033
  179SLPC   O1320409   1.767   5.859  10.398 -0.2285 -0.4091 -1.2780
  179SLPC   O1420410   2.002   5.883  10.312  0.2692  0.4109 -0.4329
  179SLPC   O1220411   1.890   5.660  10.346 -0.0991 -0.6427  0.0449
  179SLPC   O1120412   1.818   5.808  10.166  0.0677 -0.7692  0.3793
  179SLPC    C120413   1.705   5.720  10.134  0.4565  0.5267  0.1092
  179SLPC    HA20414   1.722   5.612  10.150 -2.0073  0.0421 -0.1977
  179SLPC    HB20415   1.620   5.751  10.198  1.3802  0.4189  1.4351
  179SLPC    C220416   1.655   5.735   9.991 -0.2950 -0.0360  0.5786
  179SLPC    HS20417   1.548   5.705   9.986 -0.7600  1.6123 -0.1847
  179SLPC   O2120418   1.746   5.668   9.908  0.0700 -0.1700  0.0724
  179SLPC   C2120419   1.728   5.544   9.887 -0.2299  0.0920 -0.4975
  179SLPC   O2220420   1.651   5.466   9.946  0.1425 -0.7532  0.1724
  179SLPC   C2220421   1.831   5.499   9.781  0.0296  0.1223 -0.4862
  179SLPC   H2R20422   1.917   5.569   9.775  1.3379 -1.5004 -1.5270
  179SLPC   H2S20423   1.862   5.401   9.823 -1.2283 -0.1256 -0.1079
  179SLPC    C320424   1.662   5.886   9.960  0.1638 -0.0058  0.3447
  179SLPC    HX20425   1.756   5.934   9.993  0.5245  0.0106 -0.6690
  179SLPC    HY20426   1.586   5.948  10.013  1.8335  3.3517 -0.9059
  179SLPC   O3120427   1.637   5.928   9.820  0.1331 -0.0884  0.0325
  179SLPC   C3120428   1.747   5.937   9.745 -0.9100 -0.0956 -0.2360
  179SLPC   O3220429   1.859   5.898   9.780 -0.2221  0.2857 -0.3507
  179SLPC   C3220430   1.715   5.999   9.613 -0.3474  0.9156 -0.5917
  179SLPC   H2X20431   1.634   6.075   9.619  0.1604  1.3550  1.5046
  179SLPC   H2Y20432   1.682   5.915   9.547 -0.2725  1.1802 -0.9677
  179SLPC   C2320433   1.768   5.492   9.642 -0.0893  0.5743 -0.5979
  179SLPC   H3R20434   1.719   5.591   9.628 -2.1022 -0.0352  1.5514
  179SLPC   H3S20435   1.680   5.424   9.646  1.5441 -1.5661  1.3094
  179SLPC   C2420436   1.872   5.445   9.539 -0.7989 -0.1410 -0.5579
  179SLPC   H4R20437   1.928   5.368   9.597 -2.7453 -1.2839 -0.1383
  179SLPC   H4S20438   1.943   5.530   9.524 -1.0463  0.8213  2.7200
  179SLPC   C2520439   1.826   5.389   9.405 -0.3697 -0.9333 -0.7263
  179SLPC   H5R20440   1.772   5.292   9.420 -0.9786 -0.3278  1.2411
  179SLPC   H5S20441   1.923   5.385   9.352  0.3636  2.2071  0.1830
  179SLPC   C2620442   1.730   5.480   9.329  0.1837  0.2088 -0.6274
  179SLPC   H6R20443   1.645   5.503   9.397  0.2042  0.9621 -0.8545
  179SLPC   H6S20444   1.687   5.428   9.240  1.3557  1.1521 -1.7805
  179SLPC   C2720445   1.805   5.601   9.285  0.0257 -0.2898  0.0892
  179SLPC   H7R20446   1.897   5.568   9.232  0.2537  2.2390 -1.2444
  179SLPC   H7S20447   1.837   5.661   9.373 -0.3699  0.2549 -0.1302
  179SLPC   C2820448   1.714   5.690   9.197  0.0095  0.0109 -0.1118
  179SLPC   H8R20449   1.758   5.792   9.191 -1.6838  0.8233  0.4823
  179SLPC   H8S20450   1.613   5.692   9.244  0.9171 -0.1958  1.9964
  179SLPC   C2920451   1.685   5.637   9.061  0.4525 -0.0903  1.0037
  179SLPC   H9R20452   1.635   5.540   9.065 -3.5703  1.7509  0.5981
  179SLPC  C21020453   1.710   5.695   8.939 -0.0746 -0.4763  0.0261
  179SLPC  H10R20454   1.676   5.634   8.853  2.9437  0.0504 -1.6902
  179SLPC  C21120455   1.779   5.827   8.904 -0.5388 -0.0989  0.1479
  179SLPC  H11R20456   1.841   5.858   8.991  1.4475 -1.7046 -0.6062
  179SLPC  H11S20457   1.694   5.898   8.894  1.1673  2.1965  1.0747
  179SLPC  C21220458   1.853   5.819   8.767 -0.1244  0.5820 -0.8176
  179SLPC  H12R20459   1.952   5.773   8.778 -0.8704 -0.9493 -0.2545
  179SLPC  C21320460   1.804   5.839   8.643  0.0962 -0.7935 -0.1854
  179SLPC  H13R20461   1.866   5.830   8.553 -1.0900  2.0339 -1.4206
  179SLPC  C21420462   1.665   5.887   8.598 -0.6490  0.3361 -0.1759
  179SLPC  H14R20463   1.616   5.952   8.674 -0.7323 -2.1622  2.0440
  179SLPC  H14S20464   1.593   5.802   8.601  1.6225 -1.6784  2.0656
  179SLPC  C21520465   1.675   5.948   8.455 -0.0088  0.2376  0.3168
  179SLPC  H15R20466   1.723   5.870   8.391 -1.1862  0.5924 -1.0481
  179SLPC  H15S20467   1.743   6.035   8.462 -1.8961  1.7157  1.1081
  179SLPC  C21620468   1.549   5.992   8.395  0.1399 -0.2135 -0.0660
  179SLPC  H16R20469   1.507   6.068   8.464 -0.2321 -0.5508  0.0863
  179SLPC  H16S20470   1.470   5.914   8.392  1.2212 -1.3980  1.2122
  179SLPC  C21720471   1.554   6.045   8.249  0.0755 -0.2363 -0.6889
  179SLPC  H17R20472   1.449   6.032   8.217 -0.4527  2.3221 -0.1660
  179SLPC  H17S20473   1.610   5.983   8.176 -1.5264 -0.4851 -1.7318
  179SLPC  C21820474   1.596   6.194   8.249 -0.3173  0.3480  0.3860
  179SLPC  H18R20475   1.558   6.246   8.158 -2.1951  0.1996  1.0364
  179SLPC  H18S20476   1.706   6.205   8.250 -0.1764 -0.9760  0.5804
  179SLPC  H18T20477   1.549   6.244   8.336  2.0507  2.2204  0.6949
  179SLPC   C3320478   1.843   6.053   9.549  0.0690  0.6438  0.2245
  179SLPC   H3X20479   1.923   5.976   9.548 -1.5588 -1.1529  1.0302
  179SLPC   H3Y20480   1.880   6.143   9.602 -1.2727  0.4891  1.4937
  179SLPC   C3420481   1.816   6.081   9.400  0.4267  0.9141  0.5136
  179SLPC   H4X20482   1.720   6.137   9.388 -1.1802 -1.8997 -0.9223
  179SLPC   H4Y20483   1.798   5.986   9.347 -0.2633  0.9009  0.7513
  179SLPC   C3520484   1.926   6.158   9.334 -0.7131  0.7395  0.2800
  179SLPC   H5X20485   2.005   6.082   9.316  0.8050  2.6618 -1.6936
  179SLPC   H5Y20486   1.967   6.238   9.399  1.1670  0.1723 -0.1599
  179SLPC   C3620487   1.890   6.213   9.197  0.0371  0.2823 -0.2837
  179SLPC   H6X20488   1.798   6.275   9.207 -0.5066 -0.8263  2.3145
  179SLPC   H6Y20489   1.849   6.129   9.136 -1.4498 -0.6144  1.8395
  179SLPC   C3720490   1.994   6.287   9.113 -0.1852 -0.0997 -0.1074
  179SLPC   H7X20491   2.094   6.238   9.109  0.9434  2.1142 -1.1485
  179SLPC   H7Y20492   2.010   6.385   9.162  2.4210 -0.6479  0.2799
  179SLPC   C3820493   1.933   6.319   8.975 -0.2310 -0.1788  0.3651
  179SLPC   H8X20494   1.982   6.408   8.931  1.8534 -1.6269 -0.3958
  179SLPC   H8Y20495   1.829   6.354   8.992  0.9529  3.1259  1.4635
  179SLPC   C3920496   1.937   6.201   8.872 -0.4587 -0.1504  0.4069
  179SLPC   H9X20497   1.910   6.115   8.937  1.9398 -0.6234  0.8683
  179SLPC   H9Y20498   2.040   6.183   8.835  0.5393  1.6056  2.1477
  179SLPC  C31020499   1.832   6.214   8.769  0.1422  0.4022  0.2834
  179SLPC  H10X20500   1.734   6.202   8.821  0.4316  0.0877  0.7604
  179SLPC  H10Y20501   1.831   6.124   8.703 -0.4109  2.5590 -2.8690
  179SLPC  C31120502   1.831   6.344   8.690  0.4907 -0.0737 -0.1237
  179SLPC  H11X20503   1.932   6.381   8.662  0.6214 -2.5997 -3.6192
  179SLPC  H11Y20504   1.777   6.413   8.759 -0.2151  0.3246 -1.0571
  179SLPC  C31220505   1.754   6.345   8.555  0.0496 -0.0215 -0.1928
  179SLPC  H12X20506   1.658   6.292   8.571 -1.0008  2.4738  2.7280
  179SLPC  H12Y20507   1.817   6.300   8.475 -1.3505 -1.2963 -0.6323
  179SLPC  C31320508   1.715   6.489   8.523  0.8591  0.7796 -0.4984
  179SLPC  H13X20509   1.805   6.552   8.506  2.2886 -1.4754 -1.9890
  179SLPC  H13Y20510   1.654   6.536   8.602 -1.9354 -0.7389 -1.6157
  179SLPC  C31420511   1.618   6.500   8.401  0.3199 -0.2360  0.2206
  179SLPC  H14X20512   1.528   6.439   8.421 -1.4825  2.1271 -0.2548
  179SLPC  H14Y20513   1.681   6.471   8.314  2.1337 -1.7688  1.9252
  179SLPC  C31520514   1.563   6.642   8.377  0.4544 -0.2775  1.1153
  179SLPC  H15X20515   1.646   6.716   8.386  0.0676  0.0420  2.1299
  179SLPC  H15Y20516   1.487   6.673   8.451 -1.6812  0.3130 -1.1928
  179SLPC  C31620517   1.482   6.657   8.242  0.0205  0.1715  0.2189
  179SLPC  H16X20518   1.397   6.587   8.234  1.6643 -1.7266 -2.1805
  179SLPC  H16Y20519   1.548   6.631   8.157  0.8152 -0.5130  1.0276
  179SLPC  C31720520   1.438   6.804   8.212  0.0594 -0.1435  0.6735
  179SLPC  H17X20521   1.360   6.791   8.134 -0.8290  0.3091  1.4731
  179SLPC  H17Y20522   1.530   6.859   8.182 -0.6297  1.7475  1.8670
  179SLPC  C31820523   1.371   6.878   8.324  0.1899  0.5787 -0.2484
  179SLPC  H18X20524   1.274   6.830   8.349  0.2576  0.7975  0.4397
  179SLPC  H18Y20525   1.357   6.983   8.292 -0.4057  1.1787  1.8433
  179SLPC  H18Z20526   1.437   6.882   8.413  0.3634 -0.8006 -0.2894
  180SLPC     N20527   3.091   3.287  11.120 -0.0009 -0.4753  0.5983
  180SLPC   C1320528   3.176   3.347  11.230 -0.5069 -0.3581 -0.0780
  180SLPC  H13A20529   3.243   3.277  11.276 -1.0480 -0.7160  0.1683
  180SLPC  H13B20530   3.245   3.419  11.190  1.8422 -3.3556 -1.7923
  180SLPC  H13C20531   3.111   3.386  11.308 -3.1876 -3.3879 -0.5976
  180SLPC   C1420532   3.004   3.397  11.057 -0.9334 -0.0552 -0.6292
  180SLPC  H14A20533   2.979   3.471  11.131 -2.6399 -0.4774 -0.7364
  180SLPC  H14B20534   3.055   3.441  10.973 -1.1308  1.0602 -0.1785
  180SLPC  H14C20535   2.924   3.343  11.008  0.6509 -1.1115 -2.1836
  180SLPC   C1520536   2.992   3.193  11.182 -0.9289  0.0908  0.6259
  180SLPC  H15A20537   2.928   3.143  11.110  1.1290 -4.1525  1.4175
  180SLPC  H15B20538   3.031   3.118  11.249 -1.3140 -0.8146 -0.1306
  180SLPC  H15C20539   2.928   3.255  11.243  0.2851  2.0817 -0.0170
  180SLPC   C1220540   3.166   3.210  11.013 -0.2309  0.0012  0.2535
  180SLPC  H12A20541   3.206   3.118  11.053 -0.6946 -1.4559 -2.4219
  180SLPC  H12B20542   3.246   3.278  10.986  1.1186 -1.2882  0.8967
  180SLPC   C1120543   3.097   3.171  10.886  0.2925  0.3806  0.3208
  180SLPC  H11A20544   3.178   3.146  10.814  1.0988  1.0351  0.9663
  180SLPC  H11B20545   3.041   3.254  10.839  1.0220  2.7359  3.2443
  180SLPC     P20546   2.897   3.014  10.825  0.0355  0.2987 -0.1968
  180SLPC   O1320547   2.890   2.863  10.808 -0.2189 -0.2635  0.0731
  180SLPC   O1420548   2.774   3.087  10.859  0.1484  0.2915 -0.2664
  180SLPC   O1220549   3.017   3.053  10.917  0.1970 -0.2827  0.0429
  180SLPC   O1120550   2.948   3.067  10.683 -0.0761 -0.0333 -0.3002
  180SLPC    C120551   2.863   3.126  10.585  0.3956 -0.4321  0.2059
  180SLPC    HA20552   2.790   3.181  10.648 -0.6090 -0.1807 -1.1563
  180SLPC    HB20553   2.929   3.197  10.531 -0.1237 -1.1015 -1.3499
  180SLPC    C220554   2.794   3.021  10.490  0.5577 -0.0661 -0.3610
  180SLPC    HS20555   2.722   2.962  10.551  2.0157 -1.0328  0.4931
  180SLPC   O2120556   2.907   2.944  10.435 -0.3084  0.3446  0.1026
  180SLPC   C2120557   2.884   2.816  10.421 -0.6071  0.1852  0.5336
  180SLPC   O2220558   2.775   2.766  10.425 -0.9604  0.3570 -0.1813
  180SLPC   C2220559   3.015   2.738  10.401  1.1329  0.3099 -0.1097
  180SLPC   H2R20560   3.083   2.764  10.485 -0.9519 -0.8925  2.0871
  180SLPC   H2S20561   2.998   2.628  10.396 -0.3225  0.5621 -4.1160
  180SLPC    C320562   2.716   3.083  10.369 -0.4764  1.0609 -0.2955
  180SLPC    HX20563   2.793   3.157  10.339  1.6820 -0.3944  1.3349
  180SLPC    HY20564   2.627   3.145  10.395 -0.7551  0.0092  1.4609
  180SLPC   O3120565   2.694   2.992  10.264  0.2246  0.0851  0.9264
  180SLPC   C3120566   2.571   2.930  10.266 -0.8233 -0.6289 -0.0488
  180SLPC   O3220567   2.492   2.943  10.354  0.2537  0.2477 -0.1773
  180SLPC   C3220568   2.566   2.851  10.139  0.1761 -0.0523 -0.5460
  180SLPC   H2X20569   2.628   2.762  10.158  0.4964  0.5184  1.2877
  180SLPC   H2Y20570   2.613   2.900  10.051 -0.1052 -2.3884 -2.0892
  180SLPC   C2320571   3.077   2.776  10.265  0.4176  0.1985  0.6997
  180SLPC   H3R20572   3.174   2.722  10.265 -0.0161 -0.6040  0.0605
  180SLPC   H3S20573   3.090   2.886  10.256  0.9710  0.1270  0.6169
  180SLPC   C2420574   2.998   2.719  10.147  0.2692 -0.1990  0.1591
  180SLPC   H4R20575   2.897   2.759  10.173  0.7103 -0.9582  3.4140
  180SLPC   H4S20576   3.014   2.609  10.151  0.4319 -0.1455  0.9728
  180SLPC   C2520577   3.039   2.771  10.004  0.0933  0.1663  0.8375
  180SLPC   H5R20578   3.144   2.747   9.976 -0.9456 -2.0915 -1.4686
  180SLPC   H5S20579   3.033   2.882  10.010 -3.3892  0.1763 -0.7269
  180SLPC   C2620580   2.946   2.741   9.889 -0.4294  0.4315  0.7544
  180SLPC   H6R20581   2.847   2.788   9.904 -1.4874 -1.4923  0.1727
  180SLPC   H6S20582   2.925   2.632   9.892 -1.0394  0.5340  0.4277
  180SLPC   C2720583   3.004   2.787   9.756  0.7797  0.1879  0.2222
  180SLPC   H7R20584   3.111   2.761   9.741  0.8253  0.5297 -0.0384
  180SLPC   H7S20585   2.996   2.897   9.759 -2.1325  0.0704 -0.5451
  180SLPC   C2820586   2.919   2.748   9.640 -0.2690  0.0994  0.5631
  180SLPC   H8R20587   2.815   2.787   9.648 -0.5603  0.1342 -2.3311
  180SLPC   H8S20588   2.906   2.639   9.657 -0.6354  0.2952  1.6651
  180SLPC   C2920589   2.958   2.779   9.497 -0.0795 -0.1000  0.5320
  180SLPC   H9R20590   2.998   2.703   9.429  1.9554  2.0637 -0.8384
  180SLPC  C21020591   2.907   2.883   9.430  0.0746  0.2605 -0.0104
  180SLPC  H10R20592   2.953   2.900   9.332  1.9425  0.5352  0.8672
  180SLPC  C21120593   2.813   2.992   9.478  0.5792  1.0815  0.0698
  180SLPC  H11R20594   2.856   3.094   9.473  0.9171  1.1003  2.2526
  180SLPC  H11S20595   2.798   2.970   9.586  0.9954  0.7956  0.0727
  180SLPC  C21220596   2.684   2.978   9.402  1.2468 -0.2106 -0.5582
  180SLPC  H12R20597   2.689   2.981   9.292 -2.5346 -3.2662 -1.0185
  180SLPC  C21320598   2.564   2.980   9.464 -0.5210 -0.6816 -0.0043
  180SLPC  H13R20599   2.473   2.979   9.402 -0.8196  0.3781  0.3892
  180SLPC  C21420600   2.534   2.995   9.618 -0.0626 -0.2353 -0.0271
  180SLPC  H14R20601   2.585   2.916   9.677  0.2542  0.1810  0.2692
  180SLPC  H14S20602   2.426   2.978   9.634  0.0810  0.8200  2.6094
  180SLPC  C21520603   2.564   3.134   9.674 -0.2053  0.3200 -0.1571
  180SLPC  H15R20604   2.511   3.223   9.634 -0.8895 -0.2023 -0.4399
  180SLPC  H15S20605   2.671   3.158   9.655 -0.2551  0.6576 -0.0130
  180SLPC  C21620606   2.545   3.134   9.828 -0.9066  0.3566 -0.4682
  180SLPC  H16R20607   2.613   3.053   9.863 -0.9690  0.4618 -0.0907
  180SLPC  H16S20608   2.441   3.102   9.850 -0.8746 -0.2975 -1.2476
  180SLPC  C21720609   2.574   3.266   9.886 -0.3352  0.7024 -0.0983
  180SLPC  H17R20610   2.510   3.349   9.848  2.0409  3.2152  1.0070
  180SLPC  H17S20611   2.679   3.289   9.855  0.9309  0.8827  3.7708
  180SLPC  C21820612   2.581   3.255  10.038 -0.5632  0.3542  0.0705
  180SLPC  H18R20613   2.609   3.352  10.084  2.6539 -0.4348  0.0328
  180SLPC  H18S20614   2.653   3.179  10.077 -1.9150 -0.8696  0.2899
  180SLPC  H18T20615   2.483   3.225  10.081 -1.5178  0.3530 -1.9644
  180SLPC   C3320616   2.425   2.808  10.093  0.0480 -0.1699  0.4063
  180SLPC   H3X20617   2.373   2.898  10.055 -1.2228 -0.8762  0.4123
  180SLPC   H3Y20618   2.372   2.775  10.185  1.1002 -0.5413  0.8968
  180SLPC   C3420619   2.421   2.692   9.997 -0.2681  0.1062 -1.0028
  180SLPC   H4X20620   2.321   2.648   9.981 -0.8356  1.1932 -0.5926
  180SLPC   H4Y20621   2.492   2.625  10.050 -1.8307 -0.1177  0.9328
  180SLPC   C3520622   2.459   2.727   9.855  0.1395  1.0836 -0.6317
  180SLPC   H5X20623   2.564   2.764   9.866  0.0626  0.9637  0.7108
  180SLPC   H5Y20624   2.393   2.812   9.829 -0.9536  0.5503  0.3180
  180SLPC   C3620625   2.450   2.605   9.756  0.1799  0.3461 -0.3314
  180SLPC   H6X20626   2.351   2.558   9.776  0.0653  1.4522  2.1014
  180SLPC   H6Y20627   2.529   2.533   9.785 -1.7275 -2.2908 -1.3259
  180SLPC   C3720628   2.483   2.662   9.616  0.0870  0.9379 -0.3161
  180SLPC   H7X20629   2.584   2.708   9.615  0.6154 -0.2083 -1.5082
  180SLPC   H7Y20630   2.416   2.750   9.599  1.1303  2.0130  0.9265
  180SLPC   C3820631   2.476   2.551   9.506 -0.2169 -0.4547 -0.4777
  180SLPC   H8X20632   2.368   2.540   9.485 -0.6335  0.2987  1.0704
  180SLPC   H8Y20633   2.517   2.459   9.553 -0.6592 -1.0206 -1.1838
  180SLPC   C3920634   2.553   2.590   9.389 -0.3547 -0.6110  0.3221
  180SLPC   H9X20635   2.661   2.605   9.413 -0.6664  1.5260  0.5373
  180SLPC   H9Y20636   2.512   2.685   9.351 -0.8103 -1.2301 -0.7668
  180SLPC  C31020637   2.542   2.490   9.274 -0.3437  0.6136 -0.4616
  180SLPC  H10X20638   2.462   2.529   9.207  0.7118  1.6530 -1.1549
  180SLPC  H10Y20639   2.500   2.395   9.315 -0.4616  0.7677 -0.2164
  180SLPC  C31120640   2.670   2.471   9.192  0.3591  0.2048  0.2239
  180SLPC  H11X20641   2.739   2.409   9.253 -2.1189 -1.5116  1.4383
  180SLPC  H11Y20642   2.721   2.568   9.170  1.7710 -0.0483  2.1425
  180SLPC  C31220643   2.664   2.400   9.056 -0.4192 -0.2570  0.3367
  180SLPC  H12X20644   2.605   2.463   8.986 -1.6104 -0.9262  0.7246
  180SLPC  H12Y20645   2.609   2.304   9.066  1.3694 -1.3760 -0.0868
  180SLPC  C31320646   2.801   2.369   8.995  0.1480 -0.6403 -0.5791
  180SLPC  H13X20647   2.859   2.322   9.077  1.0825 -0.8958 -1.3661
  180SLPC  H13Y20648   2.859   2.459   8.967  1.4350 -0.3845  2.5636
  180SLPC  C31420649   2.777   2.276   8.878 -0.2576  0.0995 -0.4165
  180SLPC  H14X20650   2.715   2.328   8.801 -2.4681 -1.2150  0.3715
  180SLPC  H14Y20651   2.707   2.196   8.911 -0.7403  0.6694 -0.0210
  180SLPC  C31520652   2.901   2.221   8.805 -0.3642 -0.5272  0.9492
  180SLPC  H15X20653   2.929   2.298   8.730 -2.8759  0.2412  0.7357
  180SLPC  H15Y20654   2.867   2.133   8.748 -0.7783 -0.0616  0.4714
  180SLPC  C31620655   3.028   2.194   8.897  0.2879  0.6012  0.2865
  180SLPC  H16X20656   3.044   2.282   8.962 -2.0440 -0.5147  2.5468
  180SLPC  H16Y20657   3.118   2.164   8.839  0.7626  1.1333  0.7363
  180SLPC  C31720658   3.007   2.064   8.981  0.0869 -0.5196 -0.2508
  180SLPC  H17X20659   2.971   1.979   8.920 -2.2826  0.4629 -0.3305
  180SLPC  H17Y20660   2.928   2.099   9.051  1.0145  0.7497  0.2012
  180SLPC  C31820661   3.137   2.021   9.047 -0.3913 -1.0112 -0.6989
  180SLPC  H18X20662   3.119   1.946   9.127 -0.7249 -2.0401 -1.7205
  180SLPC  H18Y20663   3.179   2.100   9.112  0.2817 -1.7725 -0.1988
  180SLPC  H18Z20664   3.207   1.970   8.978  0.9745 -3.4241  2.2599
  181SLPC     N20665   4.709   0.946  11.270 -0.2924 -0.4293 -0.4260
  181SLPC   C1320666   4.650   0.862  11.374 -0.1611  0.1673 -0.5291
  181SLPC  H13A20667   4.569   0.914  11.422  0.2547  0.2356  0.1125
  181SLPC  H13B20668   4.624   0.763  11.339  0.5898  0.0679 -0.8347
  181SLPC  H13C20669   4.730   0.844  11.445  1.3963  1.1124 -1.9769
  181SLPC   C1420670   4.626   0.924  11.148  0.1045  0.2913  0.1309
  181SLPC  H14A20671   4.664   0.993  11.074 -1.2737  0.9617  0.0015
  181SLPC  H14B20672   4.628   0.823  11.111  0.4992 -0.5915  2.4406
  181SLPC  H14C20673   4.525   0.963  11.159  0.1542  0.6641 -0.6379
  181SLPC   C1520674   4.848   0.900  11.233 -0.3713  0.5933 -0.4286
  181SLPC  H15A20675   4.854   0.876  11.128  2.0307 -1.1399  0.0413
  181SLPC  H15B20676   4.918   0.981  11.247 -0.8566  1.3161 -1.8455
  181SLPC  H15C20677   4.892   0.815  11.281 -0.4913 -0.4842 -2.1497
  181SLPC   C1220678   4.710   1.092  11.313  0.2629  0.6246 -0.4453
  181SLPC  H12A20679   4.757   1.097  11.410  0.3863  3.3699 -0.5653
  181SLPC  H12B20680   4.611   1.126  11.338 -0.1729  1.1671 -2.6920
  181SLPC   C1120681   4.758   1.188  11.201  0.1315  0.0277 -0.7110
  181SLPC  H11A20682   4.855   1.144  11.168  0.3773 -0.4481  0.5623
  181SLPC  H11B20683   4.762   1.290  11.245  1.2370  0.4231 -1.6835
  181SLPC     P20684   4.692   1.284  10.973 -0.1522  0.0590 -0.1550
  181SLPC   O1320685   4.584   1.268  10.874 -0.3582  0.0531  0.0905
  181SLPC   O1420686   4.708   1.419  11.026 -0.3769 -0.3887 -0.1347
  181SLPC   O1220687   4.664   1.190  11.096  0.6603 -0.1586  0.2518
  181SLPC   O1120688   4.829   1.238  10.923 -0.3604  0.2409  0.4195
  181SLPC    C120689   4.856   1.105  10.886 -0.3417 -0.0510  0.2780
  181SLPC    HA20690   4.921   1.054  10.960 -0.3783 -0.4958  0.0113
  181SLPC    HB20691   4.767   1.042  10.863 -0.2767  0.2970 -1.0582
  181SLPC    C220692   4.934   1.104  10.746  0.9582 -0.8969  0.2333
  181SLPC    HS20693   5.014   1.181  10.751  0.9600 -0.8004 -0.9700
  181SLPC   O2120694   4.838   1.123  10.645  0.5621  0.3614  0.0362
  181SLPC   C2120695   4.826   1.241  10.594  0.0071  0.2480 -0.2591
  181SLPC   O2220696   4.882   1.345  10.623 -0.3569 -0.4656 -0.5686
  181SLPC   C2220697   4.715   1.236  10.478 -0.0400  0.2636  0.3404
  181SLPC   H2R20698   4.707   1.336  10.432  1.3154 -0.1839 -0.9373
  181SLPC   H2S20699   4.767   1.171  10.404  0.5974  1.8374 -0.6388
  181SLPC    C320700   4.989   0.961  10.711 -0.8781 -0.1420 -0.0634
  181SLPC    HX20701   4.907   0.886  10.707  0.5531 -1.9547  2.0439
  181SLPC    HY20702   5.046   0.933  10.802 -1.6650 -0.2744  0.3990
  181SLPC   O3120703   5.069   0.962  10.591 -0.0959 -0.0738 -0.4370
  181SLPC   C3120704   5.058   0.867  10.501 -0.2877 -0.8414 -0.0265
  181SLPC   O3220705   4.978   0.777  10.505  0.1917 -0.4796 -0.7396
  181SLPC   C3220706   5.162   0.876  10.393 -0.2061 -0.0812 -0.2075
  181SLPC   H2X20707   5.174   0.775  10.349 -1.6441  0.7312 -2.6325
  181SLPC   H2Y20708   5.255   0.920  10.434  0.8929  1.7306 -4.1541
  181SLPC   C2320709   4.578   1.179  10.523  0.3088  0.2410 -0.5059
  181SLPC   H3R20710   4.524   1.254  10.586  0.2261 -0.2326 -0.0085
  181SLPC   H3S20711   4.601   1.088  10.582 -0.1425  1.2469  1.3192
  181SLPC   C2420712   4.479   1.153  10.407  0.6329  0.0483  0.0509
  181SLPC   H4R20713   4.511   1.057  10.360 -1.4453 -1.1903  1.0392
  181SLPC   H4S20714   4.490   1.236  10.334  0.8542  0.1836  0.2384
  181SLPC   C2520715   4.337   1.131  10.457  0.2359 -0.1155 -0.3058
  181SLPC   H5R20716   4.315   1.208  10.534  1.5720  1.1195 -1.1183
  181SLPC   H5S20717   4.334   1.037  10.516 -0.0766 -0.9706 -1.6469
  181SLPC   C2620718   4.244   1.139  10.343 -0.1158  0.0837  0.1732
  181SLPC   H6R20719   4.285   1.210  10.268  1.1245  1.3012  1.9363
  181SLPC   H6S20720   4.143   1.174  10.374  0.7446  0.3273  2.9327
  181SLPC   C2720721   4.224   1.001  10.275  0.1541  0.1380  0.4375
  181SLPC   H7R20722   4.216   0.925  10.357  0.3960  0.4599  0.7624
  181SLPC   H7S20723   4.321   0.986  10.222  0.3827  0.6488  0.7093
  181SLPC   C2820724   4.117   0.981  10.169  0.4159  0.2022  0.5843
  181SLPC   H8R20725   4.014   0.979  10.211  1.0194  2.5461  2.3755
  181SLPC   H8S20726   4.139   0.881  10.127  1.3814  1.3965 -1.9425
  181SLPC   C2920727   4.131   1.083  10.054 -0.3995 -0.6442  0.2898
  181SLPC   H9R20728   4.090   1.184  10.073  0.2327 -0.2334 -0.4698
  181SLPC  C21020729   4.190   1.072   9.933 -0.7410 -0.4432  0.0950
  181SLPC  H10R20730   4.197   1.147   9.853 -1.0646 -2.8167 -2.3225
  181SLPC  C21120731   4.260   0.951   9.892  0.0222  0.4133 -0.0265
  181SLPC  H11R20732   4.320   0.919   9.980  0.9287 -1.2412 -1.1803
  181SLPC  H11S20733   4.340   0.971   9.818 -0.7317  1.2176 -0.6489
  181SLPC  C21220734   4.171   0.833   9.857  0.4106  0.0110  0.8596
  181SLPC  H12R20735   4.114   0.791   9.941 -0.5725  1.0212  0.7271
  181SLPC  C21320736   4.166   0.780   9.731 -0.0294 -0.1455 -0.2513
  181SLPC  H13R20737   4.098   0.695   9.717  1.5979 -1.6319  0.5534
  181SLPC  C21420738   4.233   0.829   9.605  0.1405  0.0678  0.5854
  181SLPC  H14R20739   4.316   0.901   9.624 -1.6032  2.0181  1.1223
  181SLPC  H14S20740   4.169   0.884   9.533  0.4515 -1.8432 -1.2570
  181SLPC  C21520741   4.293   0.712   9.524 -0.0731  0.1847 -0.0143
  181SLPC  H15R20742   4.210   0.643   9.499  0.3102 -0.4486  0.4305
  181SLPC  H15S20743   4.379   0.664   9.574  0.6748  0.0185 -1.4127
  181SLPC  C21620744   4.348   0.759   9.386  0.2049  0.7210 -0.2077
  181SLPC  H16R20745   4.433   0.824   9.414 -0.0887  0.5851  1.0406
  181SLPC  H16S20746   4.271   0.813   9.326 -0.0956  0.8443  0.2795
  181SLPC  C21720747   4.394   0.636   9.303  0.4386  0.3148 -0.9841
  181SLPC  H17R20748   4.309   0.565   9.290  0.4440  0.5432 -2.3632
  181SLPC  H17S20749   4.467   0.572   9.357 -1.1678  0.6856  1.8215
  181SLPC  C21820750   4.454   0.675   9.172  0.0261 -0.1171  0.6747
  181SLPC  H18R20751   4.565   0.685   9.171  0.1058 -0.9570 -0.4056
  181SLPC  H18S20752   4.402   0.766   9.135 -1.5872 -1.8012 -1.4247
  181SLPC  H18T20753   4.433   0.593   9.100  0.9193  0.1166  0.1396
  181SLPC   C3320754   5.117   0.970  10.282  1.1309 -1.1535  0.6369
  181SLPC   H3X20755   5.014   0.938  10.256  1.0267 -0.7008  0.4756
  181SLPC   H3Y20756   5.176   0.959  10.188 -0.2785  1.4048 -0.6509
  181SLPC   C3420757   5.129   1.122  10.319  0.1644  0.3429 -0.2466
  181SLPC   H4X20758   5.237   1.149  10.326  0.3775 -0.0353 -1.6691
  181SLPC   H4Y20759   5.085   1.147  10.417  1.3394  0.1051  0.3587
  181SLPC   C3520760   5.063   1.211  10.217  0.5660  0.2069  0.3206
  181SLPC   H5X20761   4.959   1.172  10.216  0.9838 -1.0212  1.4700
  181SLPC   H5Y20762   5.104   1.187  10.117  1.4893 -2.2620  1.1937
  181SLPC   C3620763   5.069   1.361  10.237 -0.4998 -0.3381  0.0240
  181SLPC   H6X20764   5.035   1.378  10.342  0.7394  1.7331  0.1644
  181SLPC   H6Y20765   5.005   1.411  10.162  0.6632 -0.4285 -1.0665
  181SLPC   C3720766   5.213   1.409  10.210 -0.2005  0.0179 -0.2006
  181SLPC   H7X20767   5.288   1.332  10.240  0.3523  0.9217  0.7794
  181SLPC   H7Y20768   5.238   1.502  10.264  0.3808 -0.7687  0.9246
  181SLPC   C3820769   5.230   1.437  10.062  0.2406  0.6287  0.0086
  181SLPC   H8X20770   5.155   1.510  10.025  0.0203 -0.2392 -1.3424
  181SLPC   H8Y20771   5.216   1.337  10.017  1.8795 -2.0859  4.7346
  181SLPC   C3920772   5.377   1.471  10.029  0.1581  0.2500  1.0653
  181SLPC   H9X20773   5.451   1.405  10.079  1.4522  0.9734  0.1804
  181SLPC   H9Y20774   5.403   1.575  10.060  0.4841 -0.0658  1.8544
  181SLPC  C31020775   5.407   1.476   9.875  0.6202 -0.7101  0.5796
  181SLPC  H10X20776   5.513   1.504   9.858  0.4077  0.7935  1.5176
  181SLPC  H10Y20777   5.336   1.549   9.830  1.5750  0.5137  1.0029
  181SLPC  C31120778   5.385   1.346   9.798  0.1399 -0.0278  0.4217
  181SLPC  H11X20779   5.282   1.306   9.807  0.6548 -1.1427  1.8365
  181SLPC  H11Y20780   5.451   1.272   9.849 -1.3657 -1.9506 -0.2651
  181SLPC  C31220781   5.406   1.343   9.650 -0.2484  0.4045  0.4546
  181SLPC  H12X20782   5.361   1.424   9.588  0.3755  1.3693  1.2325
  181SLPC  H12Y20783   5.355   1.251   9.615  0.6750  0.6896 -1.8186
  181SLPC  C31320784   5.557   1.316   9.610  0.0982  0.2689 -0.0153
  181SLPC  H13X20785   5.560   1.245   9.525  1.3840 -1.0392  1.0886
  181SLPC  H13Y20786   5.594   1.263   9.699 -2.2073 -1.3213  0.1034
  181SLPC  C31420787   5.641   1.442   9.581 -0.0307  0.4147  1.0546
  181SLPC  H14X20788   5.646   1.500   9.676  0.2016  0.7221  0.8582
  181SLPC  H14Y20789   5.590   1.497   9.498  2.7966  0.7446 -0.5761
  181SLPC  C31520790   5.787   1.406   9.544  0.5282  0.2057 -0.1232
  181SLPC  H15X20791   5.827   1.340   9.624 -0.5379 -1.8085 -1.1630
  181SLPC  H15Y20792   5.842   1.502   9.550 -0.4621  0.8487 -0.9957
  181SLPC  C31620793   5.787   1.331   9.412  0.2186  0.1319 -0.3778
  181SLPC  H16X20794   5.743   1.399   9.336 -0.6886 -1.3548 -1.2030
  181SLPC  H16Y20795   5.723   1.242   9.400 -1.6289  1.5062 -1.0722
  181SLPC  C31720796   5.931   1.294   9.371  0.1973  0.6489 -0.2365
  181SLPC  H17X20797   5.958   1.213   9.442 -3.1978 -1.2950 -0.9161
  181SLPC  H17Y20798   5.992   1.378   9.408 -0.3412  0.8074  0.3284
  181SLPC  C31820799   5.953   1.285   9.220  0.3195  0.2007  1.1291
  181SLPC  H18X20800   5.897   1.198   9.179  0.2687  0.7773 -0.0817
  181SLPC  H18Y20801   6.060   1.292   9.190 -0.0236  1.7827  0.1881
  181SLPC  H18Z20802   5.910   1.381   9.184 -0.5346 -0.1639  1.1642
  182SLPC     N20803   3.660   0.995  10.853 -0.3360  0.1981 -0.2214
  182SLPC   C1320804   3.731   1.102  10.934 -0.1767  0.3798  0.1398
  182SLPC  H13A20805   3.683   1.127  11.028  0.5223  0.2143  0.5414
  182SLPC  H13B20806   3.832   1.070  10.953  0.1567  1.2854 -0.0590
  182SLPC  H13C20807   3.731   1.192  10.874  0.2967 -0.5172 -1.2580
  182SLPC   C1420808   3.641   0.877  10.938 -0.2339 -0.0987  0.3434
  182SLPC  H14A20809   3.584   0.804  10.883  2.1211 -1.5124 -0.3730
  182SLPC  H14B20810   3.736   0.836  10.969 -0.5613 -0.3649  1.0098
  182SLPC  H14C20811   3.587   0.896  11.029 -0.0717  0.0202  0.4167
  182SLPC   C1520812   3.751   0.960  10.740  0.7212  0.4917  0.0128
  182SLPC  H15A20813   3.775   1.055  10.693  0.1686  0.6086 -0.0347
  182SLPC  H15B20814   3.836   0.906  10.777 -0.3649 -1.9220 -0.8456
  182SLPC  H15C20815   3.711   0.896  10.663  1.7109 -2.0355  1.4754
  182SLPC   C1220816   3.518   1.038  10.814 -0.0581 -0.9990  0.0989
  182SLPC  H12A20817   3.521   1.135  10.769 -1.3967 -0.2572  1.5141
  182SLPC  H12B20818   3.451   1.043  10.899 -1.1213 -0.2164 -0.7545
  182SLPC   C1120819   3.445   0.945  10.708  0.5659  0.0419 -0.2695
  182SLPC  H11A20820   3.510   0.956  10.619  0.6280  1.5723 -0.0683
  182SLPC  H11B20821   3.350   0.995  10.680  1.0897  0.2133 -1.8393
  182SLPC     P20822   3.292   0.729  10.736 -0.0442 -0.2864  0.0891
  182SLPC   O1320823   3.312   0.584  10.711  0.1029  0.3562 -0.4444
  182SLPC   O1420824   3.214   0.780  10.857 -0.2584  0.4311 -0.4387
  182SLPC   O1220825   3.432   0.800  10.736 -0.3000  0.4024 -0.3580
  182SLPC   O1120826   3.239   0.785  10.601  0.7675  0.2842 -0.2432
  182SLPC    C120827   3.107   0.743  10.559 -0.7521 -0.4779 -0.6651
  182SLPC    HA20828   3.029   0.776  10.631 -1.2798 -1.0797 -0.9543
  182SLPC    HB20829   3.085   0.800  10.466 -0.4037 -1.8993 -1.6541
  182SLPC    C220830   3.097   0.599  10.502  0.3586  0.3866 -0.0517
  182SLPC    HS20831   3.114   0.515  10.573 -0.0926 -1.4242 -2.0002
  182SLPC   O2120832   3.194   0.602  10.396 -0.6200 -0.7278  0.1844
  182SLPC   C2120833   3.224   0.486  10.346 -0.0080  0.4488 -0.0259
  182SLPC   O2220834   3.183   0.379  10.389  0.1704  0.5464 -0.4139
  182SLPC   C2220835   3.325   0.513  10.235 -0.5822 -0.1022  0.2271
  182SLPC   H2R20836   3.399   0.587  10.270 -2.3257  1.4969  0.7285
  182SLPC   H2S20837   3.383   0.423  10.206 -0.8632 -0.1116 -0.3222
  182SLPC    C320838   2.951   0.566  10.448  0.3820  0.3941 -0.2335
  182SLPC    HX20839   2.886   0.551  10.537  0.6660  0.5285  0.0007
  182SLPC    HY20840   2.944   0.465  10.403 -1.0691  0.5724 -0.4576
  182SLPC   O3120841   2.901   0.662  10.366  0.2568  0.4425  0.1712
  182SLPC   C3120842   2.907   0.637  10.240 -0.3131  0.4683  1.0468
  182SLPC   O3220843   2.937   0.535  10.184  0.0770 -0.4258 -0.1127
  182SLPC   C3220844   2.844   0.754  10.163  0.2895  0.3026  0.3271
  182SLPC   H2X20845   2.906   0.846  10.158 -1.5179  1.5378 -0.3203
  182SLPC   H2Y20846   2.753   0.783  10.219 -1.2718 -1.0395 -1.3730
  182SLPC   C2320847   3.256   0.557  10.104 -0.2490  0.5852  0.9309
  182SLPC   H3R20848   3.308   0.639  10.050  1.5043 -0.4367  1.0118
  182SLPC   H3S20849   3.154   0.597  10.123 -1.0799 -0.5651 -0.7844
  182SLPC   C2420850   3.222   0.433  10.012 -0.2357 -0.1792  0.0377
  182SLPC   H4R20851   3.178   0.352  10.075  0.1217  1.0849  1.9922
  182SLPC   H4S20852   3.312   0.387   9.965 -1.4510 -1.0929 -1.4913
  182SLPC   C2520853   3.133   0.462   9.893 -0.0141 -0.1729  0.0939
  182SLPC   H5R20854   3.054   0.535   9.924  0.6878  1.2810 -1.4078
  182SLPC   H5S20855   3.079   0.367   9.873 -1.3965 -0.1140  2.9530
  182SLPC   C2620856   3.194   0.522   9.762  0.3764 -0.4900  0.4289
  182SLPC   H6R20857   3.273   0.452   9.728 -0.1373 -0.6918 -0.3707
  182SLPC   H6S20858   3.234   0.618   9.801  0.2302 -0.5093  0.6307
  182SLPC   C2720859   3.091   0.527   9.649  0.4428  0.6641  0.0239
  182SLPC   H7R20860   3.012   0.593   9.691  0.2119 -0.0700  0.7761
  182SLPC   H7S20861   3.039   0.429   9.641 -1.6823  1.4238  2.8418
  182SLPC   C2820862   3.143   0.598   9.521  0.4207 -0.0240 -0.0650
  182SLPC   H8R20863   3.221   0.665   9.564 -0.6919  1.7054 -0.6459
  182SLPC   H8S20864   3.063   0.652   9.465  0.2741 -2.0647 -1.9614
  182SLPC   C2920865   3.227   0.506   9.437 -0.4092 -0.6360  0.5523
  182SLPC   H9R20866   3.268   0.423   9.496  2.1152  1.0196  1.3211
  182SLPC  C21020867   3.238   0.504   9.303  0.1135 -0.7841  0.2017
  182SLPC  H10R20868   3.315   0.435   9.265 -0.5291 -1.5432  0.2523
  182SLPC  C21120869   3.185   0.587   9.194  0.1944  0.2111  0.0369
  182SLPC  H11R20870   3.122   0.668   9.236 -0.7174 -0.8626  0.8108
  182SLPC  H11S20871   3.111   0.524   9.141 -0.2251 -2.2680  3.2267
  182SLPC  C21220872   3.288   0.643   9.099 -0.5894 -0.0076  0.1751
  182SLPC  H12R20873   3.308   0.751   9.106  0.8159 -0.3385  2.1499
  182SLPC  C21320874   3.363   0.567   9.021  0.4165 -0.4723 -0.1937
  182SLPC  H13R20875   3.437   0.621   8.960 -0.4114  0.1388 -0.6754
  182SLPC  C21420876   3.364   0.422   9.003  0.4518 -0.7269  0.5004
  182SLPC  H14R20877   3.262   0.381   8.987  1.0274 -1.5743 -1.1962
  182SLPC  H14S20878   3.411   0.370   9.089  1.2179 -0.0969  0.4632
  182SLPC  C21520879   3.421   0.370   8.869 -0.9756 -1.2398 -1.0529
  182SLPC  H15R20880   3.374   0.430   8.788  1.1817 -0.8721 -2.1019
  182SLPC  H15S20881   3.391   0.264   8.859 -0.8881 -1.6575  2.0816
  182SLPC  C21620882   3.573   0.366   8.860 -0.1134 -0.4694  0.1809
  182SLPC  H16R20883   3.608   0.296   8.938 -1.5721 -1.3637  0.0662
  182SLPC  H16S20884   3.595   0.469   8.896 -2.3729  0.2045 -0.1842
  182SLPC  C21720885   3.608   0.344   8.715  0.2370  0.1786 -0.4038
  182SLPC  H17R20886   3.561   0.432   8.665  0.7693  1.1925  0.8225
  182SLPC  H17S20887   3.565   0.254   8.666  0.1338  0.3454 -0.6247
  182SLPC  C21820888   3.758   0.351   8.686 -0.7394  0.0728 -0.0195
  182SLPC  H18R20889   3.761   0.307   8.584 -1.1171 -0.5569  0.2308
  182SLPC  H18S20890   3.818   0.291   8.758  0.1936  0.4077 -0.5080
  182SLPC  H18T20891   3.804   0.452   8.692  0.7963 -0.6708  2.3030
  182SLPC   C3320892   2.813   0.725  10.016  0.2506  0.3784 -0.1003
  182SLPC   H3X20893   2.745   0.637  10.005 -2.3065  1.9390  2.1013
  182SLPC   H3Y20894   2.911   0.695   9.971 -0.2042  1.4941 -1.9703
  182SLPC   C3420895   2.764   0.847   9.933  0.3021  0.1382 -1.0989
  182SLPC   H4X20896   2.840   0.928   9.930  1.5276 -1.0137 -1.8651
  182SLPC   H4Y20897   2.684   0.888   9.999  0.3493 -0.9205 -0.3532
  182SLPC   C3520898   2.713   0.825   9.786  0.2880 -0.4451 -0.4023
  182SLPC   H5X20899   2.620   0.766   9.805  0.0623 -0.2723 -0.9565
  182SLPC   H5Y20900   2.770   0.748   9.730 -0.9108 -1.6433 -0.0211
  182SLPC   C3620901   2.678   0.957   9.707 -0.0676  0.5254  0.2613
  182SLPC   H6X20902   2.768   1.023   9.707 -0.2348  0.8346  2.4373
  182SLPC   H6Y20903   2.601   1.021   9.756  1.2686  0.1496  3.0489
  182SLPC   C3720904   2.632   0.914   9.572 -0.5931 -0.3011  0.5749
  182SLPC   H7X20905   2.524   0.887   9.574 -0.4489 -0.8532  1.7545
  182SLPC   H7Y20906   2.684   0.828   9.524 -0.0517 -0.4586  1.4049
  182SLPC   C3820907   2.650   1.037   9.472  0.5319 -0.2400  0.0809
  182SLPC   H8X20908   2.759   1.049   9.451  0.4095 -0.7013 -0.8519
  182SLPC   H8Y20909   2.602   1.119   9.530  0.4642 -2.8161  4.0651
  182SLPC   C3920910   2.582   1.016   9.337  0.0532  0.4455  1.1999
  182SLPC   H9X20911   2.474   1.001   9.359 -0.6041  0.9730 -1.3987
  182SLPC   H9Y20912   2.626   0.918   9.307 -1.2342 -0.3005  1.6237
  182SLPC  C31020913   2.607   1.113   9.222 -0.5070 -0.4315 -0.1273
  182SLPC  H10X20914   2.557   1.208   9.250 -0.4821 -1.2031  2.8518
  182SLPC  H10Y20915   2.554   1.075   9.132  0.4205 -0.8100 -0.5237
  182SLPC  C31120916   2.751   1.143   9.191  0.5207  0.6754 -0.0833
  182SLPC  H11X20917   2.795   1.048   9.152  1.5550  1.2081 -0.2449
  182SLPC  H11Y20918   2.815   1.167   9.279 -0.8256  1.4217  0.7290
  182SLPC  C31220919   2.776   1.239   9.078  0.6951 -0.0926  0.1870
  182SLPC  H12X20920   2.736   1.338   9.107  0.5807 -0.8614  2.8784
  182SLPC  H12Y20921   2.724   1.204   8.986  1.0936 -1.4592  0.4518
  182SLPC  C31320922   2.922   1.247   9.041 -0.7016 -0.1445  0.3470
  182SLPC  H13X20923   2.938   1.151   8.987  0.1536 -0.3780  0.9816
  182SLPC  H13Y20924   2.989   1.253   9.130 -1.4611  1.2567  0.8388
  182SLPC  C31420925   2.972   1.376   8.969 -1.1246  0.3507  0.8535
  182SLPC  H14X20926   2.920   1.470   8.997  0.1554  1.0722  0.8806
  182SLPC  H14Y20927   2.936   1.364   8.864  0.6519 -0.8408  0.3374
  182SLPC  C31520928   3.126   1.375   8.967 -0.3235 -0.3310 -0.7287
  182SLPC  H15X20929   3.170   1.387   9.068  0.8606 -0.5088 -1.2041
  182SLPC  H15Y20930   3.159   1.454   8.895  1.7058 -0.7250 -0.2928
  182SLPC  C31620931   3.195   1.259   8.897  0.4131 -0.6017 -0.2845
  182SLPC  H16X20932   3.134   1.243   8.806  0.7852 -1.6274 -0.3664
  182SLPC  H16Y20933   3.199   1.172   8.966  1.8795  0.1135  0.5996
  182SLPC  C31720934   3.338   1.282   8.848 -0.4236  0.1323  0.7150
  182SLPC  H17X20935   3.395   1.283   8.943 -2.9151 -2.4351  2.4043
  182SLPC  H17Y20936   3.349   1.374   8.786  0.1912 -0.7421 -0.5084
  182SLPC  C31820937   3.377   1.157   8.761  0.2792  0.4685  0.4684
  182SLPC  H18X20938   3.331   1.172   8.661 -0.9796  2.7018  1.3041
  182SLPC  H18Y20939   3.344   1.059   8.802  2.9732 -1.4635 -1.5957
  182SLPC  H18Z20940   3.487   1.149   8.750  0.1478 -1.9338  0.4956
  183SLPC     N20941   4.629   2.920  10.851 -0.2789  0.1671 -0.3762
  183SLPC   C1320942   4.773   2.915  10.893 -0.3093  0.0073  0.8138
  183SLPC  H13A20943   4.808   2.813  10.902  1.0114  0.4033  0.4354
  183SLPC  H13B20944   4.844   2.950  10.819 -0.7958  0.8443  0.7319
  183SLPC  H13C20945   4.791   2.964  10.988 -1.6683 -0.0108  1.0910
  183SLPC   C1420946   4.596   3.065  10.839  0.2135  0.5753 -0.4895
  183SLPC  H14A20947   4.499   3.084  10.797 -0.1530 -0.8219 -0.3072
  183SLPC  H14B20948   4.591   3.115  10.935 -0.5987  0.7227 -0.6032
  183SLPC  H14C20949   4.664   3.125  10.779 -1.1892 -0.6278 -3.4554
  183SLPC   C1520950   4.554   2.842  10.961  0.7817  0.2510  0.2912
  183SLPC  H15A20951   4.577   2.885  11.057 -0.1767  0.3937  0.4733
  183SLPC  H15B20952   4.447   2.847  10.949  0.8034  2.0221  0.6147
  183SLPC  H15C20953   4.575   2.737  10.975 -2.2878 -0.1271  3.5716
  183SLPC   C1220954   4.604   2.851  10.724  0.0450  0.2083 -0.2654
  183SLPC  H12A20955   4.500   2.839  10.697 -0.5792 -0.7849  2.3099
  183SLPC  H12B20956   4.642   2.750  10.723 -0.3552  0.0337 -2.1748
  183SLPC   C1120957   4.678   2.909  10.595  0.2319 -0.0634 -0.4535
  183SLPC  H11A20958   4.653   3.016  10.580 -1.2571 -0.4158 -0.6499
  183SLPC  H11B20959   4.628   2.850  10.515 -1.3661  0.0634  0.4142
  183SLPC     P20960   4.892   2.761  10.562 -0.2603 -0.4691 -0.0426
  183SLPC   O1320961   5.036   2.795  10.556 -0.0243  0.5375 -0.0286
  183SLPC   O1420962   4.838   2.651  10.652 -0.6040  0.4479  0.2297
  183SLPC   O1220963   4.820   2.891  10.608  0.2267  0.1353  1.3563
  183SLPC   O1120964   4.839   2.736  10.411 -0.5447  0.5480  0.4867
  183SLPC    C120965   4.864   2.826  10.299 -0.0625  0.2595 -0.5565
  183SLPC    HA20966   4.792   2.910  10.296 -0.6609 -0.1329  1.4031
  183SLPC    HB20967   4.969   2.863  10.303  0.1689 -0.3750  3.0662
  183SLPC    C220968   4.838   2.745  10.169 -0.0358 -0.2980 -0.4093
  183SLPC    HS20969   4.732   2.713  10.161 -0.1349  0.3165 -1.8021
  183SLPC   O2120970   4.935   2.642  10.170 -0.1427 -0.0821 -0.4770
  183SLPC   C2120971   4.890   2.525  10.213 -0.1167 -0.3546 -0.4709
  183SLPC   O2220972   4.770   2.515  10.249 -0.2942  0.2138 -0.2376
  183SLPC   C2220973   5.005   2.425  10.217  0.1138  0.4785 -0.2246
  183SLPC   H2R20974   5.084   2.470  10.153  1.5302  1.9475  2.3682
  183SLPC   H2S20975   5.038   2.430  10.323  0.2762  0.4420 -0.2728
  183SLPC    C320976   4.865   2.833  10.041  0.2174  0.0213 -0.5496
  183SLPC    HX20977   4.975   2.825  10.025  0.5479  1.6014  0.6358
  183SLPC    HY20978   4.855   2.943  10.054  0.2901 -0.0689  0.3375
  183SLPC   O3120979   4.794   2.785   9.931 -0.4670  0.1215  0.3044
  183SLPC   C3120980   4.855   2.696   9.847 -0.0218 -0.3619  0.0977
  183SLPC   O3220981   4.969   2.660   9.850  0.6414 -0.4292  0.3191
  183SLPC   C3220982   4.752   2.649   9.750 -0.8114  0.1514  1.0388
  183SLPC   H2X20983   4.677   2.729   9.734 -2.1108 -0.9416  1.4487
  183SLPC   H2Y20984   4.696   2.568   9.802 -0.5462  1.3066  3.2456
  183SLPC   C2320985   4.971   2.279  10.184  0.1006 -0.1713  0.7772
  183SLPC   H3R20986   4.901   2.237  10.259  0.7287 -1.1279  0.8528
  183SLPC   H3S20987   5.063   2.219  10.202  0.1702 -0.1156  0.6095
  183SLPC   C2420988   4.919   2.265  10.041 -0.3636 -1.1159 -0.1228
  183SLPC   H4R20989   4.981   2.336   9.983  1.3170 -0.9983  1.7026
  183SLPC   H4S20990   4.815   2.304  10.044  0.0681  0.0166  1.1257
  183SLPC   C2520991   4.903   2.126   9.985  0.0529  0.1322 -0.2558
  183SLPC   H5R20992   4.833   2.073  10.052 -0.8996  0.9158 -0.6079
  183SLPC   H5S20993   5.000   2.073   9.993 -0.8454 -1.4880  0.4305
  183SLPC   C2620994   4.855   2.121   9.838  0.4252  0.9436  0.4154
  183SLPC   H6R20995   4.751   2.159   9.830 -0.2195 -0.8147 -0.0538
  183SLPC   H6S20996   4.859   2.016   9.802  2.3199  1.6311 -1.6028
  183SLPC   C2720997   4.932   2.205   9.733 -0.4728  0.0579  0.2000
  183SLPC   H7R20998   5.038   2.174   9.747 -0.6549 -0.6430  0.0372
  183SLPC   H7S20999   4.925   2.314   9.752  1.8495  0.6763 -1.8270
  183SLPC   C2821000   4.887   2.179   9.588 -0.1934 -0.2405 -0.6230
  183SLPC   H8R21001   4.783   2.217   9.584 -0.1119  0.2114  1.0629
  183SLPC   H8S21002   4.869   2.070   9.579 -1.6328 -0.4419  3.1424
  183SLPC   C2921003   4.989   2.249   9.495 -0.0668 -0.4683  0.1097
  183SLPC   H9R21004   5.021   2.344   9.540 -2.2157  0.0180  0.7266
  183SLPC  C21021005   5.043   2.205   9.376  0.8429 -0.0806 -0.1403
  183SLPC  H10R21006   5.115   2.275   9.330  1.3915 -0.7807 -0.3698
  183SLPC  C21121007   5.018   2.076   9.301  0.0795  0.0482 -0.2461
  183SLPC  H11R21008   4.924   2.026   9.334  1.2006 -1.7713  0.3402
  183SLPC  H11S21009   5.098   2.002   9.319  1.1499  1.5990  1.9145
  183SLPC  C21221010   4.976   2.095   9.159  0.0480 -0.5727  0.0167
  183SLPC  H12R21011   4.883   2.153   9.146  1.4184  1.8854  0.6280
  183SLPC  C21321012   5.032   2.039   9.047 -0.0816  0.0777  0.6776
  183SLPC  H13R21013   5.002   2.079   8.949 -0.3360 -1.9041 -0.0980
  183SLPC  C21421014   5.140   1.928   9.030  0.4546 -0.4926  0.0520
  183SLPC  H14R21015   5.125   1.874   8.934  3.8874 -0.5117 -0.5846
  183SLPC  H14S21016   5.116   1.853   9.108 -1.3004  0.1650  0.1831
  183SLPC  C21521017   5.280   1.988   9.036  0.1295  0.1307 -0.2579
  183SLPC  H15R21018   5.281   2.056   9.124 -1.9732  0.9208 -0.8053
  183SLPC  H15S21019   5.302   2.044   8.943  0.5962  0.0245 -0.2155
  183SLPC  C21621020   5.381   1.875   9.029 -0.0241 -0.0438 -1.0129
  183SLPC  H16R21021   5.357   1.808   8.944  2.4438 -0.7568 -1.2144
  183SLPC  H16S21022   5.371   1.816   9.123 -2.3849  1.0049 -0.5375
  183SLPC  C21721023   5.527   1.925   9.014 -0.3085  0.2275  0.8276
  183SLPC  H17R21024   5.550   1.964   8.913  2.3833 -1.6296  0.6118
  183SLPC  H17S21025   5.596   1.838   9.013 -0.8372 -0.2030 -1.1120
  183SLPC  C21821026   5.560   2.031   9.117  0.3840 -0.0858 -0.3899
  183SLPC  H18R21027   5.553   1.994   9.222 -0.8405 -0.5092 -0.6073
  183SLPC  H18S21028   5.495   2.120   9.103 -1.8680 -1.1620  2.2013
  183SLPC  H18T21029   5.668   2.054   9.104  1.0533 -0.7273  2.9399
  183SLPC   C3321030   4.816   2.608   9.615 -0.6019 -0.2747 -0.4818
  183SLPC   H3X21031   4.760   2.534   9.554  0.3494  1.6881 -4.0638
  183SLPC   H3Y21032   4.911   2.558   9.645 -0.2091  1.1741  0.8198
  183SLPC   C3421033   4.847   2.726   9.523  0.8593 -0.0989  0.5956
  183SLPC   H4X21034   4.903   2.802   9.581 -0.0559  0.5917  0.6020
  183SLPC   H4Y21035   4.759   2.779   9.480  2.3483  2.6003  0.6471
  183SLPC   C3521036   4.915   2.681   9.392  0.2130  0.2045 -0.5577
  183SLPC   H5X21037   5.016   2.657   9.432  0.6548  1.5288 -0.8329
  183SLPC   H5Y21038   4.928   2.779   9.341  2.8810  1.7646  2.7064
  183SLPC   C3621039   4.858   2.568   9.318 -0.7157 -0.3833 -0.5080
  183SLPC   H6X21040   4.758   2.605   9.287 -0.6491 -0.2649 -0.5795
  183SLPC   H6Y21041   4.850   2.471   9.373  1.1146 -0.2916 -0.0259
  183SLPC   C3721042   4.937   2.538   9.194  0.2681  0.3131  0.3438
  183SLPC   H7X21043   5.030   2.490   9.234  0.5141  1.2046  0.8717
  183SLPC   H7Y21044   4.969   2.623   9.131  1.6154 -1.5677 -1.6807
  183SLPC   C3821045   4.860   2.445   9.101  0.5201  0.6477  0.1348
  183SLPC   H8X21046   4.760   2.488   9.078 -0.8579 -2.2801  0.0693
  183SLPC   H8Y21047   4.846   2.341   9.139  2.8706  0.8417  1.6636
  183SLPC   C3921048   4.921   2.420   8.965 -0.5108 -0.3174 -0.5691
  183SLPC   H9X21049   4.839   2.416   8.889 -0.1712  0.6460 -0.9969
  183SLPC   H9Y21050   4.973   2.322   8.958  0.5240  0.1544  0.3926
  183SLPC  C31021051   5.017   2.535   8.908 -0.0758  0.2615 -0.2809
  183SLPC  H10X21052   5.105   2.533   8.977  1.1366 -0.9153 -1.7902
  183SLPC  H10Y21053   4.973   2.636   8.910  2.2856  1.3447 -0.1083
  183SLPC  C31121054   5.052   2.500   8.762  0.3538  0.0464 -0.2436
  183SLPC  H11X21055   4.957   2.478   8.707 -0.7240 -1.1754  1.9653
  183SLPC  H11Y21056   5.095   2.399   8.749 -1.2199 -0.5401 -1.2650
  183SLPC  C31221057   5.131   2.605   8.685 -0.3799  0.6765 -0.4684
  183SLPC  H12X21058   5.234   2.607   8.726 -0.4044 -4.0364  0.3186
  183SLPC  H12Y21059   5.075   2.698   8.707 -1.1434  0.0813  0.1682
  183SLPC  C31321060   5.156   2.573   8.533  0.3421 -0.9250 -0.0611
  183SLPC  H13X21061   5.194   2.663   8.482 -0.3070  0.0087  1.0554
  183SLPC  H13Y21062   5.055   2.558   8.488  0.0230  1.6504 -0.3208
  183SLPC  C31421063   5.245   2.454   8.509 -0.0882  0.4794  0.3491
  183SLPC  H14X21064   5.197   2.361   8.547 -0.4366 -0.1626 -1.5882
  183SLPC  H14Y21065   5.346   2.466   8.556  0.4753 -0.3443 -0.6253
  183SLPC  C31521066   5.274   2.409   8.359 -0.2578 -0.4164  0.1740
  183SLPC  H15X21067   5.295   2.502   8.302 -3.3215 -0.2767 -0.9260
  183SLPC  H15Y21068   5.171   2.386   8.324 -0.2876 -4.2265  2.1794
  183SLPC  C31621069   5.380   2.303   8.329  0.4388 -0.0961 -1.3405
  183SLPC  H16X21070   5.344   2.216   8.388  1.4639  0.0634 -0.4515
  183SLPC  H16Y21071   5.479   2.334   8.369  0.0011 -0.9162  0.4870
  183SLPC  C31721072   5.379   2.271   8.185 -0.3777 -0.1065  0.0582
  183SLPC  H17X21073   5.440   2.350   8.136  1.7626 -1.2525  0.7414
  183SLPC  H17Y21074   5.280   2.264   8.135 -0.6732 -1.7863  0.8048
  183SLPC  C31821075   5.463   2.143   8.165  0.7149  0.2176  0.2254
  183SLPC  H18X21076   5.483   2.149   8.056  0.4761 -0.5066  0.1346
  183SLPC  H18Y21077   5.395   2.058   8.189 -1.0003  1.1225 -1.1316
  183SLPC  H18Z21078   5.558   2.136   8.222  1.9938  3.1123 -1.3511
  184SLPC     N21079   1.200   0.050  11.058  0.1463 -0.7571 -0.5225
  184SLPC   C1321080   1.135   0.181  11.031  0.7347  0.4454 -0.3217
  184SLPC  H13A21081   1.027   0.178  11.031  0.7269 -1.6029  0.8919
  184SLPC  H13B21082   1.175   0.264  11.087  0.3562  0.7733 -0.5346
  184SLPC  H13C21083   1.165   0.212  10.932  2.3433  0.4723  0.1410
  184SLPC   C1421084   1.143  -0.056  10.977  0.0871 -0.1953  0.0516
  184SLPC  H14A21085   1.182  -0.056  10.876  1.1977 -1.6547  0.4464
  184SLPC  H14B21086   1.171  -0.153  11.015 -0.6996  0.2317  1.8045
  184SLPC  H14C21087   1.035  -0.049  10.974  0.1127  0.0234 -1.5912
  184SLPC   C1521088   1.178   0.020  11.204 -0.0259 -0.0251  1.4401
  184SLPC  H15A21089   1.076   0.001  11.235 -0.1645  0.0137  1.0230
  184SLPC  H15B21090   1.228  -0.072  11.231 -3.0117 -2.5596 -0.8942
  184SLPC  H15C21091   1.214   0.098  11.269  1.6077  0.9325 -0.5091
  184SLPC   C1221092   1.351   0.054  11.024  0.6096 -0.5912 -0.0772
  184SLPC  H12A21093   1.397  -0.042  11.044  0.1275 -0.7744  0.1768
  184SLPC  H12B21094   1.399   0.129  11.085 -1.1602 -1.1524  2.1415
  184SLPC   C1121095   1.401   0.084  10.883 -0.3933  0.7780 -0.6429
  184SLPC  H11A21096   1.351   0.002  10.827  0.8697 -0.0981 -0.5420
  184SLPC  H11B21097   1.512   0.071  10.874 -0.6781 -3.7634 -0.3269
  184SLPC     P21098   1.392   0.253  10.688  0.0989  0.7134 -0.1699
  184SLPC   O1321099   1.351   0.390  10.669 -0.2923  0.1145  0.7021
  184SLPC   O1421100   1.534   0.226  10.678 -0.6359 -0.1457 -0.2350
  184SLPC   O1221101   1.355   0.205  10.836 -0.4469 -0.1203 -0.1384
  184SLPC   O1121102   1.310   0.161  10.590 -0.4971 -0.5541 -0.4352
  184SLPC    C121103   1.173   0.133  10.624 -0.2146  0.0814  0.7087
  184SLPC    HA21104   1.151   0.077  10.717 -2.2044 -2.3911 -1.1350
  184SLPC    HB21105   1.113   0.227  10.621 -0.2136  0.0612 -1.2487
  184SLPC    C221106   1.115   0.040  10.512  0.3686  0.1106  0.3868
  184SLPC    HS21107   1.180  -0.048  10.532 -0.1542 -0.7381 -1.4405
  184SLPC   O2121108   1.131   0.096  10.380 -0.1101 -0.3023 -0.2304
  184SLPC   C2121109   1.102   0.015  10.284 -0.6147  1.0073 -0.2198
  184SLPC   O2221110   1.097  -0.112  10.297 -0.5099  0.2716 -0.3285
  184SLPC   C2221111   1.105   0.090  10.157 -0.9790 -0.0422 -0.6103
  184SLPC   H2R21112   1.071   0.194  10.173 -2.5890 -0.9492  3.1338
  184SLPC   H2S21113   1.209   0.091  10.120 -0.2564  1.0100  1.3304
  184SLPC    C321114   0.965   0.003  10.543  0.0118 -0.3183  0.4899
  184SLPC    HX21115   0.967  -0.047  10.642 -1.8842 -1.1179  0.1527
  184SLPC    HY21116   0.930  -0.075  10.473 -0.9601 -0.1132  0.7407
  184SLPC   O3121117   0.881   0.125  10.551 -0.0276  0.5155 -0.4758
  184SLPC   C3121118   0.797   0.147  10.448 -0.1338 -0.7088  0.0867
  184SLPC   O3221119   0.794   0.087  10.342  0.3808 -0.3573  0.0813
  184SLPC   C3221120   0.725   0.275  10.462 -0.2971  0.1198  0.2503
  184SLPC   H2X21121   0.801   0.352  10.439 -1.5110  1.6467  1.1530
  184SLPC   H2Y21122   0.701   0.282  10.570  1.7788  0.0686  0.7551
  184SLPC   C2321123   1.009   0.031  10.050 -0.2298  0.1357  0.7052
  184SLPC   H3R21124   0.907   0.053  10.091 -0.1884 -0.4956  1.1666
  184SLPC   H3S21125   1.013  -0.080  10.049  3.0570  0.0502  3.5253
  184SLPC   C2421126   1.014   0.101   9.909  0.3779 -0.5420  0.1043
  184SLPC   H4R21127   1.113   0.072   9.868 -0.4821 -1.9679 -1.0646
  184SLPC   H4S21128   1.008   0.212   9.916  2.5895 -0.3733 -0.0407
  184SLPC   C2521129   0.906   0.059   9.812 -0.2413 -0.2108 -0.5636
  184SLPC   H5R21130   0.807   0.070   9.860  1.0032  0.0538  2.1619
  184SLPC   H5S21131   0.924  -0.047   9.785  1.7815 -0.8427  2.6681
  184SLPC   C2621132   0.905   0.141   9.683  0.0192 -0.2556 -0.1861
  184SLPC   H6R21133   0.996   0.121   9.623 -0.7727 -0.1620 -1.4424
  184SLPC   H6S21134   0.906   0.249   9.710 -0.9553 -0.2351 -0.2025
  184SLPC   C2721135   0.778   0.120   9.602 -0.1443 -0.0108 -0.1360
  184SLPC   H7R21136   0.693   0.129   9.673 -1.1619 -0.2948 -1.2841
  184SLPC   H7S21137   0.777   0.015   9.566 -1.9706 -0.1712  0.3111
  184SLPC   C2821138   0.773   0.223   9.494 -0.0410  0.5164  0.3336
  184SLPC   H8R21139   0.868   0.234   9.438 -0.5328  0.4213 -0.5389
  184SLPC   H8S21140   0.757   0.320   9.546 -0.8653  0.6373 -0.1253
  184SLPC   C2921141   0.659   0.222   9.391  0.4076  0.6445  0.3285
  184SLPC   H9R21142   0.563   0.257   9.433 -0.6378  0.4207 -1.7359
  184SLPC  C21021143   0.667   0.187   9.264 -0.3424 -0.0259 -0.0657
  184SLPC  H10R21144   0.571   0.200   9.211  0.1748 -1.4448 -1.4322
  184SLPC  C21121145   0.796   0.149   9.193  1.1162  0.5410 -0.4987
  184SLPC  H11R21146   0.778   0.055   9.137  0.8968  0.9627 -1.1449
  184SLPC  H11S21147   0.884   0.126   9.256  1.2648 -0.0141 -0.9042
  184SLPC  C21221148   0.857   0.245   9.094  0.1901  0.0625 -0.6850
  184SLPC  H12R21149   0.851   0.351   9.124 -3.7830 -0.2331  0.0385
  184SLPC  C21321150   0.908   0.221   8.971  0.0188  0.0432 -0.2249
  184SLPC  H13R21151   0.955   0.305   8.917 -0.9760  0.2925 -0.7224
  184SLPC  C21421152   0.930   0.084   8.908  0.3966 -0.6366 -0.3914
  184SLPC  H14R21153   0.971   0.019   8.988 -1.5651 -1.0345  0.3433
  184SLPC  H14S21154   1.003   0.093   8.825 -0.6412 -0.4986 -1.3097
  184SLPC  C21521155   0.801   0.021   8.849 -0.3009 -0.4541  0.5933
  184SLPC  H15R21156   0.729   0.023   8.933 -0.1517  1.4789  0.7241
  184SLPC  H15S21157   0.823  -0.080   8.810  1.7864  0.7016 -1.4836
  184SLPC  C21621158   0.755   0.085   8.719 -0.5366 -0.4576  0.0403
  184SLPC  H16R21159   0.835   0.064   8.645  0.1458  1.1225  0.2891
  184SLPC  H16S21160   0.756   0.196   8.730  1.3926 -0.3302 -1.0163
  184SLPC  C21721161   0.614   0.051   8.659  1.0529  0.1208  0.2440
  184SLPC  H17R21162   0.617  -0.058   8.634 -1.8093  0.1799 -0.7322
  184SLPC  H17S21163   0.601   0.112   8.567  1.3654  1.1667  0.8763
  184SLPC  C21821164   0.488   0.058   8.747 -0.1019  0.5291 -0.2410
  184SLPC  H18R21165   0.490   0.154   8.804  2.8771 -0.3650  1.3992
  184SLPC  H18S21166   0.503  -0.026   8.818  0.8337  1.1623  0.3439
  184SLPC  H18T21167   0.396   0.036   8.689 -0.0171 -0.0766 -0.1504
  184SLPC   C3321168   0.600   0.293  10.372 -0.1994 -0.1143  0.3934
  184SLPC   H3X21169   0.536   0.375  10.411 -1.1343 -0.8175  0.3765
  184SLPC   H3Y21170   0.538   0.201  10.367  0.8414 -0.7792 -0.6703
  184SLPC   C3421171   0.637   0.323  10.222  0.3237  0.2006  0.0913
  184SLPC   H4X21172   0.693   0.238  10.179 -0.1469  0.2819 -0.6984
  184SLPC   H4Y21173   0.699   0.414  10.208  1.8668 -0.9797 -1.0169
  184SLPC   C3521174   0.504   0.343  10.145 -0.1245  0.5316  0.6333
  184SLPC   H5X21175   0.446   0.429  10.187 -0.9976  0.5592 -0.5792
  184SLPC   H5Y21176   0.450   0.249  10.171  1.9711 -1.5400 -1.9753
  184SLPC   C3621177   0.518   0.342   9.992 -0.1962 -0.7317  0.3778
  184SLPC   H6X21178   0.575   0.263   9.939  2.7071  2.2838 -1.4479
  184SLPC   H6Y21179   0.574   0.432   9.957  0.2046 -1.8505 -2.0505
  184SLPC   C3721180   0.378   0.348   9.937 -0.5819  0.6888 -0.3280
  184SLPC   H7X21181   0.314   0.429   9.978 -3.1851 -0.2232 -2.3031
  184SLPC   H7Y21182   0.320   0.267   9.986  1.9449 -1.1638 -0.2382
  184SLPC   C3821183   0.371   0.342   9.784 -0.3309  0.3847  0.5602
  184SLPC   H8X21184   0.265   0.359   9.759 -0.0129  1.5053 -0.0776
  184SLPC   H8Y21185   0.390   0.238   9.749 -2.6032 -0.2661  1.0793
  184SLPC   C3921186   0.449   0.453   9.705  0.2065  0.7997  0.3333
  184SLPC   H9X21187   0.434   0.424   9.599  1.4048 -2.7066  0.9885
  184SLPC   H9Y21188   0.556   0.441   9.733 -0.3367 -2.8239  1.4951
  184SLPC  C31021189   0.397   0.589   9.740  0.3055  0.0984  0.6099
  184SLPC  H10X21190   0.420   0.617   9.844  0.3596  1.9237  0.1413
  184SLPC  H10Y21191   0.287   0.594   9.726  0.3695 -1.4192 -0.7941
  184SLPC  C31121192   0.469   0.683   9.646 -0.7895  0.0003 -0.9470
  184SLPC  H11X21193   0.445   0.654   9.541  0.3877  2.8183 -2.0810
  184SLPC  H11Y21194   0.578   0.683   9.665 -0.4896  1.8975 -2.3626
  184SLPC  C31221195   0.417   0.825   9.656  0.2388  0.2931 -0.6394
  184SLPC  H12X21196   0.434   0.863   9.759 -0.5378  1.9226 -1.0742
  184SLPC  H12Y21197   0.310   0.818   9.627  0.2321 -5.0921 -0.2650
  184SLPC  C31321198   0.485   0.916   9.558  0.1536  0.2683  0.1592
  184SLPC  H13X21199   0.595   0.918   9.576  0.9233  3.7215 -3.4084
  184SLPC  H13Y21200   0.455   1.022   9.569 -2.0893 -0.5714  3.8782
  184SLPC  C31421201   0.458   0.888   9.401  0.0759 -0.4555 -0.1506
  184SLPC  H14X21202   0.351   0.865   9.380  0.0619  0.5707 -1.2942
  184SLPC  H14Y21203   0.524   0.801   9.385  0.6963  0.1809 -1.1319
  184SLPC  C31521204   0.491   1.006   9.305 -0.2698  0.4314 -0.1699
  184SLPC  H15X21205   0.550   1.092   9.345 -0.2848  1.3281 -1.9594
  184SLPC  H15Y21206   0.392   1.041   9.269 -0.3506  0.9970  0.5918
  184SLPC  C31621207   0.572   0.965   9.177 -0.0956  0.0044 -0.3935
  184SLPC  H16X21208   0.523   0.870   9.148 -2.4692  1.4435 -1.4083
  184SLPC  H16Y21209   0.675   0.936   9.206 -0.9835 -3.8836 -0.6203
  184SLPC  C31721210   0.578   1.067   9.063  0.7397  0.3254  0.2582
  184SLPC  H17X21211   0.641   1.020   8.985 -0.2145 -0.2595 -0.1639
  184SLPC  H17Y21212   0.632   1.160   9.093  2.6655 -0.5450 -0.3383
  184SLPC  C31821213   0.439   1.085   9.012 -0.0716 -0.9467 -0.0128
  184SLPC  H18X21214   0.457   1.165   8.937  1.4626  0.9755  2.2637
  184SLPC  H18Y21215   0.374   1.131   9.089 -1.0288 -0.1831 -1.2417
  184SLPC  H18Z21216   0.397   0.991   8.969  5.0356 -3.2748 -0.7095
  185SLPC     N21217   6.299   2.877   6.186 -0.4255 -0.5154  0.3775
  185SLPC   C1321218   6.171   2.802   6.206 -0.1919  0.1033 -0.2432
  185SLPC  H13A21219   6.080   2.849   6.170  1.3127  2.7041 -0.9321
  185SLPC  H13B21220   6.183   2.716   6.142  2.2079  0.3244 -0.1655
  185SLPC  H13C21221   6.155   2.767   6.306  0.4269 -1.1864 -0.5739
  185SLPC   C1421222   6.290   3.009   6.254 -0.1838  0.1997  0.5738
  185SLPC  H14A21223   6.214   3.067   6.204  0.1469  1.1890  1.2030
  185SLPC  H14B21224   6.270   2.988   6.358 -0.7629 -2.2788  0.0398
  185SLPC  H14C21225   6.385   3.059   6.262 -0.9889  2.6842 -3.1136
  185SLPC   C1521226   6.320   2.912   6.044  0.0921 -0.7789  0.7035
  185SLPC  H15A21227   6.348   2.835   5.973  0.7263  0.5011 -0.4755
  185SLPC  H15B21228   6.228   2.950   6.002  0.5134 -1.6649 -1.1706
  185SLPC  H15C21229   6.399   2.985   6.037  0.8145 -1.3263  2.5958
  185SLPC   C1221230   6.414   2.794   6.248 -0.4320  0.6335  0.1899
  185SLPC  H12A21231   6.501   2.858   6.243 -1.0644  1.4540 -1.0057
  185SLPC  H12B21232   6.426   2.703   6.191 -0.1837  0.6650  0.1912
  185SLPC   C1121233   6.390   2.747   6.388 -0.2686 -0.5576 -0.3660
  185SLPC  H11A21234   6.356   2.829   6.455 -0.2444  0.6879 -1.8350
  185SLPC  H11B21235   6.489   2.712   6.424  0.0969 -1.1838 -1.8930
  185SLPC     P21236   6.275   2.545   6.514 -0.1351 -0.0895  0.5759
  185SLPC   O1321237   6.131   2.559   6.543  0.7231  0.1413 -0.3369
  185SLPC   O1421238   6.321   2.403   6.493  0.1425 -0.3990  0.0664
  185SLPC   O1221239   6.306   2.630   6.377  0.5585  0.2300  0.2517
  185SLPC   O1121240   6.358   2.608   6.632 -0.7919  0.0571 -0.0223
  185SLPC    C121241   6.306   2.718   6.707 -0.4471  0.1093 -0.2893
  185SLPC    HA21242   6.234   2.778   6.647 -0.9185  0.6560  0.7812
  185SLPC    HB21243   6.248   2.684   6.795  1.4799 -2.5810  0.0634
  185SLPC    C221244   6.414   2.820   6.752 -0.8572 -0.7285 -0.0021
  185SLPC    HS21245   6.494   2.847   6.679 -0.2771  3.0708  1.7593
  185SLPC   O2121246   6.470   2.768   6.873  0.3822  0.4110  0.1190
  185SLPC   C2121247   6.590   2.800   6.898 -0.1173 -0.4310 -0.0541
  185SLPC   O2221248   6.655   2.877   6.828  0.4948  0.4775 -0.8834
  185SLPC   C2221249   6.632   2.735   7.028  0.0831  0.2393  0.4883
  185SLPC   H2R21250   6.558   2.664   7.070  0.8572 -1.0081 -0.1908
  185SLPC   H2S21251   6.716   2.672   6.992 -1.2649 -1.3013 -0.0580
  185SLPC    C321252   6.340   2.957   6.777  0.4640 -0.2514  0.8258
  185SLPC    HX21253   6.258   2.947   6.852 -2.5568  0.1246 -2.2167
  185SLPC    HY21254   6.283   2.977   6.684 -0.5844 -1.9385  1.0578
  185SLPC   O3121255   6.431   3.062   6.812  0.5369  0.1378 -0.0276
  185SLPC   C3121256   6.494   3.124   6.711 -0.4519  0.1878 -0.6513
  185SLPC   O3221257   6.480   3.108   6.591 -0.2394 -0.4464 -0.3022
  185SLPC   C3221258   6.585   3.231   6.775  0.3492  0.4838  0.1338
  185SLPC   H2X21259   6.690   3.207   6.746 -0.0541  0.7042 -1.6700
  185SLPC   H2Y21260   6.585   3.230   6.886  0.4207  0.8568  0.1392
  185SLPC   C2321261   6.682   2.837   7.141  0.0381  0.2973  0.0274
  185SLPC   H3R21262   6.756   2.904   7.091  1.3845 -2.1562 -1.4584
  185SLPC   H3S21263   6.747   2.782   7.212  0.4512  0.0928 -0.4983
  185SLPC   C2421264   6.567   2.918   7.217 -0.0357 -0.1051  0.3124
  185SLPC   H4R21265   6.611   2.944   7.316  0.5390 -1.1624  0.3624
  185SLPC   H4S21266   6.477   2.854   7.229 -1.2673  1.6042  0.5538
  185SLPC   C2521267   6.528   3.051   7.145  0.0687 -0.3545  0.8239
  185SLPC   H5R21268   6.487   3.025   7.044  1.0972 -0.4320  0.4134
  185SLPC   H5S21269   6.618   3.114   7.124  0.3703 -0.5657  1.4734
  185SLPC   C2621270   6.427   3.131   7.222 -0.3755  0.4883  0.1246
  185SLPC   H6R21271   6.441   3.123   7.332  0.0671  1.1041  0.1136
  185SLPC   H6S21272   6.332   3.081   7.192  1.5178 -2.7563 -1.0670
  185SLPC   C2721273   6.422   3.284   7.188 -0.3013 -0.2315 -0.9244
  185SLPC   H7R21274   6.414   3.296   7.078  1.8228 -2.3410 -1.3826
  185SLPC   H7S21275   6.519   3.323   7.224  0.1152 -2.2514  0.3191
  185SLPC   C2821276   6.314   3.360   7.263 -1.1571 -0.0899  0.0380
  185SLPC   H8R21277   6.306   3.323   7.367 -0.1207 -0.4770 -0.0130
  185SLPC   H8S21278   6.222   3.322   7.214  0.8030 -4.3978 -0.7326
  185SLPC   C2921279   6.322   3.514   7.249 -0.0215  0.8010 -0.5466
  185SLPC   H9R21280   6.274   3.539   7.154 -0.3872 -0.3215 -0.6674
  185SLPC  C21021281   6.366   3.597   7.342  0.0201 -0.3309 -1.0239
  185SLPC  H10R21282   6.377   3.701   7.307  0.9269 -0.3365 -0.7881
  185SLPC  C21121283   6.428   3.568   7.474  0.2629  0.1836 -0.4982
  185SLPC  H11R21284   6.381   3.475   7.512  2.0399 -0.9939 -1.1153
  185SLPC  H11S21285   6.398   3.644   7.551  0.3374 -0.4484  0.1642
  185SLPC  C21221286   6.573   3.546   7.471 -0.0557  0.0495  0.4647
  185SLPC  H12R21287   6.618   3.522   7.374  1.1565  2.5102  0.3287
  185SLPC  C21321288   6.653   3.574   7.573 -0.2106  0.0310  0.3199
  185SLPC  H13R21289   6.761   3.564   7.554 -0.3357  2.0791 -2.0835
  185SLPC  C21421290   6.615   3.641   7.700  0.2995  0.0507 -1.5075
  185SLPC  H14R21291   6.545   3.726   7.687 -1.9792 -1.0941  1.9260
  185SLPC  H14S21292   6.706   3.687   7.743  0.7474 -1.4789 -0.7382
  185SLPC  C21521293   6.549   3.558   7.813  0.2395  0.2042 -1.0313
  185SLPC  H15R21294   6.597   3.459   7.828  2.0039  1.2179  0.3884
  185SLPC  H15S21295   6.449   3.528   7.775  1.0401 -1.3112 -2.0351
  185SLPC  C21621296   6.529   3.633   7.946  0.5135  0.2648 -0.1297
  185SLPC  H16R21297   6.462   3.568   8.007 -0.5668 -0.1234 -1.6542
  185SLPC  H16S21298   6.475   3.729   7.933 -1.0295 -0.6324 -0.7341
  185SLPC  C21721299   6.655   3.657   8.029 -0.5287 -0.1927  0.5896
  185SLPC  H17R21300   6.739   3.684   7.961 -0.8141 -1.1751 -0.1891
  185SLPC  H17S21301   6.687   3.554   8.059 -2.0327 -1.1167 -0.8428
  185SLPC  C21821302   6.636   3.741   8.151 -0.1999  0.2545 -0.2526
  185SLPC  H18R21303   6.537   3.722   8.197 -0.2117 -0.6859 -0.6478
  185SLPC  H18S21304   6.621   3.847   8.121 -1.4333  0.8471  2.2161
  185SLPC  H18T21305   6.718   3.732   8.225 -0.5628  1.0060  0.2492
  185SLPC   C3321306   6.538   3.371   6.714 -0.3249 -0.0226  0.6868
  185SLPC   H3X21307   6.429   3.371   6.734 -1.2054 -3.6763 -2.8797
  185SLPC   H3Y21308   6.539   3.373   6.603 -1.9766 -0.9337  0.6263
  185SLPC   C3421309   6.604   3.484   6.792  0.6785 -0.1485 -0.0819
  185SLPC   H4X21310   6.712   3.486   6.767  0.6680 -0.5415 -0.1647
  185SLPC   H4Y21311   6.584   3.460   6.899 -0.9827 -0.3071 -0.4067
  185SLPC   C3521312   6.546   3.616   6.754 -0.1448 -0.8984  0.5655
  185SLPC   H5X21313   6.437   3.617   6.771 -0.2155 -1.7160  0.1910
  185SLPC   H5Y21314   6.563   3.634   6.645 -0.7924  2.3139  0.8830
  185SLPC   C3621315   6.608   3.739   6.831  0.3636 -0.1885 -0.0271
  185SLPC   H6X21316   6.565   3.834   6.792 -1.4616 -0.6602  0.7365
  185SLPC   H6Y21317   6.718   3.736   6.811  0.4394 -1.3743  0.4941
  185SLPC   C3721318   6.574   3.729   6.978 -0.4799 -0.3863 -0.7583
  185SLPC   H7X21319   6.610   3.641   7.036 -1.2669  1.2788  2.5102
  185SLPC   H7Y21320   6.464   3.725   6.992 -0.4179  1.7340  0.6552
  185SLPC   C3821321   6.631   3.853   7.050 -0.4164  0.1638 -0.4855
  185SLPC   H8X21322   6.572   3.934   7.003 -0.9081 -0.3553 -0.7758
  185SLPC   H8Y21323   6.738   3.861   7.021  0.1405 -1.4733  0.9257
  185SLPC   C3921324   6.625   3.843   7.202  0.5770 -0.0799  0.3207
  185SLPC   H9X21325   6.665   3.745   7.236 -2.3116 -1.0222  1.2802
  185SLPC   H9Y21326   6.519   3.836   7.232 -0.3950  0.9529 -2.5940
  185SLPC  C31021327   6.689   3.960   7.273 -0.3251  0.9349 -0.5537
  185SLPC  H10X21328   6.635   4.046   7.229  1.2285  1.3499 -1.7158
  185SLPC  H10Y21329   6.797   3.968   7.249 -0.0626  0.1430  0.2902
  185SLPC  C31121330   6.692   3.945   7.428 -0.1160 -0.5022 -0.0378
  185SLPC  H11X21331   6.719   3.843   7.462  0.3343 -0.4412 -0.1968
  185SLPC  H11Y21332   6.586   3.967   7.452 -0.4922 -1.9190 -0.3173
  185SLPC  C31221333   6.778   4.053   7.494  0.1438  1.5096 -0.2080
  185SLPC  H12X21334   6.783   4.152   7.443  0.6598  0.8374 -1.5262
  185SLPC  H12Y21335   6.884   4.018   7.489 -0.5528 -0.5945 -1.2350
  185SLPC  C31321336   6.727   4.060   7.636  0.3843 -0.2373  0.2652
  185SLPC  H13X21337   6.727   3.958   7.678  2.0940 -1.3491 -2.2223
  185SLPC  H13Y21338   6.621   4.094   7.631  0.7216  0.7028 -1.3439
  185SLPC  C31421339   6.802   4.156   7.727  0.0761  0.3582  0.3571
  185SLPC  H14X21340   6.780   4.253   7.677 -0.7256  0.8801  1.6633
  185SLPC  H14Y21341   6.911   4.135   7.716 -0.2508 -0.9028 -0.7303
  185SLPC  C31521342   6.761   4.165   7.873  0.1245 -0.2051 -0.2100
  185SLPC  H15X21343   6.651   4.184   7.869  0.0315 -0.7399 -0.2962
  185SLPC  H15Y21344   6.802   4.257   7.919  1.1264  0.0211 -1.4818
  185SLPC  C31621345   6.788   4.043   7.961  0.5984 -0.2521  0.0960
  185SLPC  H16X21346   6.754   3.947   7.916 -0.8507  1.2848 -2.2505
  185SLPC  H16Y21347   6.724   4.055   8.051 -1.0711  0.4306 -1.1492
  185SLPC  C31721348   6.934   4.050   8.023  0.4711  0.4108  0.3483
  185SLPC  H17X21349   6.944   4.141   8.086  0.7989  0.6830 -0.0870
  185SLPC  H17Y21350   7.004   4.060   7.937  2.9081 -0.4484  2.1275
  185SLPC  C31821351   6.967   3.917   8.103  0.3388 -0.8851  1.2844
  185SLPC  H18X21352   6.913   3.925   8.199  0.6176  0.0711  1.3766
  185SLPC  H18Y21353   7.074   3.924   8.131  0.2520  0.8510  1.2780
  185SLPC  H18Z21354   6.942   3.823   8.049  1.2337  0.9863 -2.8479
  186SLPC     N21355   1.422   5.036   5.974  0.3652 -0.8660 -0.2469
  186SLPC   C1321356   1.498   5.144   5.898  0.2922  0.8686  0.0798
  186SLPC  H13A21357   1.571   5.187   5.966  0.9863 -1.8700  1.1997
  186SLPC  H13B21358   1.540   5.092   5.813 -0.0284  0.6063  0.0809
  186SLPC  H13C21359   1.427   5.217   5.862  0.1216  0.2262 -0.9009
  186SLPC   C1421360   1.492   4.908   5.976  0.3667 -0.2293  0.1138
  186SLPC  H14A21361   1.596   4.914   6.005  0.5580  0.3044 -0.6322
  186SLPC  H14B21362   1.438   4.831   6.029 -0.6472  1.9255  2.4027
  186SLPC  H14C21363   1.500   4.867   5.876  0.3773 -0.6090  0.2707
  186SLPC   C1521364   1.286   5.021   5.904  0.4064  0.1756  0.7334
  186SLPC  H15A21365   1.243   5.118   5.887  0.7962  0.3916  0.9399
  186SLPC  H15B21366   1.302   4.976   5.807  0.4524  1.3174  0.2048
  186SLPC  H15C21367   1.223   4.957   5.963 -0.3133  2.4551  2.5774
  186SLPC   C1221368   1.392   5.083   6.114 -0.1916  0.3248 -0.6000
  186SLPC  H12A21369   1.336   5.174   6.100 -0.5545  0.1004 -0.6403
  186SLPC  H12B21370   1.486   5.100   6.164 -0.9784 -1.1678  1.5603
  186SLPC   C1121371   1.301   4.999   6.205 -0.6485 -0.6434 -0.1081
  186SLPC  H11A21372   1.322   5.034   6.309  1.0451  1.3218 -1.0328
  186SLPC  H11B21373   1.326   4.890   6.204 -1.0609 -0.7342 -0.4148
  186SLPC     P21374   1.097   5.151   6.218 -0.6630 -0.0782 -0.4593
  186SLPC   O1321375   1.183   5.270   6.199 -0.3633 -0.6263  0.1975
  186SLPC   O1421376   0.974   5.160   6.146  0.1088 -0.3008 -0.2824
  186SLPC   O1221377   1.167   5.019   6.180 -0.0017  0.1708 -0.4927
  186SLPC   O1121378   1.065   5.134   6.375 -0.6569  0.6221 -0.2972
  186SLPC    C121379   0.991   5.013   6.402  0.7115  0.4107  0.1233
  186SLPC    HA21380   0.900   5.009   6.338  0.0212  1.1211  1.0205
  186SLPC    HB21381   1.051   4.927   6.367  1.2159  1.3661 -1.4781
  186SLPC    C221382   0.954   5.011   6.550 -0.1114 -0.5968  0.3852
  186SLPC    HS21383   0.898   4.916   6.559 -0.2934 -0.7553 -1.9220
  186SLPC   O2121384   0.875   5.132   6.570 -0.4240  0.2085 -0.1611
  186SLPC   C2121385   0.781   5.114   6.666  0.6831  0.2235 -0.5162
  186SLPC   O2221386   0.764   5.009   6.725  0.0872 -0.2328  0.0605
  186SLPC   C2221387   0.708   5.249   6.688  0.3249  0.2611  0.8510
  186SLPC   H2R21388   0.725   5.314   6.600 -0.4237  1.0414  1.2599
  186SLPC   H2S21389   0.602   5.217   6.676  0.2348  1.0213 -0.5959
  186SLPC    C321390   1.079   5.010   6.647  0.0015 -0.1417  0.0884
  186SLPC    HX21391   1.140   5.100   6.621  3.0149 -2.3280 -1.0268
  186SLPC    HY21392   1.142   4.921   6.626  0.6297 -0.0357  1.4346
  186SLPC   O3121393   1.044   5.013   6.793 -0.0940  0.3403  0.1116
  186SLPC   C3121394   1.025   4.896   6.838 -0.4217 -0.1170  0.4061
  186SLPC   O3221395   1.038   4.789   6.782 -0.3150 -0.6093  0.0260
  186SLPC   C3221396   0.983   4.900   6.989  0.3559  0.6762 -0.2287
  186SLPC   H2X21397   1.079   4.887   7.044 -0.8500 -2.9463  1.3297
  186SLPC   H2Y21398   0.930   4.804   7.005  2.1574 -0.5321 -1.1466
  186SLPC   C2321399   0.734   5.325   6.819  0.0196  0.7838 -0.2081
  186SLPC   H3R21400   0.710   5.266   6.909 -0.1084 -0.2750 -0.9156
  186SLPC   H3S21401   0.678   5.420   6.827 -2.6109 -0.8356  2.2060
  186SLPC   C2421402   0.884   5.356   6.834 -0.2320 -0.1333  0.2982
  186SLPC   H4R21403   0.939   5.387   6.743 -0.3035 -2.4957 -0.6240
  186SLPC   H4S21404   0.941   5.268   6.871  2.2329 -0.1157 -2.9766
  186SLPC   C2521405   0.898   5.464   6.938 -0.9423  0.5018  0.0428
  186SLPC   H5R21406   0.824   5.450   7.020 -0.4074 -1.2679  0.2559
  186SLPC   H5S21407   0.898   5.561   6.883 -1.8770 -0.3517 -1.5257
  186SLPC   C2621408   1.031   5.448   7.015 -0.6406  0.0648 -0.3142
  186SLPC   H6R21409   1.113   5.446   6.940 -1.3418 -4.4487 -1.2426
  186SLPC   H6S21410   1.029   5.349   7.064  1.1700  0.0126 -0.2993
  186SLPC   C2721411   1.056   5.551   7.120 -0.1588 -0.3969 -0.3700
  186SLPC   H7R21412   1.032   5.643   7.063  0.6997  0.3466  0.4407
  186SLPC   H7S21413   1.166   5.556   7.135 -0.1665 -3.3188  1.4306
  186SLPC   C2821414   0.977   5.543   7.251 -0.3636  0.1547  0.8536
  186SLPC   H8R21415   0.869   5.553   7.227 -0.6222 -2.8865  0.3269
  186SLPC   H8S21416   0.999   5.637   7.306  2.5327  0.6142 -0.8752
  186SLPC   C2921417   0.996   5.430   7.338  0.1253  0.3780  0.3713
  186SLPC   H9R21418   0.968   5.328   7.307 -0.9547  0.3238  1.4156
  186SLPC  C21021419   1.062   5.436   7.458 -0.2882 -0.6880  0.6554
  186SLPC  H10R21420   1.063   5.345   7.519 -0.4976  0.2859  2.1669
  186SLPC  C21121421   1.122   5.566   7.523  0.3038  0.5721  0.1781
  186SLPC  H11R21422   1.049   5.645   7.550  0.0757 -0.0597  1.4890
  186SLPC  H11S21423   1.204   5.607   7.460  1.5813 -1.3238  0.5271
  186SLPC  C21221424   1.191   5.518   7.651 -0.0969  0.3413 -0.4306
  186SLPC  H12R21425   1.299   5.505   7.640  0.8612  3.9976  2.6111
  186SLPC  C21321426   1.135   5.513   7.774  0.3663 -0.5723  0.3728
  186SLPC  H13R21427   1.194   5.470   7.855  1.5748  0.8125  0.2730
  186SLPC  C21421428   0.995   5.543   7.819 -0.3024  0.0328  0.0608
  186SLPC  H14R21429   0.959   5.449   7.867 -0.0102  0.5663  1.3747
  186SLPC  H14S21430   0.917   5.555   7.741 -1.5585 -0.5910  1.1772
  186SLPC  C21521431   0.989   5.671   7.916  0.7246 -0.2052  0.2914
  186SLPC  H15R21432   0.894   5.710   7.957  1.3383 -0.9401  2.5917
  186SLPC  H15S21433   1.027   5.761   7.864  0.0744  0.0752  0.2954
  186SLPC  C21621434   1.084   5.672   8.040 -0.9027 -0.3630  0.0291
  186SLPC  H16R21435   1.187   5.678   7.997 -2.3647 -0.1025 -3.7982
  186SLPC  H16S21436   1.068   5.577   8.094 -3.0052  1.4773  2.9052
  186SLPC  C21721437   1.074   5.796   8.133 -0.0470  0.6663  0.3586
  186SLPC  H17R21438   0.971   5.813   8.170 -0.3296  0.8755 -0.5059
  186SLPC  H17S21439   1.102   5.883   8.069  0.2592  1.4734  1.5578
  186SLPC  C21821440   1.186   5.797   8.233  0.6229 -0.1327  0.7408
  186SLPC  H18R21441   1.172   5.714   8.305  1.2687 -0.8209  0.0831
  186SLPC  H18S21442   1.204   5.895   8.282 -3.0198  1.6829 -1.1356
  186SLPC  H18T21443   1.281   5.776   8.180 -1.1937  1.3424 -3.4956
  186SLPC   C3321444   0.889   5.012   7.025 -0.0729  0.1177 -0.2968
  186SLPC   H3X21445   0.814   5.012   6.944 -0.5388 -0.9420  0.1164
  186SLPC   H3Y21446   0.938   5.112   7.022  2.5129 -1.0693 -0.1042
  186SLPC   C3421447   0.822   4.991   7.159  0.2705  0.0250  0.3707
  186SLPC   H4X21448   0.776   4.890   7.162 -0.2328  0.2536  0.4362
  186SLPC   H4Y21449   0.745   5.070   7.172 -0.0752 -0.0444 -1.0146
  186SLPC   C3521450   0.912   5.007   7.282 -0.5269  0.3775  0.2455
  186SLPC   H5X21451   0.979   5.096   7.271  1.2571 -0.5546  2.7463
  186SLPC   H5Y21452   0.978   4.918   7.280  0.7247  1.2640  0.5440
  186SLPC   C3621453   0.834   5.026   7.423 -0.5523 -0.0276  0.1663
  186SLPC   H6X21454   0.752   5.100   7.411 -1.7708 -1.5250 -1.2723
  186SLPC   H6Y21455   0.906   5.065   7.499 -1.3590  2.7731 -0.3834
  186SLPC   C3721456   0.783   4.882   7.453 -0.3552  0.3584  0.1520
  186SLPC   H7X21457   0.864   4.808   7.438 -0.3063  0.7355 -1.6962
  186SLPC   H7Y21458   0.710   4.861   7.371  0.2254  1.2217 -0.6141
  186SLPC   C3821459   0.719   4.875   7.591 -0.1010  0.0471 -0.4421
  186SLPC   H8X21460   0.615   4.912   7.578 -1.1231 -2.5430 -0.2466
  186SLPC   H8Y21461   0.763   4.947   7.664  0.2037 -1.5643  1.0317
  186SLPC   C3921462   0.722   4.734   7.654 -0.1982  0.0405  0.4263
  186SLPC   H9X21463   0.824   4.691   7.649 -0.6874 -1.0455 -1.1085
  186SLPC   H9Y21464   0.669   4.662   7.588 -1.0086  0.6836  0.3446
  186SLPC  C31021465   0.663   4.738   7.797  0.0953 -0.1129  0.0660
  186SLPC  H10X21466   0.553   4.747   7.786 -0.0345 -0.4586  0.9813
  186SLPC  H10Y21467   0.699   4.830   7.846 -0.7652 -0.5344  1.5298
  186SLPC  C31121468   0.691   4.619   7.885 -0.1547 -0.3250  0.3287
  186SLPC  H11X21469   0.800   4.598   7.891 -0.1824 -1.2945 -1.5684
  186SLPC  H11Y21470   0.653   4.530   7.830  0.0246  0.1010 -0.5089
  186SLPC  C31221471   0.629   4.621   8.021 -0.0016 -0.4777  1.1873
  186SLPC  H12X21472   0.643   4.721   8.067  2.7010 -1.1319  1.9736
  186SLPC  H12Y21473   0.669   4.539   8.085 -0.9789  0.4329  3.0151
  186SLPC  C31321474   0.473   4.584   8.032  0.6502  0.1548  0.1263
  186SLPC  H13X21475   0.453   4.479   8.002 -0.2756  0.4195 -0.2203
  186SLPC  H13Y21476   0.412   4.647   7.964  2.0114  1.0456 -0.3105
  186SLPC  C31421477   0.427   4.604   8.169 -0.2983  0.2384 -0.3385
  186SLPC  H14X21478   0.437   4.712   8.194 -1.9786  0.5644 -0.9198
  186SLPC  H14Y21479   0.490   4.554   8.246 -0.4401  1.8493  0.8792
  186SLPC  C31521480   0.278   4.564   8.188  0.0048  0.0517 -0.0621
  186SLPC  H15X21481   0.270   4.458   8.157  1.7112  0.2840 -1.4667
  186SLPC  H15Y21482   0.213   4.612   8.111  0.1158  0.1699 -0.0819
  186SLPC  C31621483   0.215   4.584   8.323  0.1677 -0.2692  0.3075
  186SLPC  H16X21484   0.193   4.692   8.333  1.3105 -0.1621  2.2134
  186SLPC  H16Y21485   0.293   4.552   8.396  0.8572  0.7636  0.0490
  186SLPC  C31721486   0.079   4.516   8.343 -0.4395  0.0483 -0.4347
  186SLPC  H17X21487   0.086   4.406   8.324 -1.5602 -0.1895  0.4377
  186SLPC  H17Y21488   0.007   4.542   8.263 -1.4413 -0.6922  0.1997
  186SLPC  C31821489   0.012   4.554   8.479  0.2154 -0.2651  0.2272
  186SLPC  H18X21490  -0.087   4.505   8.481 -0.8247  1.6121 -1.3813
  186SLPC  H18Y21491  -0.008   4.663   8.488 -2.5367 -0.6289 -0.6299
  186SLPC  H18Z21492   0.057   4.514   8.572 -1.2472 -0.8270  0.7252
  187SLPC     N21493   1.371   3.317   6.268 -0.4208  0.1417 -0.1288
  187SLPC   C1321494   1.498   3.334   6.344 -0.4665  0.4865  0.3898
  187SLPC  H13A21495   1.494   3.420   6.409 -2.7481  0.7688 -0.0199
  187SLPC  H13B21496   1.511   3.246   6.405  0.6087  0.7764  0.6014
  187SLPC  H13C21497   1.582   3.342   6.277  0.6971  0.0317  1.7600
  187SLPC   C1421498   1.387   3.201   6.183 -0.4498  0.2507  0.2045
  187SLPC  H14A21499   1.300   3.191   6.119  0.5230 -1.0587 -0.9865
  187SLPC  H14B21500   1.477   3.206   6.123 -0.0554 -0.9828  0.6616
  187SLPC  H14C21501   1.403   3.117   6.249  1.3278 -0.4347 -1.0104
  187SLPC   C1521502   1.359   3.443   6.194  0.6925 -0.0556 -0.3836
  187SLPC  H15A21503   1.262   3.452   6.148 -0.1913 -0.8863  1.2095
  187SLPC  H15B21504   1.357   3.524   6.266  2.5240  0.2795 -0.6702
  187SLPC  H15C21505   1.442   3.462   6.128  1.0756  1.4668  0.4898
  187SLPC   C1221506   1.248   3.301   6.359 -1.1247 -0.5341 -0.3497
  187SLPC  H12A21507   1.156   3.298   6.302 -2.1731  1.7292  1.0747
  187SLPC  H12B21508   1.244   3.399   6.404  0.7610  0.0425 -1.3419
  187SLPC   C1121509   1.244   3.194   6.470  0.5449 -0.3197  0.0604
  187SLPC  H11A21510   1.339   3.204   6.527  0.9866  0.0601 -0.7411
  187SLPC  H11B21511   1.233   3.092   6.427  0.7440 -0.1888 -0.3038
  187SLPC     P21512   0.990   3.192   6.513  0.2438  0.0022  0.4102
  187SLPC   O1321513   0.903   3.302   6.568  0.5108  0.5427 -0.5922
  187SLPC   O1421514   0.977   3.180   6.365 -0.0982 -0.2189 -0.0269
  187SLPC   O1221515   1.134   3.229   6.561 -0.2431  0.4207  0.0949
  187SLPC   O1121516   0.953   3.059   6.595  0.0976  0.1670 -0.4624
  187SLPC    C121517   0.943   3.060   6.735 -0.0215  0.0583 -0.1536
  187SLPC    HA21518   0.984   2.969   6.785  1.1266  1.3946  1.4587
  187SLPC    HB21519   1.001   3.140   6.786  0.7817 -1.0002  0.6331
  187SLPC    C221520   0.792   3.082   6.772  0.5642  0.3292 -0.2329
  187SLPC    HS21521   0.760   3.182   6.735 -0.4791 -0.3917 -1.3361
  187SLPC   O2121522   0.771   3.061   6.919 -0.3818 -0.3310  0.3786
  187SLPC   C2121523   0.796   3.172   6.990 -0.9547  0.3450  0.2167
  187SLPC   O2221524   0.845   3.271   6.951 -0.4217 -0.7316  0.3889
  187SLPC   C2221525   0.770   3.128   7.137  0.2707  0.2680  0.1011
  187SLPC   H2R21526   0.675   3.071   7.126 -1.3506  2.9339 -0.6521
  187SLPC   H2S21527   0.852   3.061   7.170  0.6297  0.6870  0.0697
  187SLPC    C321528   0.701   2.991   6.690 -0.0015  0.0257 -0.4133
  187SLPC    HX21529   0.715   2.997   6.580  1.2995  2.1820 -0.1682
  187SLPC    HY21530   0.601   3.037   6.701  1.2980  2.4738  2.2541
  187SLPC   O3121531   0.708   2.848   6.722 -0.0695 -0.4507  0.1165
  187SLPC   C3121532   0.612   2.809   6.801 -0.2065 -0.1530 -0.5140
  187SLPC   O3221533   0.526   2.888   6.842  0.2552  0.3424 -0.1560
  187SLPC   C3221534   0.642   2.669   6.856  0.2773 -0.3213  0.7151
  187SLPC   H2X21535   0.686   2.601   6.780  0.3794 -2.1538  2.3335
  187SLPC   H2Y21536   0.544   2.623   6.882 -0.8837  0.5275 -1.8122
  187SLPC   C2321537   0.752   3.250   7.231 -0.3752  0.0969 -0.0675
  187SLPC   H3R21538   0.675   3.318   7.188 -1.9402 -0.5935  1.5299
  187SLPC   H3S21539   0.842   3.315   7.236 -1.3668  1.9518 -3.2408
  187SLPC   C2421540   0.711   3.206   7.372  0.5281  0.3648  0.7623
  187SLPC   H4R21541   0.798   3.160   7.423  0.6428 -1.9495 -1.2983
  187SLPC   H4S21542   0.639   3.122   7.366  1.3141 -0.2618 -0.2660
  187SLPC   C2521543   0.665   3.327   7.450  0.8469  0.1038  0.0226
  187SLPC   H5R21544   0.572   3.369   7.406 -0.9818 -2.9271  0.7011
  187SLPC   H5S21545   0.749   3.399   7.459  2.2192 -1.4457  0.1668
  187SLPC   C2621546   0.641   3.301   7.602  0.1124  0.4195 -0.0615
  187SLPC   H6R21547   0.602   3.399   7.636 -0.6482 -0.1581  0.7751
  187SLPC   H6S21548   0.735   3.276   7.655 -1.7524 -5.1372  1.2962
  187SLPC   C2721549   0.533   3.199   7.632  0.2665  0.4950 -0.3494
  187SLPC   H7R21550   0.477   3.192   7.537  0.4858 -0.1587 -0.4383
  187SLPC   H7S21551   0.464   3.243   7.707 -0.4058 -1.6227  0.3536
  187SLPC   C2821552   0.583   3.062   7.673  0.0401  0.2039 -0.1731
  187SLPC   H8R21553   0.666   3.041   7.603  0.8392 -0.7423  1.0113
  187SLPC   H8S21554   0.500   2.991   7.653  0.7007  0.0523 -2.6113
  187SLPC   C2921555   0.637   3.043   7.816  0.6378 -0.1761 -0.0006
  187SLPC   H9R21556   0.716   3.111   7.851 -1.3335  1.1231  2.2553
  187SLPC  C21021557   0.594   2.974   7.926  0.1568 -0.0603  0.2290
  187SLPC  H10R21558   0.652   2.982   8.019  0.7117  1.4088 -0.2114
  187SLPC  C21121559   0.473   2.885   7.936 -0.5986  0.1517  0.5559
  187SLPC  H11R21560   0.501   2.784   7.899 -0.4562  0.5064 -0.3260
  187SLPC  H11S21561   0.398   2.903   7.855  0.1573 -4.0333 -1.3558
  187SLPC  C21221562   0.399   2.882   8.072  0.9656 -0.4918  0.2895
  187SLPC  H12R21563   0.415   2.796   8.139 -1.3180 -0.3885  1.0603
  187SLPC  C21321564   0.312   2.983   8.105  0.0720  1.0189  0.6522
  187SLPC  H13R21565   0.281   2.993   8.210  2.9727 -0.1781  1.7241
  187SLPC  C21421566   0.268   3.104   8.017 -0.3773 -0.0441  0.0154
  187SLPC  H14R21567   0.279   3.079   7.910 -2.7261 -1.9850  0.1414
  187SLPC  H14S21568   0.335   3.190   8.040 -1.1350  0.0571  2.1077
  187SLPC  C21521569   0.127   3.144   8.054  0.3572 -0.3794  0.7248
  187SLPC  H15R21570   0.115   3.248   8.018  2.1497  0.5580  2.5753
  187SLPC  H15S21571   0.119   3.153   8.165 -0.2259 -1.8964  0.8265
  187SLPC  C21621572   0.009   3.059   8.005  0.1846 -0.2190  0.3865
  187SLPC  H16R21573   0.044   2.955   7.984 -1.5071 -0.9827  1.1236
  187SLPC  H16S21574  -0.035   3.092   7.909 -1.7655 -0.7742  1.0352
  187SLPC  C21721575  -0.116   3.050   8.098 -0.5288  0.1734  0.4635
  187SLPC  H17R21576  -0.071   3.003   8.188 -0.1911  3.1414  1.9783
  187SLPC  H17S21577  -0.184   2.973   8.057  2.0017 -0.9682 -1.8965
  187SLPC  C21821578  -0.179   3.184   8.107  0.2442 -0.3465  0.2671
  187SLPC  H18R21579  -0.113   3.246   8.171  0.9740 -1.4778  0.6354
  187SLPC  H18S21580  -0.281   3.178   8.150  0.0220  1.0130 -0.0070
  187SLPC  H18T21581  -0.189   3.229   8.006 -1.7196 -0.2352  0.4675
  187SLPC   C3321582   0.734   2.672   6.979  0.6541  0.1859 -0.6866
  187SLPC   H3X21583   0.822   2.736   6.962  1.4236 -0.3674  0.9712
  187SLPC   H3Y21584   0.767   2.567   6.998  0.8972  0.0212 -1.9377
  187SLPC   C3421585   0.660   2.728   7.102  0.3546 -0.6243 -0.5310
  187SLPC   H4X21586   0.576   2.656   7.116  1.6985 -2.2783 -0.6298
  187SLPC   H4Y21587   0.622   2.828   7.074 -1.7082 -1.5354 -1.1985
  187SLPC   C3521588   0.745   2.747   7.219 -0.4696  0.8365 -0.2751
  187SLPC   H5X21589   0.821   2.826   7.198 -0.4577  0.3222 -2.4959
  187SLPC   H5Y21590   0.808   2.657   7.236  0.5072  1.5531 -0.0005
  187SLPC   C3621591   0.668   2.788   7.339 -0.1219 -0.0674 -0.8336
  187SLPC   H6X21592   0.593   2.867   7.315  1.5015  0.7453 -3.6413
  187SLPC   H6Y21593   0.734   2.831   7.417  1.4773 -2.0364 -1.0289
  187SLPC   C3721594   0.604   2.669   7.411 -0.0357  0.6799 -0.0618
  187SLPC   H7X21595   0.544   2.610   7.339  1.5066 -0.2458 -0.6518
  187SLPC   H7Y21596   0.687   2.601   7.441 -0.1710  1.3172  1.9402
  187SLPC   C3821597   0.542   2.703   7.541 -0.4342  0.2539  0.1539
  187SLPC   H8X21598   0.449   2.764   7.533 -2.0847 -1.8278  2.2220
  187SLPC   H8Y21599   0.611   2.762   7.605  0.6602 -0.9972  0.1440
  187SLPC   C3921600   0.493   2.591   7.635  0.3359 -0.2421 -0.8195
  187SLPC   H9X21601   0.450   2.503   7.582  2.8646 -2.4843  0.5652
  187SLPC   H9Y21602   0.411   2.622   7.702  0.6498 -2.9674  1.0020
  187SLPC  C31021603   0.609   2.534   7.719 -0.2115 -0.0910 -0.2126
  187SLPC  H10X21604   0.642   2.603   7.799 -2.5444  2.8158 -1.5758
  187SLPC  H10Y21605   0.691   2.510   7.648  0.9474  1.0922  0.6756
  187SLPC  C31121606   0.576   2.398   7.781  0.4646 -0.3944  0.4350
  187SLPC  H11X21607   0.566   2.334   7.691 -1.0824  0.4709 -0.0420
  187SLPC  H11Y21608   0.480   2.396   7.836 -0.3920 -1.4393 -1.0386
  187SLPC  C31221609   0.690   2.347   7.867 -0.8771  0.3589 -0.4515
  187SLPC  H12X21610   0.703   2.413   7.955  0.4762  1.6508 -1.5705
  187SLPC  H12Y21611   0.785   2.368   7.813 -0.7925 -2.1719 -1.4003
  187SLPC  C31321612   0.684   2.199   7.904  0.2734  0.2151 -0.1742
  187SLPC  H13X21613   0.779   2.177   7.956 -0.2751  1.4261  1.3928
  187SLPC  H13Y21614   0.683   2.128   7.818  1.4973 -2.7439  2.0783
  187SLPC  C31421615   0.566   2.164   8.001 -0.6752  0.7202  0.0090
  187SLPC  H14X21616   0.566   2.054   8.014  0.7023  0.4041 -2.1067
  187SLPC  H14Y21617   0.480   2.176   7.932 -0.5050 -2.6421 -0.9699
  187SLPC  C31521618   0.548   2.237   8.131 -0.1963 -0.7531 -0.7394
  187SLPC  H15X21619   0.584   2.340   8.113  2.3682 -1.4338  0.0669
  187SLPC  H15Y21620   0.605   2.189   8.213  0.8600  2.3879  0.4962
  187SLPC  C31621621   0.399   2.242   8.186 -0.8992  0.3538 -0.1478
  187SLPC  H16X21622   0.365   2.137   8.197 -1.9518  0.8272  1.4774
  187SLPC  H16Y21623   0.338   2.293   8.108 -3.8039 -0.4752  1.4247
  187SLPC  C31721624   0.379   2.318   8.315  0.1499 -0.4097  0.3719
  187SLPC  H17X21625   0.465   2.310   8.385  0.6575  2.3759  0.1908
  187SLPC  H17Y21626   0.285   2.287   8.365 -0.6300  0.1771 -0.7009
  187SLPC  C31821627   0.359   2.471   8.299 -0.1690  0.4798 -0.3430
  187SLPC  H18X21628   0.357   2.505   8.404 -0.5720 -1.2572  0.2433
  187SLPC  H18Y21629   0.262   2.505   8.259 -1.9678 -1.1838  2.2759
  187SLPC  H18Z21630   0.447   2.529   8.263  1.4443 -0.7283  1.4647
  188SLPC     N21631   2.678   3.728   6.098  0.0939 -0.2470  0.2632
  188SLPC   C1321632   2.672   3.576   6.116  0.4813  0.9874  0.7271
  188SLPC  H13A21633   2.625   3.530   6.030 -1.0971  3.8674 -0.0738
  188SLPC  H13B21634   2.768   3.535   6.145  0.2709 -0.9445 -1.0243
  188SLPC  H13C21635   2.601   3.552   6.193 -0.4109 -1.2999 -0.6715
  188SLPC   C1421636   2.546   3.770   6.046 -0.2135  0.7728 -0.0122
  188SLPC  H14A21637   2.499   3.685   6.000  0.6126  0.4829 -0.3263
  188SLPC  H14B21638   2.482   3.794   6.130  2.1737  2.0575  1.5386
  188SLPC  H14C21639   2.547   3.851   5.974  2.7816  0.5718 -0.3102
  188SLPC   C1521640   2.785   3.753   6.005 -0.4384  0.3808 -0.2037
  188SLPC  H15A21641   2.880   3.719   6.044 -1.0314  1.0482  1.9424
  188SLPC  H15B21642   2.767   3.704   5.911  0.0341  0.8336 -0.5358
  188SLPC  H15C21643   2.796   3.859   5.991 -0.5010  0.3196 -0.7425
  188SLPC   C1221644   2.715   3.795   6.228  0.7977  0.2203 -0.6755
  188SLPC  H12A21645   2.713   3.902   6.214 -0.8556  0.2927 -0.0853
  188SLPC  H12B21646   2.815   3.774   6.265  0.4688  1.4886  1.0686
  188SLPC   C1121647   2.628   3.768   6.347  0.1087  0.4518 -0.6318
  188SLPC  H11A21648   2.667   3.790   6.449 -2.3931 -1.0223  0.7356
  188SLPC  H11B21649   2.601   3.661   6.362  1.4276  0.3015  1.0951
  188SLPC     P21650   2.483   3.995   6.352  0.4838 -0.1413 -0.0156
  188SLPC   O1321651   2.605   4.073   6.319 -0.0288 -0.1385  1.0254
  188SLPC   O1421652   2.357   4.029   6.281  0.5347  0.0141  0.0753
  188SLPC   O1221653   2.505   3.839   6.340  0.2340 -0.1453  0.4962
  188SLPC   O1121654   2.461   4.019   6.507 -0.1196  0.8916 -0.1678
  188SLPC    C121655   2.371   3.921   6.567  0.4271 -0.3874  0.6825
  188SLPC    HA21656   2.291   3.883   6.500  0.5603 -0.1856  0.4070
  188SLPC    HB21657   2.424   3.834   6.610 -0.4904 -2.8747 -2.7446
  188SLPC    C221658   2.298   3.997   6.683 -0.3387  0.5164 -1.1108
  188SLPC    HS21659   2.248   4.087   6.639 -0.8082  0.5693 -0.4887
  188SLPC   O2121660   2.400   4.027   6.781  0.2453 -0.5006  0.0119
  188SLPC   C2121661   2.364   4.118   6.875  0.3826  0.0455  0.3664
  188SLPC   O2221662   2.256   4.175   6.885  0.2174 -0.0651 -0.0006
  188SLPC   C2221663   2.480   4.118   6.975 -0.1490 -0.0750 -0.6161
  188SLPC   H2R21664   2.478   4.017   7.022 -1.7877  0.8631  1.4792
  188SLPC   H2S21665   2.585   4.131   6.939 -0.2716 -0.0142 -0.9552
  188SLPC    C321666   2.169   3.920   6.745  0.0179  0.1134  0.8644
  188SLPC    HX21667   2.089   3.914   6.669  0.4177 -1.3853  0.5139
  188SLPC    HY21668   2.129   3.986   6.825  0.4382 -0.9369  1.9835
  188SLPC   O3121669   2.200   3.793   6.812 -0.0068  0.0451  0.0620
  188SLPC   C3121670   2.097   3.706   6.825 -0.2333 -0.2970 -0.2641
  188SLPC   O3221671   1.978   3.725   6.809 -0.2881 -0.1119 -0.4822
  188SLPC   C3221672   2.159   3.566   6.859  0.1855 -0.4841 -0.5449
  188SLPC   H2X21673   2.268   3.577   6.842  0.5918 -1.6872  1.0380
  188SLPC   H2Y21674   2.118   3.497   6.782 -1.3328  0.6247 -0.7884
  188SLPC   C2321675   2.471   4.223   7.093  0.0558 -0.2200  0.7567
  188SLPC   H3R21676   2.375   4.216   7.147 -1.8984  0.1169 -2.3970
  188SLPC   H3S21677   2.477   4.329   7.060  3.0538  0.0347  1.7933
  188SLPC   C2421678   2.582   4.207   7.188  0.0815 -0.2578 -0.3535
  188SLPC   H4R21679   2.672   4.241   7.132 -1.2448  2.7901 -0.8205
  188SLPC   H4S21680   2.589   4.102   7.224  0.4886  0.2369  1.0718
  188SLPC   C2521681   2.555   4.299   7.311  0.0043  0.2620  0.9195
  188SLPC   H5R21682   2.447   4.284   7.336 -0.3134  2.7457  1.2613
  188SLPC   H5S21683   2.556   4.405   7.278 -2.1791 -0.3271 -1.3808
  188SLPC   C2621684   2.640   4.268   7.437  0.6147 -0.0380  0.2974
  188SLPC   H6R21685   2.748   4.286   7.415  0.8963 -3.4311 -1.9424
  188SLPC   H6S21686   2.638   4.159   7.460  1.6469 -0.5999 -1.9828
  188SLPC   C2721687   2.590   4.347   7.564 -0.2351  0.3622  0.8096
  188SLPC   H7R21688   2.489   4.310   7.592 -0.2059 -0.7579 -0.4469
  188SLPC   H7S21689   2.581   4.454   7.535 -1.8655  0.1657  0.4843
  188SLPC   C2821690   2.689   4.334   7.674 -0.0899  0.4868  0.1506
  188SLPC   H8R21691   2.773   4.406   7.661 -0.7904  1.3844  0.5818
  188SLPC   H8S21692   2.727   4.229   7.664 -0.4209  0.1109  2.3989
  188SLPC   C2921693   2.621   4.336   7.811 -0.4028  0.0789  0.0694
  188SLPC   H9R21694   2.523   4.385   7.813 -0.1521  0.5861  0.4679
  188SLPC  C21021695   2.675   4.298   7.929 -0.9740 -0.2081  0.0938
  188SLPC  H10R21696   2.612   4.284   8.018  0.7080 -0.5871  1.2743
  188SLPC  C21121697   2.817   4.242   7.954 -0.4994  0.3369 -0.3034
  188SLPC  H11R21698   2.845   4.240   8.062 -1.8297  0.0117  0.0562
  188SLPC  H11S21699   2.890   4.313   7.909  0.8331 -0.5707  0.3474
  188SLPC  C21221700   2.844   4.104   7.897  0.3098 -0.4245 -0.1293
  188SLPC  H12R21701   2.751   4.050   7.874  0.1003 -0.7912  1.4864
  188SLPC  C21321702   2.953   4.042   7.867  0.4356  0.0702 -0.0288
  188SLPC  H13R21703   2.943   3.938   7.832  0.5594  0.0546 -0.0175
  188SLPC  C21421704   3.092   4.086   7.870  0.5398 -0.0330  1.0021
  188SLPC  H14R21705   3.127   4.098   7.975  1.5730  1.8781  0.4796
  188SLPC  H14S21706   3.099   4.183   7.817  0.2197 -1.4845 -1.8731
  188SLPC  C21521707   3.180   3.992   7.786  1.1281 -0.5030  0.1112
  188SLPC  H15R21708   3.173   4.004   7.676 -0.6959 -1.4061  0.1027
  188SLPC  H15S21709   3.142   3.889   7.802  1.7338 -0.7859 -0.2034
  188SLPC  C21621710   3.324   3.989   7.832 -0.2224  0.2119 -0.4846
  188SLPC  H16R21711   3.328   3.966   7.941 -2.4789  0.4501 -0.2976
  188SLPC  H16S21712   3.377   4.086   7.824  0.3130  0.0171  0.5004
  188SLPC  C21721713   3.421   3.893   7.765 -0.2375  0.1203 -0.1584
  188SLPC  H17R21714   3.397   3.786   7.786 -2.4799  0.5625 -0.1806
  188SLPC  H17S21715   3.520   3.924   7.804  0.7329 -0.2064 -2.2180
  188SLPC  C21821716   3.446   3.909   7.617 -0.0432  0.2866 -0.3925
  188SLPC  H18R21717   3.481   4.008   7.582 -2.0622  0.1240 -3.2544
  188SLPC  H18S21718   3.350   3.888   7.564 -1.3790  1.8310  1.2530
  188SLPC  H18T21719   3.521   3.836   7.580  1.4344  1.4910  0.1397
  188SLPC   C3321720   2.127   3.514   6.994 -0.5082 -0.7660 -0.0653
  188SLPC   H3X21721   2.176   3.416   7.012  0.3837 -0.3940 -0.3665
  188SLPC   H3Y21722   2.018   3.497   7.000 -0.7213  0.5058  0.0255
  188SLPC   C3421723   2.174   3.600   7.109 -0.2910  0.4803 -0.1555
  188SLPC   H4X21724   2.118   3.696   7.112 -2.8383 -0.9078 -0.2682
  188SLPC   H4Y21725   2.282   3.621   7.094  0.3664 -1.1666  1.7260
  188SLPC   C3521726   2.139   3.518   7.241 -0.0541 -0.6359  0.4949
  188SLPC   H5X21727   2.183   3.417   7.225 -0.1794 -0.7750  1.0209
  188SLPC   H5Y21728   2.029   3.505   7.242 -0.2299  0.1590 -1.8469
  188SLPC   C3621729   2.191   3.592   7.363  0.1822 -0.7813 -0.0683
  188SLPC   H6X21730   2.139   3.690   7.366  0.0321 -0.8612 -0.0195
  188SLPC   H6Y21731   2.292   3.627   7.335  0.4417  1.3868  3.1403
  188SLPC   C3721732   2.185   3.505   7.486  0.3479  0.0508  0.1849
  188SLPC   H7X21733   2.260   3.423   7.484  0.3782  0.0237 -3.2771
  188SLPC   H7Y21734   2.084   3.463   7.503  0.5684 -1.6677 -2.1645
  188SLPC   C3821735   2.216   3.593   7.608 -0.0880  0.2154  0.0373
  188SLPC   H8X21736   2.132   3.662   7.631  0.0630  0.3686  0.1316
  188SLPC   H8Y21737   2.306   3.656   7.596 -0.1603  0.2603 -0.2723
  188SLPC   C3921738   2.253   3.502   7.727 -0.1735 -0.1999 -0.2389
  188SLPC   H9X21739   2.348   3.453   7.697  1.6296  2.5819  0.5571
  188SLPC   H9Y21740   2.171   3.427   7.732 -0.1592 -0.3441 -1.6439
  188SLPC  C31021741   2.271   3.575   7.864 -0.1863  0.0334 -0.2751
  188SLPC  H10X21742   2.177   3.630   7.889  1.0129  1.4319  1.4442
  188SLPC  H10Y21743   2.350   3.653   7.859 -1.1570  1.2625  1.9015
  188SLPC  C31121744   2.296   3.472   7.979  0.0424  0.6113 -0.1275
  188SLPC  H11X21745   2.402   3.438   7.970 -0.4084 -1.2722  1.1124
  188SLPC  H11Y21746   2.226   3.388   7.962 -0.4538  1.0003 -0.0263
  188SLPC  C31221747   2.269   3.523   8.117 -0.2050  0.3158  0.2143
  188SLPC  H12X21748   2.161   3.547   8.122 -0.7186 -1.5755 -0.7795
  188SLPC  H12Y21749   2.338   3.607   8.140 -0.0780  0.2965 -0.0927
  188SLPC  C31321750   2.298   3.413   8.212  0.4497 -0.2532 -0.0794
  188SLPC  H13X21751   2.401   3.380   8.186  1.9962  2.7269  1.7797
  188SLPC  H13Y21752   2.223   3.331   8.204 -0.5249  0.3188  2.4020
  188SLPC  C31421753   2.292   3.460   8.356 -0.4260  0.4930 -0.6125
  188SLPC  H14X21754   2.275   3.368   8.415  0.1322  0.7462 -0.0460
  188SLPC  H14Y21755   2.201   3.523   8.367 -0.1843  0.9378 -1.1247
  188SLPC  C31521756   2.405   3.540   8.418  0.4018 -0.1372 -0.1376
  188SLPC  H15X21757   2.379   3.572   8.521  0.1934 -0.4762 -0.0842
  188SLPC  H15Y21758   2.422   3.625   8.348  2.6715 -1.3842 -1.2123
  188SLPC  C31621759   2.533   3.466   8.422 -0.2261  0.5018  0.9553
  188SLPC  H16X21760   2.547   3.433   8.316 -1.4188  0.7664  0.6956
  188SLPC  H16Y21761   2.521   3.375   8.485 -3.9115 -0.1747 -0.4517
  188SLPC  C31721762   2.653   3.550   8.464  0.3462 -0.1414 -0.8010
  188SLPC  H17X21763   2.643   3.637   8.396  0.9117  1.0370  0.5698
  188SLPC  H17Y21764   2.750   3.504   8.437  0.2214  0.6416 -2.7315
  188SLPC  C31821765   2.662   3.588   8.615 -0.2846 -0.4133  0.0715
  188SLPC  H18X21766   2.675   3.494   8.672 -1.0740 -0.3482  0.3732
  188SLPC  H18Y21767   2.564   3.628   8.649  0.0757 -0.1194  0.7667
  188SLPC  H18Z21768   2.751   3.652   8.632 -2.4235  3.0394 -0.7787
  189SLPC     N21769   4.898   6.808   5.976  0.0556 -0.4746 -0.0631
  189SLPC   C1321770   5.019   6.843   5.898  0.1849 -0.5053  0.0106
  189SLPC  H13A21771   4.991   6.870   5.798  0.4475  0.0220  0.0780
  189SLPC  H13B21772   5.069   6.925   5.948 -2.3403 -0.2027  2.2522
  189SLPC  H13C21773   5.088   6.760   5.898 -0.3895 -1.0087  1.0280
  189SLPC   C1421774   4.826   6.698   5.909  0.7111 -0.3436 -0.8568
  189SLPC  H14A21775   4.796   6.728   5.810  0.3678  2.3678 -0.0297
  189SLPC  H14B21776   4.900   6.620   5.900 -0.0971 -1.5038  1.6613
  189SLPC  H14C21777   4.743   6.673   5.974  0.5522  1.3674 -0.3430
  189SLPC   C1521778   4.810   6.939   5.974 -0.4968  0.4051 -0.2376
  189SLPC  H15A21779   4.746   6.927   6.060 -0.3860 -2.3927 -0.4571
  189SLPC  H15B21780   4.878   7.022   5.982 -0.0223  0.1783 -1.5436
  189SLPC  H15C21781   4.759   6.939   5.878 -0.4080  2.1246 -0.3159
  189SLPC   C1221782   4.933   6.765   6.118 -0.8589  0.4392 -0.7299
  189SLPC  H12A21783   5.000   6.834   6.165 -1.2222  2.2134 -2.6519
  189SLPC  H12B21784   4.997   6.679   6.105  0.3332  1.1727  0.1472
  189SLPC   C1121785   4.824   6.726   6.216  0.3548  0.5474 -0.2752
  189SLPC  H11A21786   4.774   6.814   6.262 -1.0474 -0.5768  0.4523
  189SLPC  H11B21787   4.881   6.684   6.302  0.6662  0.5485 -0.4811
  189SLPC     P21788   4.688   6.504   6.241  0.4594 -0.1848 -0.1655
  189SLPC   O1321789   4.557   6.446   6.196  0.0168  0.2834  0.5366
  189SLPC   O1421790   4.808   6.414   6.241 -0.1552  0.6967  0.3783
  189SLPC   O1221791   4.734   6.630   6.171  0.2998 -0.9615 -0.0771
  189SLPC   O1121792   4.672   6.561   6.389 -1.1407  0.6618  0.0660
  189SLPC    C121793   4.576   6.673   6.414 -0.3182 -0.3746  0.4607
  189SLPC    HA21794   4.633   6.755   6.462  0.5132  0.2593 -1.4802
  189SLPC    HB21795   4.531   6.708   6.318  1.1673 -2.4736 -1.1119
  189SLPC    C221796   4.454   6.633   6.507 -0.3375 -0.3869  0.5273
  189SLPC    HS21797   4.394   6.725   6.521  0.4106  0.0279  1.1187
  189SLPC   O2121798   4.492   6.582   6.640  0.4643 -0.4325  0.2696
  189SLPC   C2121799   4.511   6.686   6.736  0.1493  0.2884  0.4503
  189SLPC   O2221800   4.516   6.806   6.712 -0.4545  0.2748 -0.0201
  189SLPC   C2221801   4.535   6.623   6.873  0.1918 -0.7117 -0.7762
  189SLPC   H2R21802   4.622   6.672   6.921 -1.1225  1.1485 -0.1817
  189SLPC   H2S21803   4.439   6.644   6.925 -3.0792 -3.8463 -4.8543
  189SLPC    C321804   4.356   6.528   6.437  0.1000  0.3289 -0.4850
  189SLPC    HX21805   4.410   6.443   6.391 -0.0206  0.2852 -0.5465
  189SLPC    HY21806   4.327   6.588   6.348 -0.3236 -0.7018 -1.0538
  189SLPC   O3121807   4.249   6.511   6.534  0.3513 -0.1145  0.6074
  189SLPC   C3121808   4.257   6.400   6.606  0.4248  0.1910  0.2484
  189SLPC   O3221809   4.359   6.329   6.604  0.3392 -0.2099 -0.1502
  189SLPC   C3221810   4.127   6.363   6.680 -0.0633  0.5425  0.1515
  189SLPC   H2X21811   4.089   6.274   6.625  1.3263 -1.6743  2.5520
  189SLPC   H2Y21812   4.053   6.446   6.675  0.9906  1.7512  2.7425
  189SLPC   C2321813   4.552   6.469   6.889 -0.1421  0.0071 -0.0882
  189SLPC   H3R21814   4.641   6.443   6.828 -1.6660 -1.8476 -1.6493
  189SLPC   H3S21815   4.468   6.433   6.825 -1.7413  0.2535  1.7660
  189SLPC   C2421816   4.554   6.400   7.023  0.3613  0.2512 -0.1708
  189SLPC   H4R21817   4.578   6.292   7.018 -0.6714 -0.0034  0.1336
  189SLPC   H4S21818   4.449   6.402   7.061  1.2593 -0.6502  2.6851
  189SLPC   C2521819   4.656   6.464   7.125  0.3749 -0.6565  0.3395
  189SLPC   H5R21820   4.601   6.557   7.153  1.0760 -0.1152 -0.0549
  189SLPC   H5S21821   4.750   6.492   7.073  0.1150 -1.5274 -0.6546
  189SLPC   C2621822   4.690   6.376   7.246  0.4319  0.7004 -0.4833
  189SLPC   H6R21823   4.763   6.306   7.199  0.4955  1.4094 -1.4739
  189SLPC   H6S21824   4.604   6.312   7.275  1.1419 -0.3388 -0.6195
  189SLPC   C2721825   4.746   6.448   7.369  0.6867 -0.7556  0.2368
  189SLPC   H7R21826   4.655   6.489   7.418  1.0946  2.0041 -1.1485
  189SLPC   H7S21827   4.804   6.538   7.343 -3.4865  2.6429  1.4756
  189SLPC   C2821828   4.843   6.356   7.435  0.5796 -0.5687 -0.7752
  189SLPC   H8R21829   4.941   6.342   7.385  1.0472  1.5064 -0.5410
  189SLPC   H8S21830   4.795   6.257   7.449 -1.7278  0.8677  3.7391
  189SLPC   C2921831   4.874   6.414   7.575  0.0728  0.2773  0.0905
  189SLPC   H9R21832   4.956   6.488   7.573 -1.3148  1.8591 -2.1261
  189SLPC  C21021833   4.808   6.383   7.691 -0.8268 -0.2384  0.2805
  189SLPC  H10R21834   4.840   6.440   7.780 -1.8049  0.8628 -0.0481
  189SLPC  C21121835   4.686   6.289   7.700 -0.3333 -0.0917  0.0243
  189SLPC  H11R21836   4.695   6.229   7.793  0.0795 -0.6106 -0.3439
  189SLPC  H11S21837   4.693   6.207   7.625 -3.6403  0.2074 -0.7843
  189SLPC  C21221838   4.559   6.359   7.685  0.4292 -0.6385 -0.6306
  189SLPC  H12R21839   4.541   6.393   7.582 -1.4629 -1.5663 -0.6597
  189SLPC  C21321840   4.467   6.380   7.786 -0.7334  0.0417  0.7282
  189SLPC  H13R21841   4.379   6.440   7.759 -0.4943  0.1850  0.2517
  189SLPC  C21421842   4.489   6.343   7.930 -0.0655 -0.5055 -0.0092
  189SLPC  H14R21843   4.571   6.270   7.949  2.3856  2.5723  2.1982
  189SLPC  H14S21844   4.401   6.289   7.973 -0.1950 -0.1712  0.1442
  189SLPC  C21521845   4.530   6.470   8.010 -0.4988 -0.0861  0.1491
  189SLPC  H15R21846   4.460   6.556   8.001  0.6953  1.3783  3.3332
  189SLPC  H15S21847   4.624   6.506   7.964  0.5491 -1.5977  1.0143
  189SLPC  C21621848   4.567   6.442   8.161  0.0135 -0.0247 -0.3556
  189SLPC  H16R21849   4.643   6.361   8.156 -0.4810 -0.8252  2.9557
  189SLPC  H16S21850   4.474   6.412   8.213  1.8374 -2.0017  2.0013
  189SLPC  C21721851   4.619   6.563   8.240  0.0930  0.4457  0.3003
  189SLPC  H17R21852   4.547   6.648   8.247  2.3217  2.5200 -0.5494
  189SLPC  H17S21853   4.703   6.620   8.194  0.5520  0.5662  1.2689
  189SLPC  C21821854   4.655   6.539   8.386 -0.1532 -0.1033  0.8861
  189SLPC  H18R21855   4.695   6.638   8.416  1.3001 -0.3897 -0.0085
  189SLPC  H18S21856   4.731   6.457   8.386  2.2010  1.9387  1.2085
  189SLPC  H18T21857   4.562   6.524   8.445 -1.6655  0.6954 -1.2004
  189SLPC   C3321858   4.154   6.341   6.826 -0.1626  0.3804  0.1316
  189SLPC   H3X21859   4.249   6.290   6.853 -1.5144 -1.4732  1.7077
  189SLPC   H3Y21860   4.080   6.266   6.863 -2.4578  1.2574 -2.3347
  189SLPC   C3421861   4.136   6.460   6.920 -0.5169 -0.9875  0.6682
  189SLPC   H4X21862   4.033   6.501   6.915 -0.0555  0.2132  0.8324
  189SLPC   H4Y21863   4.218   6.530   6.896 -1.5393  0.2239  0.6199
  189SLPC   C3521864   4.155   6.407   7.067 -0.3190  0.5682 -0.0380
  189SLPC   H5X21865   4.255   6.360   7.081 -0.9783 -0.9173 -0.1527
  189SLPC   H5Y21866   4.080   6.329   7.090  0.6764  0.2184  2.2893
  189SLPC   C3621867   4.142   6.519   7.164 -0.1990 -0.2025 -0.3186
  189SLPC   H6X21868   4.043   6.568   7.150  0.3152  0.8117 -0.5191
  189SLPC   H6Y21869   4.220   6.585   7.120  0.4077  0.7475  2.0186
  189SLPC   C3721870   4.164   6.480   7.304 -0.1233 -0.4075  0.1566
  189SLPC   H7X21871   4.253   6.415   7.323 -0.2511 -0.7360 -0.3361
  189SLPC   H7Y21872   4.081   6.411   7.331 -0.1852 -0.8363 -1.0411
  189SLPC   C3821873   4.174   6.598   7.405  0.1452 -0.0098  0.3374
  189SLPC   H8X21874   4.070   6.638   7.400  0.2685  0.1626 -1.0731
  189SLPC   H8Y21875   4.243   6.677   7.368  1.3973 -1.0399  0.4108
  189SLPC   C3921876   4.206   6.557   7.546 -0.3474 -0.8065  0.3057
  189SLPC   H9X21877   4.311   6.520   7.547  0.4566  1.2893 -0.3249
  189SLPC   H9Y21878   4.133   6.481   7.581 -1.2492 -1.2399 -2.3070
  189SLPC  C31021879   4.190   6.664   7.658  0.0673 -0.4360  0.1337
  189SLPC  H10X21880   4.121   6.750   7.639 -0.2483 -0.3441  1.6112
  189SLPC  H10Y21881   4.289   6.714   7.667  0.3991 -1.1126  0.2520
  189SLPC  C31121882   4.133   6.611   7.787 -0.3860  0.2875 -0.9692
  189SLPC  H11X21883   4.155   6.505   7.811 -0.5272 -0.0075 -2.0677
  189SLPC  H11Y21884   4.022   6.619   7.785 -0.5063 -0.5920  0.8223
  189SLPC  C31221885   4.184   6.676   7.916 -0.0890 -0.3793  0.1677
  189SLPC  H12X21886   4.133   6.772   7.936 -0.5896 -0.7152  0.5092
  189SLPC  H12Y21887   4.292   6.705   7.910 -0.3244  0.1774 -2.6450
  189SLPC  C31321888   4.162   6.573   8.029  0.1364 -0.9837  0.0980
  189SLPC  H13X21889   4.225   6.482   8.023  3.8768  1.4523 -1.1765
  189SLPC  H13Y21890   4.051   6.571   8.024 -0.0600  0.3885  2.5960
  189SLPC  C31421891   4.184   6.650   8.160 -0.2026 -0.5477  0.8762
  189SLPC  H14X21892   4.115   6.737   8.169 -0.3510 -0.5576 -0.0584
  189SLPC  H14Y21893   4.288   6.687   8.165 -1.0327  1.8718  2.0362
  189SLPC  C31521894   4.174   6.566   8.284  1.1775  0.4273 -0.0685
  189SLPC  H15X21895   4.256   6.492   8.277  1.4003  0.6478  0.1822
  189SLPC  H15Y21896   4.068   6.531   8.288  0.6041  2.0959  3.1268
  189SLPC  C31621897   4.199   6.642   8.416 -0.5678  0.0782  0.0926
  189SLPC  H16X21898   4.142   6.738   8.409 -0.5473  0.0429 -0.5860
  189SLPC  H16Y21899   4.302   6.679   8.437 -1.4566  2.3889  0.7709
  189SLPC  C31721900   4.157   6.563   8.530 -0.0365 -0.7237  0.3249
  189SLPC  H17X21901   4.193   6.458   8.533 -2.2834 -1.5066  2.5154
  189SLPC  H17Y21902   4.047   6.556   8.520 -0.1488 -1.0083  1.6485
  189SLPC  C31821903   4.187   6.635   8.655 -0.4866 -0.6118 -0.1596
  189SLPC  H18X21904   4.147   6.577   8.741 -1.8211  0.0697 -0.2767
  189SLPC  H18Y21905   4.154   6.740   8.674  1.7727 -0.0570  1.0018
  189SLPC  H18Z21906   4.297   6.639   8.667 -0.3944  1.2413 -1.2295
  190SLPC     N21907   3.881   5.175   6.215  0.1014  0.3927 -0.3284
  190SLPC   C1321908   3.734   5.203   6.228 -0.3689 -0.3423  0.2376
  190SLPC  H13A21909   3.681   5.118   6.190  1.1788 -0.6194 -1.4650
  190SLPC  H13B21910   3.704   5.245   6.323  1.0069 -0.6160  0.8184
  190SLPC  H13C21911   3.702   5.284   6.164  2.0555  0.5307  0.0217
  190SLPC   C1421912   3.955   5.292   6.274 -0.2492 -0.1376  0.1667
  190SLPC  H14A21913   3.930   5.370   6.203  0.0465 -0.3956 -0.2268
  190SLPC  H14B21914   3.924   5.321   6.373 -1.6382  0.3388 -0.3908
  190SLPC  H14C21915   4.060   5.268   6.281  0.1492  1.9334  3.4976
  190SLPC   C1521916   3.910   5.154   6.068 -0.6385  0.6989  0.4579
  190SLPC  H15A21917   4.011   5.118   6.057 -0.9809  0.1580 -1.1234
  190SLPC  H15B21918   3.840   5.086   6.023 -0.2574  1.9315 -2.1485
  190SLPC  H15C21919   3.902   5.238   6.001  4.6566  0.0351 -1.3979
  190SLPC   C1221920   3.910   5.046   6.290 -0.3506  0.3406  0.0096
  190SLPC  H12A21921   4.002   5.003   6.253 -0.1417 -1.6155  2.5311
  190SLPC  H12B21922   3.842   4.968   6.260  0.5244  0.1038 -1.5105
  190SLPC   C1121923   3.905   5.051   6.444 -0.0755 -0.5802  0.2814
  190SLPC  H11A21924   3.981   5.124   6.477  0.9747 -1.8559  0.7535
  190SLPC  H11B21925   3.947   4.956   6.483  3.2310  1.0765  1.1195
  190SLPC     P21926   3.660   4.965   6.472  0.3688 -0.1904 -0.3548
  190SLPC   O1321927   3.537   5.044   6.439  0.5272  0.2108  0.7689
  190SLPC   O1421928   3.698   4.862   6.379 -0.2744  0.1721 -0.4265
  190SLPC   O1221929   3.779   5.067   6.500  0.1906 -0.3050 -1.0173
  190SLPC   O1121930   3.635   4.892   6.609  0.3941  0.2217 -0.2626
  190SLPC    C121931   3.688   4.928   6.733 -0.2036 -0.1922 -0.2081
  190SLPC    HA21932   3.703   5.038   6.737 -0.2349 -0.1113 -1.7256
  190SLPC    HB21933   3.620   4.923   6.820  1.9444  0.3175  1.6095
  190SLPC    C221934   3.826   4.861   6.751 -0.1697  0.0117 -1.1051
  190SLPC    HS21935   3.882   4.849   6.656 -0.5419 -1.7745 -1.1409
  190SLPC   O2121936   3.805   4.727   6.798 -0.2307 -0.0838  0.4893
  190SLPC   C2121937   3.913   4.644   6.796  0.0122 -0.4031  0.5874
  190SLPC   O2221938   4.022   4.672   6.751  0.2736  0.3866  0.0492
  190SLPC   C2221939   3.875   4.501   6.833  0.1333  0.1491  0.0638
  190SLPC   H2R21940   3.788   4.504   6.903  0.9141 -3.5349  1.4053
  190SLPC   H2S21941   3.839   4.451   6.741  1.8802 -0.6146 -0.2466
  190SLPC    C321942   3.920   4.943   6.841 -0.1275 -0.1976  1.2475
  190SLPC    HX21943   3.915   5.049   6.808 -0.7696 -1.0384 -1.5524
  190SLPC    HY21944   4.025   4.915   6.815 -1.0551 -0.4842 -2.7992
  190SLPC   O3121945   3.873   4.927   6.972  0.0285 -0.3249 -0.4190
  190SLPC   C3121946   3.956   4.973   7.072  0.7740  0.0799 -0.5849
  190SLPC   O3221947   4.068   5.006   7.045  0.4522 -0.2425  0.2112
  190SLPC   C3221948   3.889   4.971   7.209  0.0377 -0.3376  0.3525
  190SLPC   H2X21949   3.778   4.980   7.210  0.0375  0.3644 -1.7080
  190SLPC   H2Y21950   3.931   5.060   7.260  1.2770 -0.1276 -0.9629
  190SLPC   C2321951   3.993   4.413   6.893  0.3454  0.7442  0.4389
  190SLPC   H3R21952   4.051   4.480   6.960  2.5678 -1.8326  1.2670
  190SLPC   H3S21953   4.058   4.384   6.807 -1.8370 -2.2970 -0.3534
  190SLPC   C2421954   3.943   4.284   6.950 -0.0655  0.6498  0.6242
  190SLPC   H4R21955   4.039   4.231   6.969 -0.3189  0.7373  2.3498
  190SLPC   H4S21956   3.885   4.231   6.872  0.2771  0.0562  0.7710
  190SLPC   C2521957   3.855   4.292   7.073 -0.0538  0.1865  0.0812
  190SLPC   H5R21958   3.838   4.187   7.105  0.6158  0.6159  1.9855
  190SLPC   H5S21959   3.755   4.339   7.060 -0.7771  0.1790  4.3021
  190SLPC   C2621960   3.922   4.364   7.186  0.3109 -0.3632 -0.0485
  190SLPC   H6R21961   3.926   4.474   7.174 -1.4815 -0.1191  1.2765
  190SLPC   H6S21962   4.023   4.321   7.203 -0.0928 -1.0113  0.7950
  190SLPC   C2721963   3.850   4.365   7.325  0.1707  0.2228 -0.4008
  190SLPC   H7R21964   3.855   4.263   7.370 -0.5377  0.5152  0.3656
  190SLPC   H7S21965   3.743   4.372   7.298  0.2784  0.8592 -0.6704
  190SLPC   C2821966   3.892   4.477   7.421  0.1149 -0.2129  0.3289
  190SLPC   H8R21967   3.816   4.557   7.411  0.7917  0.2019 -2.6363
  190SLPC   H8S21968   3.984   4.527   7.382 -1.1822  2.7177  0.7812
  190SLPC   C2921969   3.921   4.418   7.559 -0.7267  0.1815 -0.1408
  190SLPC   H9R21970   3.992   4.335   7.553 -0.8917  0.1391 -2.2635
  190SLPC  C21021971   3.875   4.479   7.676  0.0897  0.5097  0.6852
  190SLPC  H10R21972   3.905   4.432   7.770  1.6616  0.1279  0.0360
  190SLPC  C21121973   3.780   4.598   7.696  0.0069 -0.1267  0.0237
  190SLPC  H11R21974   3.686   4.552   7.734  0.8691 -1.4394  0.6682
  190SLPC  H11S21975   3.751   4.646   7.600  0.3557  1.8322  0.8664
  190SLPC  C21221976   3.839   4.701   7.791  0.2320 -0.3455  0.2004
  190SLPC  H12R21977   3.913   4.764   7.741  0.4326 -0.4740  0.3318
  190SLPC  C21321978   3.806   4.718   7.919 -0.3336 -0.1737  0.7593
  190SLPC  H13R21979   3.856   4.806   7.962  0.4131  0.7664 -1.8365
  190SLPC  C21421980   3.704   4.643   7.996 -0.1549  0.5201  0.3552
  190SLPC  H14R21981   3.618   4.617   7.931  1.5754 -2.8185 -0.8247
  190SLPC  H14S21982   3.664   4.706   8.079  3.7684  3.5688  0.2710
  190SLPC  C21521983   3.768   4.518   8.056  1.1228 -0.1935 -0.4342
  190SLPC  H15R21984   3.834   4.548   8.140  0.5111 -0.9721  0.3415
  190SLPC  H15S21985   3.821   4.460   7.978  1.9153 -0.3249  0.1909
  190SLPC  C21621986   3.672   4.419   8.119  0.1585 -1.0530 -0.4585
  190SLPC  H16R21987   3.628   4.469   8.209 -1.1190  1.3819 -2.3134
  190SLPC  H16S21988   3.737   4.340   8.162 -0.0796  0.0732  2.2241
  190SLPC  C21721989   3.576   4.368   8.023 -0.2054 -0.3449  0.0537
  190SLPC  H17R21990   3.626   4.358   7.924  0.9520 -0.9356  0.6783
  190SLPC  H17S21991   3.492   4.437   8.000  0.8183  0.2067 -2.3823
  190SLPC  C21821992   3.528   4.233   8.060 -0.4758 -0.1301 -0.0245
  190SLPC  H18R21993   3.600   4.155   8.027  0.3251  0.7380 -0.3700
  190SLPC  H18S21994   3.431   4.218   8.008 -0.8282 -0.6250  0.7535
  190SLPC  H18T21995   3.515   4.214   8.169  0.7775  0.8175  0.3079
  190SLPC   C3321996   3.911   4.841   7.289  0.2852  0.0449  0.0511
  190SLPC   H3X21997   4.020   4.839   7.313  0.5594 -1.5431 -1.2084
  190SLPC   H3Y21998   3.894   4.755   7.222  1.6274  0.3626 -0.7274
  190SLPC   C3421999   3.839   4.824   7.421  0.5142 -0.1142  1.0811
  190SLPC   H4X22000   3.901   4.752   7.478  2.5599  0.1205 -0.6965
  190SLPC   H4Y22001   3.738   4.780   7.405  0.2699 -0.0265  2.3260
  190SLPC   C3522002   3.816   4.960   7.504 -0.7080  0.1981 -0.2543
  190SLPC   H5X22003   3.743   4.943   7.586 -1.1163  0.0610 -0.6368
  190SLPC   H5Y22004   3.776   5.047   7.448 -0.7233  1.3421  1.4798
  190SLPC   C3622005   3.957   5.000   7.557  0.6796 -0.5462 -0.4504
  190SLPC   H6X22006   4.021   5.037   7.474  0.2131  0.6021 -0.3203
  190SLPC   H6Y22007   4.002   4.906   7.594 -2.4213 -2.3267 -0.9084
  190SLPC   C3722008   3.950   5.112   7.670 -0.5452  0.5174  0.2697
  190SLPC   H7X22009   3.898   5.201   7.629  0.7752  1.1988  0.0365
  190SLPC   H7Y22010   4.054   5.147   7.689  0.0165 -0.1227 -1.4781
  190SLPC   C3822011   3.881   5.064   7.799 -0.1288  0.2242 -0.1371
  190SLPC   H8X22012   3.937   4.986   7.853 -1.8450 -1.2243 -0.3513
  190SLPC   H8Y22013   3.777   5.030   7.777 -0.3837 -0.3829  1.7910
  190SLPC   C3922014   3.862   5.179   7.907 -0.5661  0.1480 -0.0806
  190SLPC   H9X22015   3.855   5.279   7.860  1.0766 -0.3486 -1.5123
  190SLPC   H9Y22016   3.959   5.187   7.962  0.4029 -1.8048 -1.3962
  190SLPC  C31022017   3.752   5.142   8.015  0.0603 -0.3475  0.2948
  190SLPC  H10X22018   3.784   5.046   8.060 -0.3809  0.6091  2.8112
  190SLPC  H10Y22019   3.660   5.104   7.966 -1.2222  0.4554  1.9601
  190SLPC  C31122020   3.716   5.254   8.113 -0.1406 -0.5257 -0.2549
  190SLPC  H11X22021   3.708   5.349   8.056  3.0708 -0.8068 -1.3514
  190SLPC  H11Y22022   3.800   5.268   8.185 -2.2601 -1.5629  2.6342
  190SLPC  C31222023   3.588   5.225   8.183  0.1844 -0.6814 -0.2572
  190SLPC  H12X22024   3.515   5.170   8.119  2.7920 -0.6318 -3.5299
  190SLPC  H12Y22025   3.544   5.323   8.210 -0.9273 -0.3353 -2.9956
  190SLPC  C31322026   3.615   5.159   8.316 -0.1789  0.0594  0.2823
  190SLPC  H13X22027   3.688   5.215   8.378 -0.1623  0.8760 -0.4612
  190SLPC  H13Y22028   3.664   5.061   8.297  1.1824  0.7637  0.0745
  190SLPC  C31422029   3.484   5.123   8.388  0.7424 -0.8653  0.2125
  190SLPC  H14X22030   3.416   5.098   8.304  0.1098 -1.1269  0.7897
  190SLPC  H14Y22031   3.448   5.213   8.442  1.5019 -0.6922  0.4411
  190SLPC  C31522032   3.489   5.012   8.495  0.0484 -0.5647  0.0934
  190SLPC  H15X22033   3.511   4.914   8.448  0.1560  0.3087 -1.7856
  190SLPC  H15Y22034   3.391   4.986   8.541  0.1305 -0.2804  0.4286
  190SLPC  C31622035   3.590   5.037   8.607  0.0501 -0.3592 -0.1355
  190SLPC  H16X22036   3.571   5.115   8.684 -1.5960 -1.1668  0.3419
  190SLPC  H16Y22037   3.684   5.059   8.553  0.6763 -2.7423 -0.1317
  190SLPC  C31722038   3.612   4.905   8.691 -0.3518 -0.0228  0.0867
  190SLPC  H17X22039   3.678   4.833   8.639  1.2377  0.9078  0.7377
  190SLPC  H17Y22040   3.518   4.848   8.705 -0.2520  0.3116  2.6404
  190SLPC  C31822041   3.693   4.925   8.823  0.2033  0.3017  0.8713
  190SLPC  H18X22042   3.798   4.949   8.800 -0.0235 -0.2965 -0.9702
  190SLPC  H18Y22043   3.693   4.835   8.888 -0.9797 -0.7030 -0.4544
  190SLPC  H18Z22044   3.652   5.010   8.882  0.0460 -0.3321  1.7015
  191SLPC     N22045   3.346   0.346   5.765 -0.2882 -0.3306  0.0566
  191SLPC   C1322046   3.369   0.481   5.703  0.3422 -0.8508  0.3580
  191SLPC  H13A22047   3.329   0.544   5.781 -0.5788  1.0227 -1.5199
  191SLPC  H13B22048   3.472   0.505   5.683 -0.2819  1.9209  0.0754
  191SLPC  H13C22049   3.315   0.502   5.612  2.2508 -0.5923 -0.7632
  191SLPC   C1422050   3.456   0.333   5.872 -0.3745 -0.0830 -0.4258
  191SLPC  H14A22051   3.557   0.328   5.834  0.0568 -0.8744  0.7907
  191SLPC  H14B22052   3.460   0.419   5.937 -0.2438 -0.2375 -0.2302
  191SLPC  H14C22053   3.451   0.247   5.936 -1.6441  0.2410 -0.0688
  191SLPC   C1522054   3.368   0.243   5.658 -0.1863  0.4717  0.4989
  191SLPC  H15A22055   3.374   0.145   5.703 -1.0796 -0.2757 -0.9585
  191SLPC  H15B22056   3.297   0.234   5.577  0.8964  0.8071 -0.5043
  191SLPC  H15C22057   3.464   0.269   5.617 -1.1064 -0.4886 -2.4851
  191SLPC   C1222058   3.204   0.337   5.819 -0.1923  0.1140 -0.4212
  191SLPC  H12A22059   3.195   0.233   5.848  0.7919  0.1850  0.1816
  191SLPC  H12B22060   3.133   0.363   5.742  0.0311 -1.4759 -1.2103
  191SLPC   C1122061   3.166   0.423   5.933  0.3609 -0.2194 -0.0345
  191SLPC  H11A22062   3.248   0.427   6.007 -0.6761 -1.4196  1.2236
  191SLPC  H11B22063   3.073   0.377   5.974 -1.4358  0.7519 -2.6915
  191SLPC     P22064   2.991   0.588   5.822 -0.0422  0.0959  0.2578
  191SLPC   O1322065   3.007   0.724   5.765 -0.1716  0.5928 -0.3943
  191SLPC   O1422066   2.941   0.485   5.732  0.4738  0.1730 -0.0215
  191SLPC   O1222067   3.133   0.545   5.877  0.1779 -0.2057 -0.2272
  191SLPC   O1122068   2.905   0.595   5.954  0.1853 -0.5519  0.1118
  191SLPC    C122069   2.910   0.709   6.038  0.5824 -0.2662  0.2382
  191SLPC    HA22070   2.952   0.804   5.999 -2.0440  0.8751 -0.0235
  191SLPC    HB22071   2.812   0.731   6.086  0.2331  1.2814 -1.1064
  191SLPC    C222072   3.004   0.685   6.158 -0.1804  0.6004 -0.2720
  191SLPC    HS22073   3.108   0.670   6.125  0.0199  0.4666  0.3965
  191SLPC   O2122074   2.948   0.577   6.237  0.0562  0.3616  0.4324
  191SLPC   C2122075   3.040   0.490   6.281  0.1599 -0.1847  0.0491
  191SLPC   O2222076   3.161   0.509   6.266  0.5835 -0.2972 -0.1726
  191SLPC   C2222077   2.976   0.371   6.354  0.8154  0.5333  0.0275
  191SLPC   H2R22078   2.870   0.392   6.381  1.1304  0.2269  1.5732
  191SLPC   H2S22079   2.985   0.288   6.280 -0.2985 -1.0477  1.5597
  191SLPC    C322080   3.014   0.816   6.241 -0.2108 -0.1880  0.9719
  191SLPC    HX22081   2.909   0.847   6.263 -0.4743 -0.7628  0.5614
  191SLPC    HY22082   3.065   0.893   6.180  0.9439 -0.8765  1.0426
  191SLPC   O3122083   3.077   0.796   6.369 -0.3267  0.1386  0.6669
  191SLPC   C3122084   3.202   0.820   6.369  0.6040  0.3343 -0.2003
  191SLPC   O3222085   3.268   0.878   6.286  0.3975  0.1842  0.3003
  191SLPC   C3222086   3.251   0.761   6.504 -0.0974 -0.2760  0.2526
  191SLPC   H2X22087   3.213   0.656   6.500  0.4352 -0.5100  1.0414
  191SLPC   H2Y22088   3.198   0.820   6.581  0.5418  1.4915 -0.6159
  191SLPC   C2322089   3.055   0.330   6.473 -0.3135  0.2435 -0.0986
  191SLPC   H3R22090   3.161   0.314   6.445 -0.2798  1.0587 -0.4881
  191SLPC   H3S22091   3.020   0.229   6.500  0.3513 -0.1348 -0.6189
  191SLPC   C2422092   3.039   0.423   6.593  0.2614  0.4671  0.4022
  191SLPC   H4R22093   2.938   0.410   6.638  0.9044 -0.7949  1.5524
  191SLPC   H4S22094   3.033   0.526   6.552  0.5463 -0.2784 -1.6183
  191SLPC   C2522095   3.152   0.409   6.696 -0.3192 -0.7754  0.4374
  191SLPC   H5R22096   3.253   0.430   6.654 -1.1696  0.9353 -0.8522
  191SLPC   H5S22097   3.150   0.301   6.724  0.0172 -1.2012 -1.0863
  191SLPC   C2622098   3.129   0.499   6.818  0.6887  0.3800 -0.1329
  191SLPC   H6R22099   3.024   0.474   6.844  0.5506  1.6597  0.6104
  191SLPC   H6S22100   3.120   0.604   6.782 -0.6138 -0.0179 -1.0584
  191SLPC   C2722101   3.232   0.492   6.930 -0.7615  0.0786 -0.2779
  191SLPC   H7R22102   3.202   0.558   7.015  0.4920  1.0848 -0.5792
  191SLPC   H7S22103   3.329   0.523   6.885  0.2190 -0.6676  1.2179
  191SLPC   C2822104   3.246   0.351   6.997  0.1254 -0.4401 -0.4468
  191SLPC   H8R22105   3.339   0.347   7.057  0.3792 -3.0348 -0.9133
  191SLPC   H8S22106   3.261   0.264   6.929 -1.0897 -0.1980 -1.0428
  191SLPC   C2922107   3.133   0.320   7.082 -0.0571  0.1968 -0.2972
  191SLPC   H9R22108   3.037   0.315   7.027 -0.1443 -2.1843 -0.0305
  191SLPC  C21022109   3.139   0.297   7.213  0.2666 -0.0279  0.3271
  191SLPC  H10R22110   3.040   0.278   7.258  0.3760  1.4773  1.2684
  191SLPC  C21122111   3.253   0.301   7.314 -0.0839  0.2535  0.5133
  191SLPC  H11R22112   3.319   0.224   7.270 -1.4776 -0.2038 -0.8365
  191SLPC  H11S22113   3.229   0.260   7.415  1.9416 -0.2085  0.8591
  191SLPC  C21222114   3.325   0.429   7.330  0.1033 -0.5098 -0.3546
  191SLPC  H12R22115   3.313   0.507   7.254  1.0661  1.4444  1.3848
  191SLPC  C21322116   3.398   0.464   7.437 -0.1566  0.7657  0.6201
  191SLPC  H13R22117   3.441   0.565   7.438 -2.3712  1.7693  1.2268
  191SLPC  C21422118   3.427   0.382   7.558 -0.3316  1.0214  0.7124
  191SLPC  H14R22119   3.527   0.334   7.567 -1.4661 -1.3710  1.3927
  191SLPC  H14S22120   3.360   0.294   7.571  0.1553  0.7325  1.3033
  191SLPC  C21522121   3.398   0.472   7.677 -0.1017 -0.6460  0.2530
  191SLPC  H15R22122   3.299   0.518   7.659 -0.6306 -1.8559 -0.0565
  191SLPC  H15S22123   3.461   0.563   7.678  0.1523 -0.7707 -1.4284
  191SLPC  C21622124   3.400   0.406   7.812  0.2692 -0.2696  0.1786
  191SLPC  H16R22125   3.499   0.365   7.843  1.1967  2.4745  1.1122
  191SLPC  H16S22126   3.327   0.323   7.798  1.0750 -1.5445  2.8299
  191SLPC  C21722127   3.361   0.500   7.929 -0.1876  0.2211  0.6245
  191SLPC  H17R22128   3.283   0.570   7.893 -0.9934  0.5802  2.8919
  191SLPC  H17S22129   3.451   0.560   7.958  0.6757 -0.1528 -1.1570
  191SLPC  C21822130   3.319   0.419   8.049 -0.4267  0.2596  0.8213
  191SLPC  H18R22131   3.232   0.355   8.022 -0.0844  0.1612 -0.0832
  191SLPC  H18S22132   3.306   0.474   8.145  0.5297  1.7984  0.1021
  191SLPC  H18T22133   3.395   0.339   8.061  0.4586  0.6990 -1.4616
  191SLPC   C3322134   3.404   0.770   6.512  0.7059  0.3142 -0.2780
  191SLPC   H3X22135   3.435   0.876   6.520  2.3971 -0.1731  0.1619
  191SLPC   H3Y22136   3.449   0.730   6.419 -0.4795 -0.2495 -0.6241
  191SLPC   C3422137   3.453   0.703   6.646 -0.6172  0.0572  0.3383
  191SLPC   H4X22138   3.485   0.598   6.630 -0.5974  0.1329 -0.1413
  191SLPC   H4Y22139   3.363   0.709   6.711 -0.5702 -1.3275  0.5658
  191SLPC   C3522140   3.574   0.780   6.702 -0.7375 -0.2324 -0.0134
  191SLPC   H5X22141   3.549   0.879   6.745  0.1979 -0.5901  1.3894
  191SLPC   H5Y22142   3.649   0.783   6.619  1.3648  0.4497  1.8163
  191SLPC   C3622143   3.670   0.709   6.804  0.5083 -0.7322  0.4930
  191SLPC   H6X22144   3.758   0.770   6.833  1.3637 -2.1119  0.8825
  191SLPC   H6Y22145   3.705   0.614   6.757  2.0150 -1.2207  2.4986
  191SLPC   C3722146   3.598   0.678   6.935 -0.0228 -0.1422 -0.9902
  191SLPC   H7X22147   3.636   0.584   6.979 -0.3241 -0.4614 -1.4091
  191SLPC   H7Y22148   3.491   0.655   6.913 -1.0363  3.2823 -0.3001
  191SLPC   C3822149   3.619   0.788   7.042 -0.8070 -0.1806 -0.2600
  191SLPC   H8X22150   3.550   0.866   7.002 -0.9570 -0.9370 -1.5150
  191SLPC   H8Y22151   3.719   0.835   7.051 -1.1432  0.1581  2.5985
  191SLPC   C3922152   3.564   0.758   7.182 -0.1560  0.7840  0.1347
  191SLPC   H9X22153   3.606   0.663   7.221 -1.1618  0.1541 -0.2698
  191SLPC   H9Y22154   3.454   0.745   7.175 -0.0092 -2.3283  2.0455
  191SLPC  C31022155   3.584   0.880   7.278 -0.0949 -0.4658 -0.1003
  191SLPC  H10X22156   3.542   0.970   7.227  2.2150 -0.1029 -1.4854
  191SLPC  H10Y22157   3.694   0.889   7.274 -0.1655  0.4980 -0.2497
  191SLPC  C31122158   3.530   0.854   7.423 -0.5686  1.1140 -0.4174
  191SLPC  H11X22159   3.581   0.758   7.445  0.6097  1.3834 -1.7986
  191SLPC  H11Y22160   3.422   0.836   7.411 -0.2825 -0.7209 -0.4640
  191SLPC  C31222161   3.559   0.961   7.523 -0.3655  0.0637  0.7801
  191SLPC  H12X22162   3.529   1.055   7.472  2.2431 -1.1682 -3.5808
  191SLPC  H12Y22163   3.669   0.975   7.534  0.1922 -1.2673 -1.9552
  191SLPC  C31322164   3.500   0.941   7.661  0.0009  0.9089  0.3110
  191SLPC  H13X22165   3.568   1.003   7.724 -0.4251 -0.6124  2.3568
  191SLPC  H13Y22166   3.495   0.836   7.695 -1.0786  0.9714  0.3624
  191SLPC  C31422167   3.365   0.990   7.677 -0.4080 -0.2993 -0.5050
  191SLPC  H14X22168   3.299   0.917   7.626  0.4059 -1.1003 -0.4394
  191SLPC  H14Y22169   3.370   1.088   7.625  0.7722 -1.1420 -2.1053
  191SLPC  C31522170   3.314   1.012   7.820  0.7290 -0.7991  0.3093
  191SLPC  H15X22171   3.287   0.910   7.854  1.3924 -1.1869 -0.3057
  191SLPC  H15Y22172   3.228   1.080   7.804  0.7412 -0.6328  0.9345
  191SLPC  C31622173   3.400   1.081   7.933  0.0552  0.4160  0.6929
  191SLPC  H16X22174   3.420   1.187   7.909  1.7097 -0.4627 -2.2802
  191SLPC  H16Y22175   3.498   1.030   7.924 -0.5176 -0.5339 -0.6125
  191SLPC  C31722176   3.348   1.057   8.072  0.3578 -0.1768 -0.4143
  191SLPC  H17X22177   3.337   0.947   8.082  0.6742 -0.3204 -1.5477
  191SLPC  H17Y22178   3.249   1.101   8.096  1.2548  0.2220  3.2338
  191SLPC  C31822179   3.440   1.125   8.180  0.0275  0.2701  0.1398
  191SLPC  H18X22180   3.443   1.235   8.162 -1.9887  0.9319  3.0901
  191SLPC  H18Y22181   3.545   1.090   8.172 -0.0325  0.2472 -0.6265
  191SLPC  H18Z22182   3.402   1.102   8.281  0.0274  1.7913  0.5223
  192SLPC     N22183   4.118   1.436   6.145  0.6184 -0.4923 -0.2784
  192SLPC   C1322184   4.151   1.442   5.999 -0.1291 -0.5834  0.4089
  192SLPC  H13A22185   4.107   1.360   5.943  1.5758  0.3156 -2.4764
  192SLPC  H13B22186   4.106   1.530   5.954  1.3584 -0.3516 -0.6782
  192SLPC  H13C22187   4.257   1.429   5.984 -0.3753 -2.8913  0.3494
  192SLPC   C1422188   3.974   1.405   6.159  0.4078  0.6060 -0.3363
  192SLPC  H14A22189   3.904   1.476   6.117 -1.4955 -1.2907 -0.5540
  192SLPC  H14B22190   3.948   1.309   6.117 -1.8582 -0.4373  2.9852
  192SLPC  H14C22191   3.943   1.371   6.257  0.6799 -2.3636 -1.2087
  192SLPC   C1522192   4.131   1.574   6.202 -0.1191  0.4590  0.5164
  192SLPC  H15A22193   4.090   1.571   6.302  1.8088  1.0437  1.3606
  192SLPC  H15B22194   4.235   1.598   6.216 -0.1778  0.7991  0.3876
  192SLPC  H15C22195   4.074   1.646   6.146  0.5119  1.7626  1.5061
  192SLPC   C1222196   4.193   1.340   6.222  0.2851 -0.0173 -0.2881
  192SLPC  H12A22197   4.299   1.358   6.215 -0.1876  2.6604 -2.1857
  192SLPC  H12B22198   4.180   1.244   6.174  0.9363 -1.1812  1.7584
  192SLPC   C1122199   4.140   1.295   6.365 -0.0167  0.7481 -0.0194
  192SLPC  H11A22200   4.130   1.383   6.432 -0.8474  1.4793 -1.0828
  192SLPC  H11B22201   4.221   1.228   6.402 -0.6968 -0.2317 -0.2567
  192SLPC     P22202   3.998   1.085   6.308 -0.5130 -0.1594  0.0717
  192SLPC   O1322203   3.893   1.095   6.205  0.3898  0.5231  0.5476
  192SLPC   O1422204   4.130   1.041   6.266 -0.1165 -0.1242 -0.3466
  192SLPC   O1222205   4.017   1.229   6.367 -0.1155  0.1943  0.5207
  192SLPC   O1122206   3.945   0.995   6.432 -0.4520 -0.0098  0.2483
  192SLPC    C122207   3.966   1.026   6.569 -0.5599  0.2593  0.7575
  192SLPC    HA22208   3.957   0.930   6.623 -1.8264 -0.5637 -0.8197
  192SLPC    HB22209   4.068   1.070   6.573 -0.4537  0.0459  0.4801
  192SLPC    C222210   3.863   1.126   6.631  0.0798  0.1913  0.5033
  192SLPC    HS22211   3.903   1.229   6.625  1.4048 -0.2045  1.9203
  192SLPC   O2122212   3.845   1.097   6.763  0.4555  0.5217 -0.2079
  192SLPC   C2122213   3.953   1.112   6.845  0.7105 -0.5362  0.0613
  192SLPC   O2222214   4.058   1.158   6.813  0.0754  0.0764  0.1220
  192SLPC   C2222215   3.917   1.050   6.978  0.1525  0.0956  0.1593
  192SLPC   H2R22216   3.816   1.083   7.012  0.5889  0.9381  0.6837
  192SLPC   H2S22217   3.904   0.940   6.974  0.8950  0.0156 -0.3568
  192SLPC    C322218   3.724   1.111   6.556 -0.3676 -0.2176 -0.2948
  192SLPC    HX22219   3.707   1.009   6.517  2.7103 -1.0209  0.2593
  192SLPC    HY22220   3.741   1.170   6.463  0.7624 -0.9305 -0.5585
  192SLPC   O3122221   3.606   1.154   6.626 -0.1425 -0.0977 -0.1058
  192SLPC   C3122222   3.597   1.283   6.648  0.1357 -0.6333 -0.5928
  192SLPC   O3222223   3.674   1.369   6.598  0.5500 -0.1492 -0.3342
  192SLPC   C3222224   3.474   1.310   6.727 -0.0413 -0.2544  0.3206
  192SLPC   H2X22225   3.407   1.222   6.720 -0.2902 -0.0670  0.3128
  192SLPC   H2Y22226   3.428   1.394   6.670  0.7112  0.0603  0.1681
  192SLPC   C2322227   4.031   1.086   7.074 -0.2513 -0.1891 -0.5053
  192SLPC   H3R22228   4.059   1.194   7.067 -1.1115 -0.0092 -1.4609
  192SLPC   H3S22229   4.116   1.020   7.047 -0.4108  0.5494 -3.0886
  192SLPC   C2422230   3.989   1.056   7.220 -0.7764 -0.7920  0.0732
  192SLPC   H4R22231   4.005   0.948   7.240  0.6705 -0.4961  0.6201
  192SLPC   H4S22232   3.889   1.082   7.259 -0.0669 -2.0976  3.0729
  192SLPC   C2522233   4.068   1.139   7.327 -0.4710 -0.4375 -0.0530
  192SLPC   H5R22234   4.065   1.249   7.314  0.2773 -0.4777 -0.6597
  192SLPC   H5S22235   4.177   1.129   7.312 -0.3048 -0.3709  1.0595
  192SLPC   C2622236   4.035   1.092   7.470 -0.6777  0.5327  0.5146
  192SLPC   H6R22237   4.053   0.983   7.469  0.6550  0.7280 -1.8061
  192SLPC   H6S22238   3.931   1.123   7.497  0.0265  1.1676  2.7077
  192SLPC   C2722239   4.123   1.155   7.571 -0.0619  0.3453 -0.0918
  192SLPC   H7R22240   4.111   1.265   7.580  2.6880  0.6098  1.8557
  192SLPC   H7S22241   4.226   1.143   7.530 -1.0416  1.6127 -3.1633
  192SLPC   C2822242   4.136   1.096   7.712  1.0050 -0.5211  0.2783
  192SLPC   H8R22243   4.213   1.162   7.758  0.0333  0.7645  0.1383
  192SLPC   H8S22244   4.189   0.999   7.703 -0.2357 -1.2315  0.3524
  192SLPC   C2922245   4.006   1.080   7.790 -0.8466  0.5218 -0.3336
  192SLPC   H9R22246   3.916   1.085   7.728 -0.5747  4.2217 -0.6512
  192SLPC  C21022247   4.014   1.040   7.919 -0.0101 -0.3650 -0.7345
  192SLPC  H10R22248   3.920   1.026   7.974 -0.7042  1.2107 -1.4708
  192SLPC  C21122249   4.143   1.025   7.996  0.4214 -0.4168 -0.1073
  192SLPC  H11R22250   4.129   1.073   8.095  2.3204  0.8225 -0.3926
  192SLPC  H11S22251   4.220   1.093   7.955  0.0184 -1.0075 -1.9393
  192SLPC  C21222252   4.191   0.884   7.996  0.1520  0.7895 -0.3831
  192SLPC  H12R22253   4.217   0.844   7.896 -0.4584  0.3540 -0.3725
  192SLPC  C21322254   4.215   0.812   8.109  0.8583  0.0222  0.0381
  192SLPC  H13R22255   4.253   0.710   8.092 -0.3332 -0.1340 -1.9659
  192SLPC  C21422256   4.191   0.849   8.249  0.4067 -0.2404 -0.2457
  192SLPC  H14R22257   4.105   0.919   8.259  1.2244  0.7312  0.1497
  192SLPC  H14S22258   4.281   0.900   8.289 -0.1510  0.0057  0.7137
  192SLPC  C21522259   4.180   0.730   8.348 -0.8161  0.1722  0.1108
  192SLPC  H15R22260   4.195   0.776   8.448  1.5390  4.3215 -1.8790
  192SLPC  H15S22261   4.261   0.655   8.334 -1.3262 -0.4870  0.6288
  192SLPC  C21622262   4.045   0.660   8.344 -0.7925 -0.3371 -0.4303
  192SLPC  H16R22263   4.039   0.608   8.246  3.3350  2.3366 -2.3924
  192SLPC  H16S22264   3.956   0.726   8.338 -0.4035  0.2931  0.5426
  192SLPC  C21722265   4.032   0.552   8.450  0.6009  0.6868  0.1848
  192SLPC  H17R22266   4.059   0.589   8.551  3.1761  2.2647 -0.9852
  192SLPC  H17S22267   3.929   0.512   8.441  0.3906  1.1402  0.5586
  192SLPC  C21822268   4.115   0.429   8.416 -0.1315 -0.5426  0.5253
  192SLPC  H18R22269   4.072   0.387   8.323 -0.0692  0.2650  0.1259
  192SLPC  H18S22270   4.099   0.354   8.497 -1.0606  0.6692  1.5003
  192SLPC  H18T22271   4.223   0.456   8.414 -0.5980  1.5439  1.1601
  192SLPC   C3322272   3.495   1.371   6.868 -0.0545 -0.0829  0.3535
  192SLPC   H3X22273   3.401   1.428   6.886 -1.3844 -1.6716 -1.2033
  192SLPC   H3Y22274   3.583   1.439   6.869  0.6789 -0.9207 -1.6584
  192SLPC   C3422275   3.509   1.276   6.981 -0.0705 -0.5667  0.8753
  192SLPC   H4X22276   3.603   1.222   6.957  0.1014  0.3650 -0.6855
  192SLPC   H4Y22277   3.432   1.196   6.975  0.0818 -0.7204  0.9754
  192SLPC   C3522278   3.513   1.353   7.112  0.1387 -0.3247 -0.2505
  192SLPC   H5X22279   3.407   1.350   7.146  0.4357 -3.0081  0.6198
  192SLPC   H5Y22280   3.541   1.461   7.115 -0.7930 -0.0664 -0.4662
  192SLPC   C3622281   3.597   1.278   7.216 -0.1434 -0.4535  0.1641
  192SLPC   H6X22282   3.692   1.252   7.164 -1.7105 -1.5802 -2.3452
  192SLPC   H6Y22283   3.545   1.183   7.240  2.7884 -1.9816  0.9816
  192SLPC   C3722284   3.625   1.355   7.343 -0.6042 -0.0148  0.5640
  192SLPC   H7X22285   3.673   1.450   7.312  1.6135 -0.5076  2.2229
  192SLPC   H7Y22286   3.697   1.289   7.396 -1.0129 -2.9546 -2.2686
  192SLPC   C3822287   3.513   1.386   7.446  0.8108 -0.3860  0.2562
  192SLPC   H8X22288   3.456   1.297   7.479 -0.4056  0.2700 -0.0111
  192SLPC   H8Y22289   3.436   1.458   7.411  1.9249  1.5305  1.5798
  192SLPC   C3922290   3.566   1.451   7.572  0.9308  0.1938  0.0007
  192SLPC   H9X22291   3.486   1.504   7.628  1.0431 -0.6588  1.0016
  192SLPC   H9Y22292   3.656   1.514   7.555  0.9468 -0.1065 -1.0889
  192SLPC  C31022293   3.609   1.349   7.678 -0.0584 -0.6880 -0.6831
  192SLPC  H10X22294   3.697   1.289   7.646  1.9532  1.0944  1.1517
  192SLPC  H10Y22295   3.522   1.286   7.707  0.3343 -0.9415 -0.0178
  192SLPC  C31122296   3.648   1.415   7.810 -0.1557 -0.3086  0.4605
  192SLPC  H11X22297   3.560   1.452   7.867  0.8037 -1.2165  2.6354
  192SLPC  H11Y22298   3.718   1.500   7.799  0.3020 -0.8684 -1.3633
  192SLPC  C31222299   3.728   1.312   7.902  0.2565 -0.0360  0.5988
  192SLPC  H12X22300   3.829   1.288   7.863  0.2239 -1.9465  1.5778
  192SLPC  H12Y22301   3.667   1.219   7.893  1.5636 -0.8469 -0.1248
  192SLPC  C31322302   3.740   1.358   8.046 -0.1313 -0.1579 -0.2872
  192SLPC  H13X22303   3.642   1.386   8.089  0.1606 -1.4827  1.3004
  192SLPC  H13Y22304   3.795   1.454   8.048 -0.3641 -0.0120 -0.7171
  192SLPC  C31422305   3.797   1.254   8.149 -0.2398 -0.1528 -1.1659
  192SLPC  H14X22306   3.904   1.233   8.129 -0.5447  0.7892 -4.3394
  192SLPC  H14Y22307   3.736   1.162   8.141  1.5139 -1.6072  1.0020
  192SLPC  C31522308   3.777   1.295   8.302 -1.0927  0.0718  0.1296
  192SLPC  H15X22309   3.673   1.265   8.328 -1.0498 -1.7757 -1.5728
  192SLPC  H15Y22310   3.780   1.406   8.297 -2.1699  0.0509 -1.9742
  192SLPC  C31622311   3.890   1.247   8.391 -0.4526 -0.0362 -0.1894
  192SLPC  H16X22312   3.894   1.318   8.476  0.5324 -0.0548 -0.2037
  192SLPC  H16Y22313   3.990   1.261   8.344 -0.7631  1.6619 -0.3896
  192SLPC  C31722314   3.887   1.098   8.447  0.5074 -0.2155 -0.3903
  192SLPC  H17X22315   3.978   1.080   8.509 -0.7872 -0.8148  1.4029
  192SLPC  H17Y22316   3.884   1.021   8.367  1.1695  0.7237 -1.3520
  192SLPC  C31822317   3.757   1.078   8.519 -0.6231 -0.4494 -0.0126
  192SLPC  H18X22318   3.677   1.090   8.442  2.7091  1.9859 -3.4740
  192SLPC  H18Y22319   3.747   1.148   8.605  1.4550 -2.9585  2.4569
  192SLPC  H18Z22320   3.751   0.975   8.559  2.9775 -0.4992  0.6718
  193SOD    SOD22321   2.120   6.334  10.832 -0.0666  0.3778 -0.4027
  194SOD    SOD22322   6.661   5.089   5.510 -0.1926 -0.4363  0.0392
  195SOD    SOD22323   3.633   5.833  16.411 -0.0452  0.7996  0.4812
  196SOD    SOD22324   0.857   2.536   5.640 -0.0616 -0.0413 -0.1043
  197SOD    SOD22325   4.624   5.956  11.144  0.0864 -0.6317 -0.3723
  198SOD    SOD22326   6.763   3.692  11.375  0.0395  0.1124  0.4641
  199SOD    SOD22327   1.016   5.902  13.691  0.1727  0.2044 -0.0863
  200SOD    SOD22328   0.679   1.335   0.854 -0.2915  0.1760  0.1434
  201SOD    SOD22329   0.542   2.486   2.606  0.2014 -0.2482  0.2321
  202SOD    SOD22330   0.164   6.206  10.543 -0.1539 -0.1889  0.0857
  203SOD    SOD22331   6.187   5.646  14.898  0.0635  0.0952  0.3156
  204SOD    SOD22332   1.909   2.188  14.403 -0.6134 -0.1498  0.3364
  205SOD    SOD22333   3.178   3.239   4.695  0.1690  0.2345 -0.2676
  206SOD    SOD22334   2.840   3.272   6.420 -0.2230 -0.1059  0.1332
  207SOD    SOD22335   0.817   6.805   5.069  0.1012  0.3007 -0.6811
  208SOD    SOD22336   0.980   0.930  13.215 -0.3933 -0.0979 -0.2360
  209SOD    SOD22337   3.664   3.284   0.585 -0.1980  0.0391  0.2120
  210SOD    SOD22338   2.414   4.995  15.389  0.1010 -0.0864  0.0333
  211SOD    SOD22339   0.386   3.478   6.162  0.0741 -0.2164 -0.1891
  212SOD    SOD22340   1.160   6.011   0.791 -0.0773 -0.1966  0.2082
  213SOD    SOD22341   3.142   6.629  16.640  0.2905 -0.3005  0.4248
  214SOD    SOD22342   3.710   5.431   3.445 -0.1209  0.3929 -0.1285
  215SOD    SOD22343   0.601   5.542  12.300 -0.0740  0.3578 -0.2897
  216SOD    SOD22344   1.293   6.732  16.445 -0.1797  0.3647  0.0951
  217SOD    SOD22345   3.642   0.439  14.914 -0.2609  0.1957 -0.0950
  218SOD    SOD22346   4.047   1.833   2.602 -0.0755  0.1766 -0.6874
  219SOD    SOD22347   6.365   1.080   6.165 -0.0730  0.2390 -0.1232
  220SOD    SOD22348   3.900   2.292  13.433 -0.4056 -0.5442  0.2531
  221SOD    SOD22349   3.302   1.819  11.285  0.3726  0.0235  0.7740
  222SOD    SOD22350   5.360   1.516   0.992 -0.0578 -0.0086  0.8971
  223SOD    SOD22351   0.265   4.589  14.348 -0.1413 -0.6194 -0.0411
  224SOD    SOD22352   2.830   3.183  12.343 -0.4783  0.5691 -0.0503
  225SOD    SOD22353   1.624   1.404  14.333 -0.5019 -0.2771 -0.1010
  226SOD    SOD22354   0.720   0.638   3.592 -0.0798 -0.5196  0.0335
  227SOD    SOD22355   6.456   0.307   3.832  0.3087  0.5061 -0.1401
  228SOD    SOD22356   6.705   4.523  16.429  0.5213 -0.4130 -0.0576
  229SOD    SOD22357   6.692   0.979   1.499 -0.5527  0.1299  0.3657
  230SOD    SOD22358   3.019   5.911   1.289  0.0941  0.1115  0.0004
  231SOD    SOD22359   1.074   5.358   1.689 -0.9718 -0.2220  0.2440
  232SOD    SOD22360   1.637   5.242  10.403 -0.1921 -0.2009  0.1263
  233SOD    SOD22361   6.676   5.084   4.990 -0.1964 -0.0221 -0.4894
  234SOD    SOD22362   6.405   0.200  16.168  0.2843  0.0589 -0.1950
  235SOD    SOD22363   5.541   3.934  10.688 -0.1083  0.2021 -0.0353
  236SOD    SOD22364   5.274   2.227  11.224  0.3337  0.0147  0.1229
  237SOD    SOD22365   0.589   0.326  11.222  0.0849  0.2684  0.1666
  238SOD    SOD22366   0.335   0.826   0.809  0.2118  0.0473  0.5912
  239SOD    SOD22367   4.019   4.924  14.385 -0.4040 -0.2765 -0.1851
  240SOD    SOD22368   6.137   0.087   6.188  0.0390  0.0125  0.3725
  241SOD    SOD22369   4.400   3.420   5.240  0.1006 -0.1483  0.0857
  242SOD    SOD22370   3.066   6.709   5.483 -0.7833  0.0846  0.0383
  243SOD    SOD22371   0.336   1.431  13.468  0.4956  0.3663 -0.5787
  244SOD    SOD22372   4.181   3.265   2.489  0.3896  0.2530 -0.5723
  245SOD    SOD22373   1.947   2.183  13.254  0.1456  0.0198 -0.1343
  246SOD    SOD22374   1.585   6.760  17.003 -0.0518  0.3055 -0.2291
  247SOD    SOD22375   3.785   4.111   1.093  0.4483  0.6551  0.3497
  248SOD    SOD22376   2.208   0.452   1.823  0.0257 -0.1991  0.2510
  249SOD    SOD22377   4.426   4.496  16.223  0.1189  0.3498 -0.1558
  250SOD    SOD22378   6.382   2.262  14.844 -0.1726  0.8300 -0.3565
  251SOD    SOD22379   4.295   1.782  15.002 -0.2415  0.3587  0.1919
  252SOD    SOD22380   4.430   5.192  11.826  0.1212  0.0981 -0.1307
  253SOD    SOD22381   2.112   3.858  11.581 -0.1815  0.3417 -0.1501
  254SOD    SOD22382   4.070   1.088   5.326 -0.0082  0.8365 -0.6431
  255SOD    SOD22383   4.135   1.351   4.336 -0.0863  0.2511  0.3717
  256SOD    SOD22384   0.738   0.691  15.018 -0.8891  0.1661 -0.0111
  257SOD    SOD22385   6.402   1.067  15.584  0.1920 -0.0428  0.1653
  258SOD    SOD22386   1.516   2.040  13.841  0.5888 -0.3419 -0.2027
  259SOD    SOD22387   0.538   4.318   2.232 -0.1570 -0.2013 -0.1920
  260SOD    SOD22388   5.331   3.688   4.961  0.2227  0.1033  0.3377
  261SOD    SOD22389   4.940   5.161  16.507 -0.0944  0.1419  0.3080
  262SOD    SOD22390   4.991   4.499  13.690 -0.3221 -0.1321  0.3668
  263SOD    SOD22391   3.824   3.902   6.563 -0.1434  0.4839 -0.2854
  264SOD    SOD22392   0.957   5.192   4.700 -0.0879  0.1543  0.2316
  265SOD    SOD22393   0.016   4.513   4.311 -0.3030  0.2265  0.0695
  266CLA    CLA22394   4.817   5.348  15.997  0.3794 -0.1949 -0.2948
  267CLA    CLA22395   5.401   5.043  12.486 -0.2672  0.2914  0.3838
  268CLA    CLA22396   5.997   4.214  17.190 -0.0288  0.3135  0.2982
  269CLA    CLA22397   6.753   6.695   1.357  0.4647  0.3912 -0.2749
  270CLA    CLA22398   2.453   6.431   0.672 -0.0776 -0.6708  0.3702
  271CLA    CLA22399   1.463   1.527  13.740 -0.2411  0.3341  0.1922
  272CLA    CLA22400   1.330   2.474  15.275  0.4134 -0.4033  0.2622
  273CLA    CLA22401   4.112   2.290   1.330  0.0579 -0.2169  0.0851
  274CLA    CLA22402   2.931   6.032  12.962 -0.0754  0.0087 -0.1343
  275CLA    CLA22403   0.912   4.420   1.482 -0.0505  0.3373  0.0008
  276CLA    CLA22404   3.171   2.842   2.348  0.1857 -0.1915  0.1327
  277CLA    CLA22405   3.563   3.229  14.058  0.1323 -0.1918  0.0961
  278CLA    CLA22406   5.985   5.947  14.488 -0.2901  0.5554  0.3495
  279CLA    CLA22407   0.025   6.499   3.985 -0.1320  0.0254  0.0498
  280CLA    CLA22408   2.443   5.665   1.720  0.0454  0.1974  0.2080
  281CLA    CLA22409   2.102   1.251   2.380  0.1860  0.4519  0.3992
  282CLA    CLA22410   4.677   0.853  14.420  0.0468  0.2383  0.0720
  283CLA    CLA22411   1.503   3.584  13.470  0.0825 -0.2387  0.1319
  284CLA    CLA22412   2.771   0.013  16.604 -0.1435 -0.1246  0.3902
  285CLA    CLA22413   5.093   1.144  15.841  0.2031  0.4338 -0.0264
  286CLA    CLA22414   4.234   5.250  14.507 -0.3394  0.6330  0.1032
  287CLA    CLA22415   3.895   3.584   2.719  0.1282 -0.0048  0.0600
  288CLA    CLA22416   6.099   6.443   4.778  0.0932 -0.0730  0.0232
  289CLA    CLA22417   0.695   2.046  16.129  0.6989 -0.2816 -0.2011
  290CLA    CLA22418   3.991   1.317   3.650  0.3179 -0.0656 -0.1208
  291CLA    CLA22419   0.047   6.306  16.742  0.0617  0.0484 -0.0611
  292CLA    CLA22420   6.788   2.437  13.751  0.1840  0.1339  0.6451
  293CLA    CLA22421   2.497   1.099   0.434 -0.3648  0.2254  0.1044
  294CLA    CLA22422   5.837   0.042   4.569 -0.1006 -0.0007  0.2578
  295CLA    CLA22423   5.513   2.191  14.603 -0.1620 -0.0868 -0.0148
  296CLA    CLA22424   6.504   2.790   5.021  0.0321 -0.3177  0.0334
  297CLA    CLA22425   4.322   2.087   4.057 -0.3153  0.0801  0.1862
  298CLA    CLA22426   2.181   2.064  14.981  0.3799  0.3064  0.2008
  299CLA    CLA22427   0.512   3.966   1.495  0.1129  0.2793  0.4245
  300CLA    CLA22428   6.074   4.605   4.168  0.2146  0.0868 -0.2084
  301CLA    CLA22429   2.988   0.701  15.459 -0.3476  0.2446  0.4267
  302CLA    CLA22430   2.732   5.539  15.495 -0.0803  0.0333 -0.1128
  303CLA    CLA22431   2.521   0.541  14.132  0.3749  0.3411  0.0453
  304CLA    CLA22432   2.829   4.523   5.235  0.4454  0.1173  0.2307
  305CLA    CLA22433   5.816   1.692  14.016 -0.0781  0.0149  0.7126
  306CLA    CLA22434   0.418   4.758  14.874 -0.3502  0.0065 -0.1780
  307CLA    CLA22435   0.098   4.580   4.549  0.2788  0.1302 -0.4766
  308CLA    CLA22436   1.898   6.683   0.960  0.0928 -0.1242 -0.0823
  309CLA    CLA22437   2.583   2.575   3.684  0.0492  0.0655  0.0487
  310CLA    CLA22438   1.112   0.188  15.168 -0.1791  0.0899 -0.1815
  311CLA    CLA22439   4.060   3.065  15.442 -0.5509 -0.1783  0.1009
  312CLA    CLA22440   5.808   4.038  15.382 -0.2894  0.4301 -0.1181
  313CLA    CLA22441   1.143   5.469   0.208  0.2327  0.1037 -0.1238
  314CLA    CLA22442   3.651   6.666  16.674  0.2042  0.3954  0.2479
  315CLA    CLA22443   3.037   3.143  11.907  0.2593 -0.1874  0.0067
  316CLA    CLA22444   1.926   0.356  17.108  0.2679  0.4070 -0.1413
  317CLA    CLA22445   3.812   3.301   0.350  0.3173  0.0969 -0.1654
  318CLA    CLA22446   1.121   1.461  14.064 -0.4285  0.1284 -0.1651
  319TIP3   OH222447   2.183   6.792   4.282 -0.2989 -0.1703  0.1448
  319TIP3    H122448   2.147   6.846   4.211 -0.8533 -0.6337  0.0647
  319TIP3    H222449   2.172   6.846   4.361  2.2277  1.2403 -0.3489
  320TIP3   OH222450   1.655   0.789  14.822 -0.1793  0.0673 -0.2569
  320TIP3    H122451   1.674   0.703  14.860  0.6642  1.1564  1.9671
  320TIP3    H222452   1.741   0.825  14.799 -0.4481  0.6648 -0.3641
  321TIP3   OH222453   3.014   3.091   5.686  0.0953 -0.2445  0.9077
  321TIP3    H122454   2.949   3.021   5.682 -0.7939  0.6235 -1.3565
  321TIP3    H222455   3.098   3.047   5.669 -0.5059 -0.7413 -1.0204
  322TIP3   OH222456   4.280   0.049   0.240 -0.3499 -0.9436 -0.5947
  322TIP3    H122457   4.193   0.014   0.225 -1.4064  1.4509 -0.4160
  322TIP3    H222458   4.285   0.064   0.334  0.2081 -0.9465 -0.6151
  323TIP3   OH222459   6.382   6.618   0.707 -0.0491 -0.0185  0.3354
  323TIP3    H122460   6.448   6.569   0.757 -0.3484 -0.7153  0.0718
  323TIP3    H222461   6.346   6.680   0.770 -0.7406 -1.1908  1.1406
  324TIP3   OH222462   2.271   1.301   1.423 -0.2304 -0.1913 -0.1738
  324TIP3    H122463   2.262   1.299   1.328 -1.0814  2.0774 -0.2249
  324TIP3    H222464   2.362   1.330   1.438 -0.2902  0.0857 -0.3327
  325TIP3   OH222465   0.828   1.093   1.611 -0.2208 -0.1151 -0.4350
  325TIP3    H122466   0.752   1.034   1.610 -0.7002  0.4712  0.3752
  325TIP3    H222467   0.901   1.038   1.640 -0.7524 -0.2255  0.7372
  326TIP3   OH222468   5.138   3.947   4.635  0.2556 -0.4082 -0.0610
  326TIP3    H122469   5.174   3.865   4.601 -0.0163 -0.4906 -0.1525
  326TIP3    H222470   5.210   4.009   4.630  0.8059 -0.9232  1.0487
  327TIP3   OH222471   6.472   3.107   3.548  0.2947  0.0541  0.0776
  327TIP3    H122472   6.401   3.071   3.496  1.5876  2.0104 -3.3232
  327TIP3    H222473   6.550   3.062   3.515  0.9956  0.0328  1.6806
  328TIP3   OH222474   3.012   1.658   4.047  0.4920  0.3557 -0.3835
  328TIP3    H122475   3.096   1.693   4.078  0.7979 -0.4910 -0.2544
  328TIP3    H222476   2.947   1.701   4.104  0.9022  0.3473  0.1019
  329TIP3   OH222477   2.127   1.693  12.833 -0.2892 -0.1212 -0.3288
  329TIP3    H122478   2.042   1.650  12.839 -0.2299 -0.0552  2.7636
  329TIP3    H222479   2.108   1.786  12.848  0.0542  0.4380 -2.8431
  330TIP3   OH222480   3.068   1.393   3.297  0.3114 -0.7374 -0.3962
  330TIP3    H122481   3.008   1.320   3.282 -1.3949  0.1267  1.6852
  330TIP3    H222482   3.016   1.458   3.344  2.5536  0.6085  0.3961
  331TIP3   OH222483   6.522   4.773   4.872  0.3023 -0.4065 -0.4278
  331TIP3    H122484   6.549   4.860   4.844 -0.0373  0.3106  1.3160
  331TIP3    H222485   6.599   4.718   4.860  0.4871  0.0887 -1.6364
  332TIP3   OH222486   5.618   3.434   2.743 -0.4148  0.3087 -0.0965
  332TIP3    H122487   5.631   3.523   2.773  1.1279 -0.0650  0.4227
  332TIP3    H222488   5.523   3.425   2.734 -0.6985  1.4950  1.3821
  333TIP3   OH222489   3.010   3.912  11.540  0.2841  0.2717  0.4434
  333TIP3    H122490   2.931   3.882  11.586  0.1380  0.3077  0.2192
  333TIP3    H222491   2.981   3.924  11.449  1.3989 -3.2233 -0.5225
  334TIP3   OH222492   0.498   0.560   1.010 -0.0492 -0.2192  0.6914
  334TIP3    H122493   0.464   0.626   1.071  1.0165 -0.0458  1.1153
  334TIP3    H222494   0.567   0.515   1.059  0.5239 -0.3784 -0.2367
  335TIP3   OH222495   6.320   4.324  15.866  0.2510 -0.1533  0.4747
  335TIP3    H122496   6.335   4.390  15.934  0.7184  1.3932 -1.0639
  335TIP3    H222497   6.233   4.289  15.886  0.1849  0.5985  1.5966
  336TIP3   OH222498   0.130   5.597   2.019  0.2560  0.1202 -0.3912
  336TIP3    H122499   0.184   5.641   1.953  1.6215 -0.7806  0.0726
  336TIP3    H222500   0.128   5.658   2.092 -1.7162  1.3580 -1.4191
  337TIP3   OH222501   5.473   5.105  12.187 -0.1848  0.0775  0.0624
  337TIP3    H122502   5.457   5.069  12.274  0.5387 -0.0908  0.1316
  337TIP3    H222503   5.496   5.029  12.133 -0.6791  0.1717 -0.2898
  338TIP3   OH222504   3.171   4.957  12.427  0.8561 -0.0116  0.1344
  338TIP3    H122505   3.175   4.947  12.332  2.2416  1.3619  0.0088
  338TIP3    H222506   3.091   5.008  12.442  0.0283 -1.1770 -0.1705
  339TIP3   OH222507   0.144   3.093  14.525 -0.4018  0.1477  0.3731
  339TIP3    H122508   0.137   3.189  14.527 -1.8377  0.0729  0.1956
  339TIP3    H222509   0.055   3.062  14.542 -1.1591 -1.1125 -4.2892
  340TIP3   OH222510   5.848   5.216  12.820  0.4609 -0.0830  0.3239
  340TIP3    H122511   5.776   5.178  12.870 -0.0427 -1.7228 -1.4943
  340TIP3    H222512   5.907   5.143  12.803  0.7854  0.4636 -1.1146
  341TIP3   OH222513   3.669   3.178  14.550  0.5994  0.0420  0.3611
  341TIP3    H122514   3.706   3.121  14.618 -0.3650 -0.3201  0.5999
  341TIP3    H222515   3.591   3.216  14.591  1.3374  1.7265  0.2835
  342TIP3   OH222516   2.971   0.821   0.175 -0.0384 -0.4106  0.5116
  342TIP3    H122517   3.060   0.858   0.170  0.3002 -1.1034  1.2308
  342TIP3    H222518   2.984   0.727   0.167 -0.6683 -0.5539  1.1016
  343TIP3   OH222519   6.165   6.146   4.732 -0.0785 -0.2565 -0.5781
  343TIP3    H122520   6.127   6.233   4.719 -0.2393 -0.3536 -0.7768
  343TIP3    H222521   6.259   6.160   4.734  0.1172 -0.4133 -3.7120
  344TIP3   OH222522   4.695   1.133   5.533 -0.0631 -0.1110 -0.7448
  344TIP3    H122523   4.786   1.112   5.512 -0.4313 -1.7225 -0.9155
  344TIP3    H222524   4.688   1.116   5.627 -0.0077  0.7692 -0.5764
  345TIP3   OH222525   2.590   0.674   3.350 -0.1701 -0.2889 -0.1149
  345TIP3    H122526   2.532   0.598   3.355  0.3774 -0.6143  1.9788
  345TIP3    H222527   2.677   0.640   3.369  0.0110  0.8955  1.3587
  346TIP3   OH222528   1.440   2.117   3.585  0.4774  0.4044  0.0539
  346TIP3    H122529   1.402   2.184   3.642  0.3968  0.4612 -0.0680
  346TIP3    H222530   1.425   2.035   3.633  0.0624  0.4072 -0.0652
  347TIP3   OH222531   6.263   5.815  16.875 -0.7690 -0.5366  0.4581
  347TIP3    H122532   6.273   5.738  16.818  0.2457  0.3509 -0.6092
  347TIP3    H222533   6.192   5.865  16.835 -1.1078 -0.6713  0.8828
  348TIP3   OH222534   1.141   5.109  15.425  0.0183 -0.6252  0.2490
  348TIP3    H122535   1.192   5.112  15.506  0.9050 -0.7862 -0.2785
  348TIP3    H222536   1.063   5.058  15.447  0.1477 -0.4867  1.0471
  349TIP3   OH222537   5.667   4.003   1.375 -0.3158 -0.6365  0.3855
  349TIP3    H122538   5.612   4.062   1.427 -1.7105 -1.9223  0.4347
  349TIP3    H222539   5.645   4.024   1.284 -0.6770 -0.9413  0.3999
  350TIP3   OH222540   4.048   1.682  14.738 -0.5105 -0.0901  0.1762
  350TIP3    H122541   4.140   1.659  14.726 -0.7390 -2.2350  1.9748
  350TIP3    H222542   4.004   1.599  14.752 -2.6244  0.9644  0.1954
  351TIP3   OH222543   4.168   1.699  15.854  0.2269  0.4743  0.1513
  351TIP3    H122544   4.116   1.629  15.816  1.1340  0.4322 -1.0814
  351TIP3    H222545   4.125   1.779  15.827 -0.3055  0.4203  0.8127
  352TIP3   OH222546   3.896   5.180  13.128  0.2998  0.1727 -0.1011
  352TIP3    H122547   3.955   5.172  13.054  2.1128  0.8983  1.1825
  352TIP3    H222548   3.886   5.274  13.141 -1.0198  0.0592 -0.1822
  353TIP3   OH222549   2.166   1.575   1.500  0.3541 -0.0120  0.1765
  353TIP3    H122550   2.211   1.493   1.478 -2.0244 -1.0343 -1.2277
  353TIP3    H222551   2.151   1.571   1.594  0.6021 -1.0181  0.1768
  354TIP3   OH222552   4.948   0.287   2.321  0.0768 -0.6017  0.2901
  354TIP3    H122553   4.897   0.349   2.373  1.0974 -0.3585  1.0410
  354TIP3    H222554   4.892   0.209   2.316 -0.3331 -0.3828  1.1764
  355TIP3   OH222555   1.070   5.512   2.124 -0.3726 -0.1835 -0.6038
  355TIP3    H122556   1.151   5.461   2.119  1.2921  1.6205  3.2919
  355TIP3    H222557   1.096   5.602   2.105 -1.0944  0.6105  1.7533
  356TIP3   OH222558   2.655   5.856   1.584  0.0294 -0.2835  0.0072
  356TIP3    H122559   2.601   5.792   1.630  0.6490 -0.7633  0.0883
  356TIP3    H222560   2.703   5.902   1.653 -2.3722  2.1832  0.1865
  357TIP3   OH222561   2.471   1.524   1.773 -0.3894  0.5399  0.3365
  357TIP3    H122562   2.418   1.444   1.782 -0.3771  0.5163  0.1945
  357TIP3    H222563   2.416   1.593   1.812 -0.6108  0.5520  0.0029
  358TIP3   OH222564   6.116   3.912  15.412  0.3184  0.3685 -0.6249
  358TIP3    H122565   6.029   3.952  15.423  0.7986  1.7136 -1.5402
  358TIP3    H222566   6.161   3.928  15.495 -0.1643 -0.0236 -0.2774
  359TIP3   OH222567   3.788   2.565  14.102 -0.3982  0.9288 -0.4007
  359TIP3    H122568   3.722   2.551  14.035  0.6469  0.4363 -1.3659
  359TIP3    H222569   3.869   2.580  14.053  0.2516  1.3302  0.7443
  360TIP3   OH222570   0.348   5.370   5.291  0.3980 -0.5111  0.3022
  360TIP3    H122571   0.304   5.297   5.248 -0.9567 -0.5299  1.6437
  360TIP3    H222572   0.368   5.338   5.378 -0.8087  0.8888  1.1520
  361TIP3   OH222573   6.499   3.329   4.042  0.1097  0.1700 -0.8630
  361TIP3    H122574   6.592   3.350   4.048 -0.0169  0.3340  2.3498
  361TIP3    H222575   6.477   3.293   4.128 -2.4913 -1.2741 -2.0197
  362TIP3   OH222576   3.130   4.989   6.243 -0.3712  0.1962 -0.0784
  362TIP3    H122577   3.171   5.075   6.244 -0.9418  0.5009  1.9498
  362TIP3    H222578   3.200   4.930   6.213  0.5691  1.1242  0.2146
  363TIP3   OH222579   6.371   0.802  16.426  0.0816 -0.2482  0.0129
  363TIP3    H122580   6.302   0.825  16.365  2.0595  0.7326 -1.9801
  363TIP3    H222581   6.419   0.884  16.441  1.2805 -1.0401  0.7100
  364TIP3   OH222582   2.118   4.472  13.439  0.3800  0.3099  0.5330
  364TIP3    H122583   2.025   4.495  13.446  0.1140  0.2448 -1.9917
  364TIP3    H222584   2.118   4.376  13.436  0.4446  0.3345 -0.3136
  365TIP3   OH222585   4.828   4.730  17.062 -0.5417 -0.0062  0.3846
  365TIP3    H122586   4.871   4.809  17.030 -1.3289  0.5507  0.6935
  365TIP3    H222587   4.804   4.749  17.152  1.6114 -1.5559  1.3627
  366TIP3   OH222588   6.288   2.582  13.858 -0.1468  0.6943  0.2172
  366TIP3    H122589   6.273   2.669  13.823 -0.7052  1.1101  1.4169
  366TIP3    H222590   6.361   2.592  13.919  0.3473  0.1410 -0.2699
  367TIP3   OH222591   2.580   1.424  14.391  0.0121 -0.7693  0.1303
  367TIP3    H122592   2.534   1.362  14.447 -2.7077  0.9369 -0.0632
  367TIP3    H222593   2.511   1.466  14.339  1.8989  1.3077 -0.8606
  368TIP3   OH222594   6.174   6.401  11.567  0.3156 -0.0849  0.2717
  368TIP3    H122595   6.160   6.311  11.596  0.0599 -0.6658 -1.5646
  368TIP3    H222596   6.094   6.424  11.519  0.5890  0.9440  0.2868
  369TIP3   OH222597   2.254   5.063   3.371 -0.0367  0.3793  0.0311
  369TIP3    H122598   2.238   5.152   3.404 -0.3773  0.4138 -0.2184
  369TIP3    H222599   2.172   5.039   3.328  0.2403  0.1533 -0.3711
  370TIP3   OH222600   4.443   3.273  11.010 -0.2921  0.2806  0.4922
  370TIP3    H122601   4.435   3.353  10.959 -2.1225  0.8970  1.6511
  370TIP3    H222602   4.399   3.206  10.956  0.7749  0.1431 -0.2351
  371TIP3   OH222603   2.686   3.146   4.932  0.4033 -0.2540 -0.2941
  371TIP3    H122604   2.753   3.104   4.984 -0.2450 -1.9537 -0.7582
  371TIP3    H222605   2.637   3.201   4.994  2.1300  0.9654  0.0493
  372TIP3   OH222606   0.361   3.949   6.786 -0.0453 -0.5970  0.0995
  372TIP3    H122607   0.442   3.958   6.735 -1.0463 -0.3253 -1.4975
  372TIP3    H222608   0.351   4.034   6.829  0.0120 -0.2911 -0.4807
  373TIP3   OH222609   3.425   3.317   1.273  0.1268 -0.2711 -0.2354
  373TIP3    H122610   3.404   3.264   1.350  0.4188 -1.2672 -0.8133
  373TIP3    H222611   3.459   3.254   1.210  2.6037  0.8958 -0.1933
  374TIP3   OH222612   3.101   6.432  14.480 -0.0748 -0.2683  0.3433
  374TIP3    H122613   3.151   6.509  14.508 -0.6723  0.5147 -0.6431
  374TIP3    H222614   3.042   6.466  14.412 -1.2553 -1.3512  0.7913
  375TIP3   OH222615   3.230   5.163   1.572  0.1406 -0.2487 -0.1549
  375TIP3    H122616   3.294   5.094   1.594  0.9941  0.4400 -0.4116
  375TIP3    H222617   3.171   5.165   1.647  1.5168  0.3524  0.9663
  376TIP3   OH222618   5.936   3.870  16.600  0.3325  0.2749  0.4117
  376TIP3    H122619   5.946   3.832  16.687  0.0583  0.4044  0.5018
  376TIP3    H222620   6.006   3.934  16.593 -0.4365  1.2021  1.0416
  377TIP3   OH222621   0.586   3.752   3.466 -0.1426  0.2012  0.2632
  377TIP3    H122622   0.525   3.811   3.510 -0.2964 -1.1091  1.9243
  377TIP3    H222623   0.541   3.667   3.465  1.2102 -0.5517  0.5657
  378TIP3   OH222624   4.751   2.064   3.535  0.3342  0.5711  0.2607
  378TIP3    H122625   4.817   2.123   3.500  1.4850 -0.1083  1.2376
  378TIP3    H222626   4.798   2.005   3.594 -0.9000 -0.8355 -0.0658
  379TIP3   OH222627   1.501   3.826   5.676  0.2051  0.4159 -0.0628
  379TIP3    H122628   1.567   3.805   5.742  0.0535  0.7647  0.2079
  379TIP3    H222629   1.436   3.757   5.684  1.9826 -1.7182 -2.4240
  380TIP3   OH222630   2.818   4.735   3.635 -0.1991  0.5618  0.3485
  380TIP3    H122631   2.807   4.743   3.730  0.9296 -1.5361  0.7240
  380TIP3    H222632   2.745   4.678   3.609 -0.0929  0.5577  0.0683
  381TIP3   OH222633   0.021   2.222   5.435 -0.5607 -0.4129  0.8607
  381TIP3    H122634  -0.017   2.202   5.521 -0.2274  3.1413  1.9906
  381TIP3    H222635   0.114   2.202   5.445 -0.7654 -1.4314  0.8032
  382TIP3   OH222636   0.857   2.521  11.298  0.2644  0.2633  0.2241
  382TIP3    H122637   0.847   2.585  11.227 -0.8646  0.2598  0.3638
  382TIP3    H222638   0.799   2.449  11.274  0.5557 -0.1438  0.7131
  383TIP3   OH222639   0.925   1.208   0.493 -0.1969  0.2734 -0.2978
  383TIP3    H122640   0.949   1.116   0.504  0.9593  0.8704  3.3669
  383TIP3    H222641   0.970   1.234   0.412  3.0741 -1.3562  0.8018
  384TIP3   OH222642   1.324   0.828  15.340 -0.6507  0.3025 -0.5843
  384TIP3    H122643   1.413   0.862  15.333 -0.4374  0.5787  2.1467
  384TIP3    H222644   1.335   0.735  15.363 -1.0423  0.3441 -0.2045
  385TIP3   OH222645   2.829   2.677   5.270 -0.8660  0.2445 -0.1445
  385TIP3    H122646   2.889   2.633   5.210 -0.3045 -1.3257  1.4789
  385TIP3    H222647   2.758   2.614   5.283 -1.1875  0.7275  0.5153
  386TIP3   OH222648   5.850   4.505  17.239  0.0480  0.0891  0.3689
  386TIP3    H122649   5.850   4.491  17.334  0.4291  0.7850  0.4791
  386TIP3    H222650   5.915   4.443  17.206  0.2246  0.1409  0.6121
  387TIP3   OH222651   3.658   5.787   4.150  0.0683  0.5776  0.4460
  387TIP3    H122652   3.748   5.775   4.181  0.2407 -0.0048 -0.2307
  387TIP3    H222653   3.636   5.877   4.173  1.8057  1.6746 -1.7605
  388TIP3   OH222654   1.126   0.280   0.634 -0.0351 -0.8383  0.4226
  388TIP3    H122655   1.075   0.361   0.638 -0.1079 -0.8499 -0.1629
  388TIP3    H222656   1.217   0.309   0.631 -0.0954 -0.6873 -1.4280
  389TIP3   OH222657   2.056   5.534   4.660 -0.1481 -0.1865  0.5476
  389TIP3    H122658   2.005   5.555   4.581 -0.9674 -1.8486  0.6110
  389TIP3    H222659   2.117   5.608   4.668 -1.9356  1.4461 -0.0204
  390TIP3   OH222660   5.171   3.356   3.944  0.3335  0.6530 -0.2077
  390TIP3    H122661   5.133   3.368   4.031  1.7450  2.0357  0.2770
  390TIP3    H222662   5.256   3.315   3.960 -0.1974 -0.8920 -1.1263
  391TIP3   OH222663   4.400   2.667  16.791  0.1646  0.0382  0.0801
  391TIP3    H122664   4.347   2.686  16.714 -0.1227  1.5962  0.6180
  391TIP3    H222665   4.450   2.589  16.767 -0.8693 -0.2774 -1.1833
  392TIP3   OH222666   1.018   5.362  14.287  0.1207  0.1642 -0.4716
  392TIP3    H122667   1.056   5.443  14.320  0.9428 -0.1126 -0.7304
  392TIP3    H222668   1.085   5.325  14.230 -0.1695 -0.7991 -0.2017
  393TIP3   OH222669   2.918   4.373   4.343 -0.1736 -0.1988  0.4326
  393TIP3    H122670   2.845   4.392   4.284  0.8281  2.3627 -0.1157
  393TIP3    H222671   2.877   4.352   4.427 -1.6550  3.8786  0.9316
  394TIP3   OH222672   6.350   1.499  16.594  0.2458  0.6488  0.5468
  394TIP3    H122673   6.408   1.441  16.545  1.1523  0.2898  2.0047
  394TIP3    H222674   6.264   1.483  16.555  1.1266  1.5827 -2.0242
  395TIP3   OH222675   6.056   2.419   1.267  0.1828  0.3932 -0.1513
  395TIP3    H122676   6.143   2.393   1.240  0.2792  0.7029 -0.1436
  395TIP3    H222677   6.002   2.342   1.253  0.3284  0.4003 -0.7602
  396TIP3   OH222678   3.476   2.920   6.292 -0.5780  0.3612  0.1495
  396TIP3    H122679   3.491   2.828   6.274  0.5540  0.3983  0.7567
  396TIP3    H222680   3.452   2.923   6.385 -1.1531  0.6311 -0.0045
  397TIP3   OH222681   4.025   5.340   4.594  0.0370  0.1432 -0.4275
  397TIP3    H122682   4.047   5.339   4.687 -0.5752  1.3959 -0.2400
  397TIP3    H222683   3.929   5.334   4.592  0.0828 -0.4616 -0.9998
  398TIP3   OH222684   5.257   2.638  13.301  0.0960 -0.0784 -0.0816
  398TIP3    H122685   5.255   2.713  13.359 -0.3831 -1.3001  1.5575
  398TIP3    H222686   5.346   2.637  13.265  1.0945 -0.3986  2.2103
  399TIP3   OH222687   3.722   0.929  12.600 -0.2928 -0.4304 -0.2904
  399TIP3    H122688   3.799   0.945  12.546  0.8272  1.7253  1.7648
  399TIP3    H222689   3.679   1.014  12.607 -0.5368 -0.6879  1.9205
  400TIP3   OH222690   3.035   1.759  11.249  0.1597  0.0933  0.0560
  400TIP3    H122691   3.014   1.686  11.191  2.7337 -0.4663 -0.2584
  400TIP3    H222692   3.028   1.836  11.193  1.1117 -0.2959 -0.6271
  401TIP3   OH222693   0.569   6.645   2.241 -0.5572  0.5365  0.1602
  401TIP3    H122694   0.621   6.576   2.201 -1.1063 -0.7173  1.4812
  401TIP3    H222695   0.541   6.608   2.325 -3.1203  1.3536 -0.2573
  402TIP3   OH222696   6.801   2.812  15.603 -0.5191  0.0196 -0.0659
  402TIP3    H122697   6.825   2.875  15.535 -0.3817 -0.6137 -0.6215
  402TIP3    H222698   6.741   2.860  15.660  0.1331  0.8620 -0.0728
  403TIP3   OH222699   1.077   4.209  12.799 -0.2666  0.1110  0.2712
  403TIP3    H122700   1.012   4.275  12.774  2.0127  2.0380 -0.9660
  403TIP3    H222701   1.102   4.234  12.888  1.3957  1.7166 -0.5873
  404TIP3   OH222702   1.408   0.195  13.767 -0.1149  0.2116 -0.1177
  404TIP3    H122703   1.354   0.141  13.824  0.0278 -0.9248 -1.0353
  404TIP3    H222704   1.493   0.201  13.812 -0.9938  2.1669  1.4235
  405TIP3   OH222705   1.656   5.041  11.885  0.8017 -0.1226 -0.1793
  405TIP3    H122706   1.642   5.122  11.836  0.3221 -0.6022 -0.8539
  405TIP3    H222707   1.613   5.056  11.969 -2.3850 -0.8674 -1.5140
  406TIP3   OH222708   3.866   5.609  14.776  0.0827  0.6020  0.3019
  406TIP3    H122709   3.930   5.674  14.806  0.8014 -0.5033  1.2063
  406TIP3    H222710   3.915   5.553  14.715 -0.5715  0.9615 -0.5847
  407TIP3   OH222711   5.401   5.266  13.202  0.2565 -0.7926 -0.1756
  407TIP3    H122712   5.424   5.215  13.124  0.3350 -1.3601  0.2095
  407TIP3    H222713   5.448   5.349  13.191 -0.9162 -0.2494 -1.4528
  408TIP3   OH222714   2.646   4.039  16.509 -0.7235  0.2928 -0.2795
  408TIP3    H122715   2.701   3.962  16.522 -0.4768  0.2278 -1.6177
  408TIP3    H222716   2.573   4.026  16.570 -0.1120 -0.4350  0.3193
  409TIP3   OH222717   3.707   4.893  11.944 -0.0529  0.5927 -0.1038
  409TIP3    H122718   3.702   4.985  11.969 -1.3428  0.1705  1.3487
  409TIP3    H222719   3.619   4.872  11.912 -0.3158 -0.5666  1.2831
  410TIP3   OH222720   1.381   2.128   5.721  0.1806 -0.0413 -0.8153
  410TIP3    H122721   1.348   2.124   5.811 -1.3026  0.3798 -1.3116
  410TIP3    H222722   1.402   2.037   5.699  0.3819 -0.1715 -0.1031
  411TIP3   OH222723   2.332   5.042  16.079 -0.2310  0.2286 -0.3419
  411TIP3    H122724   2.247   4.999  16.090  0.6982 -1.6801 -0.1377
  411TIP3    H222725   2.364   5.057  16.169 -0.1232  0.4451 -0.4152
  412TIP3   OH222726   1.325   5.546   4.285 -0.7456  0.3455 -0.3637
  412TIP3    H122727   1.366   5.489   4.219 -0.3485  0.0425  0.1400
  412TIP3    H222728   1.396   5.606   4.311 -0.3590 -0.7208  1.1297
  413TIP3   OH222729   6.362   3.874   1.115 -0.3002  0.0255  0.1294
  413TIP3    H122730   6.282   3.825   1.098  0.2792 -0.7292 -0.4661
  413TIP3    H222731   6.361   3.944   1.050  0.1020 -0.6963 -0.6818
  414TIP3   OH222732   3.861   2.583  15.676 -0.0848 -0.5378 -0.1695
  414TIP3    H122733   3.806   2.554  15.749  1.1872  0.0900  1.0784
  414TIP3    H222734   3.912   2.505  15.652 -1.2283 -1.0355 -1.1263
  415TIP3   OH222735   0.640   2.481  11.662  0.3068 -0.1830 -0.1856
  415TIP3    H122736   0.621   2.539  11.589 -1.5297 -0.4569  0.0358
  415TIP3    H222737   0.668   2.399  11.622  0.8260  0.1570 -0.5324
  416TIP3   OH222738   0.645   4.804   4.549 -0.1044 -0.3141 -0.0563
  416TIP3    H122739   0.663   4.762   4.634 -0.8689  1.2287  0.9128
  416TIP3    H222740   0.550   4.801   4.541 -0.2393  1.6818  0.3209
  417TIP3   OH222741   0.696   4.898   5.791 -0.2605 -0.0439  0.8375
  417TIP3    H122742   0.629   4.948   5.836 -1.4182 -3.0654  2.7943
  417TIP3    H222743   0.694   4.811   5.832  2.2660 -1.4499 -1.5873
  418TIP3   OH222744   4.109   1.889   1.453  1.1382 -0.8386 -0.0826
  418TIP3    H122745   4.105   1.842   1.369  2.1758  0.0252 -0.6317
  418TIP3    H222746   4.040   1.956   1.446  0.4577 -1.4933  0.2265
  419TIP3   OH222747   6.099   2.218  13.114 -0.3108 -0.1905  0.2619
  419TIP3    H122748   6.139   2.305  13.119  0.8977 -0.7260  0.3374
  419TIP3    H222749   6.118   2.179  13.199 -0.1160 -0.8273 -0.0689
  420TIP3   OH222750   4.115   1.596  12.207  0.2101  0.0070 -0.2983
  420TIP3    H122751   4.022   1.580  12.195 -0.1451  1.6163  0.1005
  420TIP3    H222752   4.141   1.537  12.278 -0.7982  0.4528  0.4550
  421TIP3   OH222753   6.222   3.862  13.398  0.1926  0.1124  0.0152
  421TIP3    H122754   6.144   3.918  13.403 -0.6158 -0.9518 -0.4355
  421TIP3    H222755   6.295   3.922  13.416 -0.7580  1.0150  1.0319
  422TIP3   OH222756   4.084   6.331   0.448  0.7227  0.5864 -0.8663
  422TIP3    H122757   3.996   6.311   0.479  0.1119  0.2171 -2.7358
  422TIP3    H222758   4.121   6.387   0.516 -0.8839  0.6077  0.0402
  423TIP3   OH222759   3.514   1.000  15.517  0.1638 -0.2266  0.4765
  423TIP3    H122760   3.419   0.991  15.528 -0.1059 -0.2761 -1.4278
  423TIP3    H222761   3.526   1.087  15.479  0.8512 -0.3329  0.4313
  424TIP3   OH222762   0.809   5.288   3.180  0.9435 -0.0272  0.1350
  424TIP3    H122763   0.808   5.198   3.214  0.7112  0.0666  0.3878
  424TIP3    H222764   0.901   5.312   3.177  1.0746 -0.6236 -0.8794
  425TIP3   OH222765   3.164   3.300  16.429  0.2980 -0.1925 -0.4391
  425TIP3    H122766   3.154   3.379  16.377 -0.0470 -0.2786 -0.5052
  425TIP3    H222767   3.075   3.282  16.462  0.6934  0.5350  1.1522
  426TIP3   OH222768   4.211   6.671   4.747 -0.1839  0.1163  0.2846
  426TIP3    H122769   4.212   6.747   4.805 -1.1743  0.2246  0.1838
  426TIP3    H222770   4.120   6.664   4.718  0.2059 -0.1761 -0.9468
  427TIP3   OH222771   5.106   5.552   3.330 -0.2489  0.0029 -0.3003
  427TIP3    H122772   5.099   5.522   3.239  0.9605 -2.3345  0.2859
  427TIP3    H222773   5.046   5.496   3.378  0.3962  0.0366  0.5625
  428TIP3   OH222774   4.135   2.836   3.387  0.0314  0.0322  0.2023
  428TIP3    H122775   4.066   2.789   3.436 -1.0874 -1.1624 -2.3358
  428TIP3    H222776   4.088   2.903   3.339  0.7974 -0.1264 -0.7829
  429TIP3   OH222777   5.056   4.947   3.270 -0.2869 -0.0469  0.2957
  429TIP3    H122778   5.141   4.920   3.306 -0.3836  2.0689  2.3318
  429TIP3    H222779   5.072   5.033   3.233 -1.5322  0.3624  0.6652
  430TIP3   OH222780   0.173   2.586   2.912 -0.5425 -0.3535 -0.0771
  430TIP3    H122781   0.153   2.523   2.842  0.4041 -0.5346 -0.2011
  430TIP3    H222782   0.093   2.636   2.922 -0.2101  0.8012 -2.4517
  431TIP3   OH222783   1.427   4.947   0.877  0.2555 -0.1090  0.2992
  431TIP3    H122784   1.352   4.906   0.835  2.1972 -3.7800  0.0179
  431TIP3    H222785   1.442   4.895   0.956  1.2626  1.8444  1.4687
  432TIP3   OH222786   4.371   2.970   3.457  0.3129 -1.0867  0.0798
  432TIP3    H122787   4.294   2.915   3.448 -1.4738  1.4733 -1.9412
  432TIP3    H222788   4.366   3.030   3.382  3.3113  0.3599  0.8836
  433TIP3   OH222789   3.528   2.921   5.055 -0.6080 -0.1645  0.3358
  433TIP3    H122790   3.435   2.908   5.074 -1.5136  2.2269 -1.7156
  433TIP3    H222791   3.542   2.871   4.974 -1.4753  2.9106 -1.9284
  434TIP3   OH222792   5.332   0.118  12.465  0.1230 -0.1406 -0.3073
  434TIP3    H122793   5.248   0.111  12.419 -0.6823  0.2086  1.0352
  434TIP3    H222794   5.342   0.212  12.481 -0.1115 -0.3265  1.0592
  435TIP3   OH222795   6.551   0.973  13.576 -0.2462  0.3048 -0.2712
  435TIP3    H122796   6.507   1.029  13.511 -1.1194 -1.2416 -1.0631
  435TIP3    H222797   6.598   0.908  13.523  1.9012  1.0437  0.5904
  436TIP3   OH222798   2.242   2.113   1.201  0.0931 -0.1839 -0.4322
  436TIP3    H122799   2.315   2.132   1.259  1.1222 -1.7082 -1.1444
  436TIP3    H222800   2.185   2.056   1.251 -0.6620  1.0258  0.1328
  437TIP3   OH222801   3.782   4.993   5.144 -0.3828  0.5573 -0.4041
  437TIP3    H122802   3.846   4.922   5.134  0.0912  0.6120  1.7068
  437TIP3    H222803   3.711   4.954   5.195 -0.3140  1.4406  0.4096
  438TIP3   OH222804   2.897   6.030  14.348  0.0688 -0.4064 -0.1956
  438TIP3    H122805   2.833   6.101  14.337  0.5117  0.0990  0.4188
  438TIP3    H222806   2.968   6.070  14.398  0.0214 -1.4703  0.7355
  439TIP3   OH222807   4.021   0.439   5.578  0.3584  0.5747  0.5354
  439TIP3    H122808   4.102   0.408   5.619  0.2865 -1.5061 -0.7782
  439TIP3    H222809   3.952   0.389   5.620 -0.1524  1.4951  0.8183
  440TIP3   OH222810   2.601   3.945  13.129 -0.3058  0.1290  0.3460
  440TIP3    H122811   2.540   3.874  13.148 -0.3859  0.7460  2.6270
  440TIP3    H222812   2.591   4.006  13.202  0.5655  1.9543 -0.9810
  441TIP3   OH222813   5.057   3.393   2.984  0.0016 -0.1168  0.0486
  441TIP3    H122814   4.982   3.410   3.041  0.3093  1.0741  0.1326
  441TIP3    H222815   5.129   3.374   3.044 -0.3011 -1.6485 -0.0423
  442TIP3   OH222816   1.896   5.890   4.129  0.1822 -0.7337 -0.1347
  442TIP3    H122817   1.880   5.798   4.148 -2.5263 -0.3775 -0.4058
  442TIP3    H222818   1.815   5.935   4.152  0.7027  1.3035 -1.9168
  443TIP3   OH222819   4.248   3.739   4.779 -0.1929  0.4389 -0.0112
  443TIP3    H122820   4.316   3.740   4.847 -1.0434 -3.2551  1.1384
  443TIP3    H222821   4.170   3.771   4.822 -0.4429 -0.7459  0.4629
  444TIP3   OH222822   6.214   0.891  11.378  0.9324  0.5221 -0.1111
  444TIP3    H122823   6.265   0.821  11.418 -1.1904 -0.1771  1.5195
  444TIP3    H222824   6.252   0.972  11.413  1.6094  0.0851  0.1818
  445TIP3   OH222825   2.996   4.346  15.496  0.2511  0.2166  0.0130
  445TIP3    H122826   3.005   4.419  15.434 -0.5301 -1.6994 -2.5231
  445TIP3    H222827   2.915   4.303  15.470  0.5093 -1.3816  1.6687
  446TIP3   OH222828   0.365   4.894   3.891 -0.3659  0.0833 -0.7458
  446TIP3    H122829   0.412   4.811   3.894 -0.8836 -0.2025 -0.0909
  446TIP3    H222830   0.281   4.873   3.849 -0.2122  0.4282 -1.2310
  447TIP3   OH222831   1.021   0.171   0.373  0.4790 -0.1491  0.2186
  447TIP3    H122832   1.052   0.160   0.463 -1.8728  1.4849  1.3587
  447TIP3    H222833   1.037   0.263   0.353 -0.2926 -0.1476 -0.4724
  448TIP3   OH222834   3.794   5.180  11.156 -0.5228  0.0358 -0.5660
  448TIP3    H122835   3.838   5.242  11.098  1.4161  0.1398  0.9374
  448TIP3    H222836   3.843   5.098  11.146 -0.8661 -0.2600  0.1073
  449TIP3   OH222837   2.501   2.008  16.878  0.3237  0.1495 -0.0118
  449TIP3    H122838   2.410   2.001  16.905  0.7025 -2.8949  0.8001
  449TIP3    H222839   2.497   2.020  16.783 -0.8881  0.8891  0.1151
  450TIP3   OH222840   3.914   2.312  11.570 -0.0205 -0.1063  0.0338
  450TIP3    H122841   4.009   2.302  11.561  0.0501  0.1184  0.5050
  450TIP3    H222842   3.886   2.233  11.616 -0.4802 -1.6050 -2.5982
  451TIP3   OH222843   0.628   3.648  13.040  0.0048 -0.2554 -0.3345
  451TIP3    H122844   0.723   3.658  13.036  0.1732  0.1672  2.4868
  451TIP3    H222845   0.615   3.555  13.058  0.0403 -0.0198  1.0472
  452TIP3   OH222846   4.392   1.535   3.951 -0.0955  0.0431 -0.1918
  452TIP3    H122847   4.358   1.624   3.965 -1.4105 -0.5695  0.7500
  452TIP3    H222848   4.486   1.543   3.963  0.0574  1.6417 -1.9436
  453TIP3   OH222849   2.051   4.513  11.416 -0.0394 -0.0588  0.4045
  453TIP3    H122850   2.129   4.528  11.363  0.1708  1.3188  1.0555
  453TIP3    H222851   2.035   4.597  11.459 -1.4348 -0.5423  0.8775
  454TIP3   OH222852   2.007   2.842  16.385 -0.1299  0.4103 -0.6219
  454TIP3    H122853   2.022   2.829  16.291  0.3715  0.0758 -0.4987
  454TIP3    H222854   1.990   2.754  16.419 -0.9938  0.6085 -0.5091
  455TIP3   OH222855   2.179   2.236  15.841  0.3341 -0.0350 -0.3571
  455TIP3    H122856   2.136   2.155  15.813 -0.3324  0.6055 -1.2388
  455TIP3    H222857   2.238   2.209  15.912 -0.0299 -1.2518 -0.5008
  456TIP3   OH222858   0.500   6.416   1.060  0.5545  0.6228  0.2552
  456TIP3    H122859   0.421   6.464   1.037  0.1143  0.3525  1.1609
  456TIP3    H222860   0.572   6.478   1.044  0.0559  1.3326  0.7235
  457TIP3   OH222861   6.633   0.917   2.724 -0.4167 -0.2719  0.0225
  457TIP3    H122862   6.600   0.948   2.807  0.2501 -1.7659  0.8855
  457TIP3    H222863   6.560   0.927   2.663 -1.0204  0.5150  0.8544
  458TIP3   OH222864   5.343   1.814   1.865 -0.2264  0.4549  0.9863
  458TIP3    H122865   5.301   1.730   1.884 -1.2972  0.9090  0.7419
  458TIP3    H222866   5.271   1.877   1.867  0.7119  1.5384  2.1626
  459TIP3   OH222867   5.194   0.844   2.724 -0.0593 -0.3818 -0.3294
  459TIP3    H122868   5.169   0.773   2.664 -1.2910  0.1410 -0.4477
  459TIP3    H222869   5.215   0.918   2.666 -0.1951 -0.2026 -0.1496
  460TIP3   OH222870   0.360   1.753   4.359  0.0864 -0.2858 -0.0613
  460TIP3    H122871   0.355   1.790   4.447  0.8120  1.0425 -0.5541
  460TIP3    H222872   0.320   1.666   4.368  0.1322 -0.1816  1.5640
  461TIP3   OH222873   2.262   6.418  10.660 -0.2435  0.2227  0.1256
  461TIP3    H122874   2.353   6.445  10.670  0.2069 -0.4070 -1.7539
  461TIP3    H222875   2.219   6.491  10.615 -0.2753 -0.1031 -0.3810
  462TIP3   OH222876   2.469   1.894   3.849  0.2558  0.8573  0.0699
  462TIP3    H122877   2.426   1.935   3.774  1.7039 -0.1093 -1.3524
  462TIP3    H222878   2.447   1.951   3.923 -2.1554  1.2232 -0.8407
  463TIP3   OH222879   1.043   1.083  12.134 -0.2428 -0.0760  0.0000
  463TIP3    H122880   1.094   1.045  12.062 -0.9756 -0.7818 -0.1552
  463TIP3    H222881   1.062   1.177  12.130 -0.3617 -0.0939 -1.1926
  464TIP3   OH222882   6.800   5.067  14.577  0.2719 -0.0905  0.9778
  464TIP3    H122883   6.890   5.041  14.559  0.2785 -0.7968  1.9259
  464TIP3    H222884   6.808   5.134  14.645  0.2267  2.1184 -1.0834
  465TIP3   OH222885   2.070   1.449   2.883 -0.3253  0.2523  0.0431
  465TIP3    H122886   2.117   1.418   2.806 -3.6041  1.1926 -2.5744
  465TIP3    H222887   2.009   1.378   2.905  0.0668  0.2883  1.3738
  466TIP3   OH222888   2.990   3.689  11.994  0.2241  0.2348 -0.0443
  466TIP3    H122889   3.013   3.675  11.902  2.4796  2.3291  0.0872
  466TIP3    H222890   3.063   3.653  12.043 -0.3624  0.2507  0.8599
  467TIP3   OH222891   0.735   1.305  11.525  0.7409  0.0317 -0.1069
  467TIP3    H122892   0.698   1.367  11.587  2.1974  1.2258 -0.3775
  467TIP3    H222893   0.760   1.229  11.578 -0.1857  0.0625  0.3769
  468TIP3   OH222894   5.826   4.566  16.801  0.1397 -0.1887 -0.4439
  468TIP3    H122895   5.743   4.518  16.792  0.4921 -0.5017 -2.5065
  468TIP3    H222896   5.845   4.563  16.894 -2.0142 -0.3816  0.0464
  469TIP3   OH222897   0.154   4.424   5.651 -0.2842 -0.5008  0.1910
  469TIP3    H122898   0.217   4.352   5.658 -0.3016 -0.5693 -0.3183
  469TIP3    H222899   0.170   4.461   5.565 -0.0742  0.3066  0.5667
  470TIP3   OH222900   2.250   2.038   4.958 -0.3548 -0.2226  0.0067
  470TIP3    H122901   2.174   2.096   4.967 -0.4270 -0.0943 -1.1772
  470TIP3    H222902   2.324   2.093   4.983 -0.7243 -0.7577  2.5605
  471TIP3   OH222903   6.538   2.810   1.794 -0.0240  0.0939 -0.5468
  471TIP3    H122904   6.559   2.898   1.823  3.5646 -0.4831 -0.8705
  471TIP3    H222905   6.561   2.809   1.701 -1.1189 -0.9051 -0.8405
  472TIP3   OH222906   5.574   1.145   0.965 -0.6098 -0.2127  0.0009
  472TIP3    H122907   5.538   1.224   1.005  1.1863  0.0718  1.1312
  472TIP3    H222908   5.545   1.074   1.022  0.4654 -0.0035  0.8150
  473TIP3   OH222909   1.687   1.188  12.503  0.0731 -0.0182  0.0476
  473TIP3    H122910   1.608   1.174  12.450  0.2188  1.2144 -0.5326
  473TIP3    H222911   1.750   1.123  12.471 -0.5409 -0.6996  0.1980
  474TIP3   OH222912   4.689   2.862  15.148  0.2168 -0.6442  0.8314
  474TIP3    H122913   4.727   2.815  15.074  0.9864 -0.5929  1.1838
  474TIP3    H222914   4.631   2.799  15.190 -0.4828 -0.5663 -0.0134
  475TIP3   OH222915   4.334   1.060  12.145 -0.4339  0.2527  0.1968
  475TIP3    H122916   4.269   0.996  12.118 -0.5323  0.7011 -0.6767
  475TIP3    H222917   4.348   1.043  12.238 -0.0499 -1.3934 -0.1309
  476TIP3   OH222918   5.277   0.952   5.175  0.1091 -0.1781 -0.0311
  476TIP3    H122919   5.182   0.964   5.169 -0.2509 -2.2047  0.5447
  476TIP3    H222920   5.306   0.943   5.084 -0.2451  0.4430 -0.2103
  477TIP3   OH222921   2.810   5.064   2.611 -0.0252  0.5684 -0.6871
  477TIP3    H122922   2.888   5.079   2.558  0.1108 -0.2063 -0.7119
  477TIP3    H222923   2.738   5.094   2.556  0.1501  0.1447 -1.1528
  478TIP3   OH222924   0.605   6.111  13.993 -0.3462 -0.4598 -0.5926
  478TIP3    H122925   0.543   6.040  13.980  0.5068 -0.9198 -2.5093
  478TIP3    H222926   0.623   6.109  14.087 -2.2379 -1.1187 -0.1989
  479TIP3   OH222927   0.284   2.961   5.848  0.3245  0.0428  0.4551
  479TIP3    H122928   0.309   3.003   5.930 -0.0942 -0.9963  1.1382
  479TIP3    H222929   0.350   2.893   5.834 -0.1281 -0.4103  0.4483
  480TIP3   OH222930   2.089   0.277  15.890 -0.0502  0.2972 -0.0005
  480TIP3    H122931   2.025   0.326  15.942 -0.8557 -1.1325  0.4083
  480TIP3    H222932   2.166   0.335  15.886 -0.6219  1.1946  1.2469
  481TIP3   OH222933   4.454   5.535   1.973  0.1984 -0.3513  0.1184
  481TIP3    H122934   4.404   5.615   1.988  0.1610 -0.5292  0.9684
  481TIP3    H222935   4.462   5.530   1.877  0.6544  0.9411  0.0703
  482TIP3   OH222936   6.410   2.107   4.138  0.1325 -1.1895 -0.4442
  482TIP3    H122937   6.433   2.046   4.208 -0.2435 -0.2708  0.5063
  482TIP3    H222938   6.477   2.175   4.143  1.8687 -2.5319 -2.9134
  483TIP3   OH222939   3.852   4.311  14.015  0.0259 -0.3372 -0.0188
  483TIP3    H122940   3.851   4.246  13.945  2.2365 -2.0307  1.3748
  483TIP3    H222941   3.944   4.317  14.041 -0.4571  1.5773  1.5286
  484TIP3   OH222942   4.693   6.535   4.390  0.0277  0.4034 -0.5240
  484TIP3    H122943   4.599   6.532   4.404  0.0600 -1.0627 -0.4464
  484TIP3    H222944   4.727   6.462   4.442  1.0962  0.3380 -1.2770
  485TIP3   OH222945   4.617   1.596  15.329 -0.4267 -0.3597 -0.1256
  485TIP3    H122946   4.591   1.683  15.359 -0.1538  0.4515 -2.0694
  485TIP3    H222947   4.696   1.611  15.276 -0.1847 -1.8331 -0.2398
  486TIP3   OH222948   4.298   4.165   4.914  0.0503 -0.8504 -0.1464
  486TIP3    H122949   4.220   4.129   4.957 -1.1937  1.1663 -0.5892
  486TIP3    H222950   4.268   4.187   4.826  1.0117  0.2810 -0.2067
  487TIP3   OH222951   3.995   2.578   2.627  0.0370  0.1391  0.0796
  487TIP3    H122952   4.038   2.574   2.712  0.3116 -0.0843 -0.0672
  487TIP3    H222953   4.064   2.556   2.564 -0.3671 -0.5418 -0.1349
  488TIP3   OH222954   5.208   1.945  17.031  0.0576 -0.1934  0.4343
  488TIP3    H122955   5.122   1.986  17.044 -0.0784 -0.0754 -0.6963
  488TIP3    H222956   5.210   1.926  16.937  1.9022  1.2613  0.1198
  489TIP3   OH222957   6.084   5.699  11.532  0.1500 -0.0935  0.2080
  489TIP3    H122958   6.104   5.625  11.474  0.7976  0.1240  0.1435
  489TIP3    H222959   6.126   5.774  11.490  0.1509  0.1698  0.6742
  490TIP3   OH222960   4.782   5.353   0.354 -0.1717  0.1407 -0.1589
  490TIP3    H122961   4.865   5.380   0.393 -0.0689 -0.2104 -0.1254
  490TIP3    H222962   4.716   5.398   0.406 -0.0412 -0.4338  0.5322
  491TIP3   OH222963   3.654   1.889   2.456  0.0332 -0.2363 -0.5975
  491TIP3    H122964   3.707   1.960   2.492  0.5352 -1.2951  0.8244
  491TIP3    H222965   3.564   1.920   2.464  0.2210  0.0954  0.3633
  492TIP3   OH222966   5.019   1.473  16.788  0.8115 -0.4124  0.6501
  492TIP3    H122967   5.053   1.405  16.846 -0.9237  0.3452  2.6836
  492TIP3    H222968   4.950   1.516  16.839  0.1211  1.2135 -1.5010
  493TIP3   OH222969   4.825   1.255   2.082 -0.3021 -0.9949 -0.0005
  493TIP3    H122970   4.769   1.278   2.007 -0.7347 -0.2856  0.5212
  493TIP3    H222971   4.911   1.289   2.058 -0.3888 -0.9689 -0.2793
  494TIP3   OH222972   1.123   5.725  14.541  0.0406 -0.0228  0.0018
  494TIP3    H122973   1.159   5.763  14.621 -0.5142  1.7004 -0.5275
  494TIP3    H222974   1.080   5.798  14.496 -1.5729 -1.3918 -0.8122
  495TIP3   OH222975   0.680   4.287   4.205  0.5428  0.2511 -0.2329
  495TIP3    H122976   0.599   4.302   4.254 -0.0525 -1.9776 -0.4246
  495TIP3    H222977   0.651   4.244   4.125  1.7545  1.4434 -1.3614
  496TIP3   OH222978   0.810   2.507  11.877 -0.5723  0.5543  0.5448
  496TIP3    H122979   0.798   2.595  11.913 -1.0178  0.1658  1.3885
  496TIP3    H222980   0.759   2.508  11.796  1.1207  1.7026 -0.5827
  497TIP3   OH222981   2.718   5.835   2.932 -0.0875 -0.7948  0.0643
  497TIP3    H122982   2.758   5.900   2.989  0.6997  0.9787 -2.3717
  497TIP3    H222983   2.625   5.857   2.932  0.1871  0.4530 -0.8178
  498TIP3   OH222984   3.783   2.020   1.143  0.5472 -0.5471 -0.2859
  498TIP3    H122985   3.753   1.968   1.069 -1.9127  0.5493 -0.1653
  498TIP3    H222986   3.818   2.100   1.104 -0.9683  0.1356 -0.3327
  499TIP3   OH222987   3.783   1.302   4.457  0.3177 -1.0889 -0.4632
  499TIP3    H122988   3.832   1.289   4.376 -0.6209  1.4001 -1.5249
  499TIP3    H222989   3.757   1.214   4.483  3.2354 -2.2605 -1.1466
  500TIP3   OH222990   3.133   1.923  16.470  0.0843 -0.3063  0.5982
  500TIP3    H122991   3.047   1.966  16.468  0.9232  1.5728  1.6098
  500TIP3    H222992   3.114   1.830  16.463 -1.9023  0.1652 -1.0661
  501TIP3   OH222993   6.535   4.921  12.027 -0.3364 -0.1259 -0.0367
  501TIP3    H122994   6.584   4.998  11.999  0.9599 -1.1323 -0.6557
  501TIP3    H222995   6.450   4.955  12.054 -0.2315  1.3773 -1.4486
  502TIP3   OH222996   1.436   6.757  13.429 -0.2758 -0.3656  0.3159
  502TIP3    H122997   1.365   6.781  13.370  0.2961 -2.2114 -1.2379
  502TIP3    H222998   1.405   6.678  13.474  0.0411 -0.0589  1.1023
  503TIP3   OH222999   3.618   0.133  16.450 -0.0938  0.1063  0.1825
  503TIP3    H123000   3.604   0.061  16.512 -1.4334 -1.5525 -1.9122
  503TIP3    H223001   3.529   0.162  16.427  0.4097  1.9923  0.4172
  504TIP3   OH223002   2.897   4.937   6.426  0.0086 -0.2932 -0.1546
  504TIP3    H123003   2.852   4.863   6.385  1.9429 -2.9648  2.1375
  504TIP3    H223004   2.978   4.947   6.376  0.4362 -0.7749  0.4218
  505TIP3   OH223005   2.031   2.758   5.130  0.6719  0.1363  0.1479
  505TIP3    H123006   2.059   2.850   5.128 -0.3992  0.4709 -1.2600
  505TIP3    H223007   1.941   2.760   5.097  0.4183 -1.3637  0.6769
  506TIP3   OH223008   6.312   0.835  14.904 -1.0067 -0.0868 -0.6003
  506TIP3    H123009   6.228   0.798  14.878 -1.5234  0.6753 -0.0453
  506TIP3    H223010   6.292   0.926  14.928 -0.0432  0.0740 -0.3699
  507TIP3   OH223011   6.772   2.934  13.898  0.1668  0.3933 -0.8517
  507TIP3    H123012   6.826   2.861  13.870  1.0423  1.0107 -0.8395
  507TIP3    H223013   6.769   2.926  13.994 -2.9262 -1.7855 -0.9699
  508TIP3   OH223014   0.234   5.837  16.872 -0.1963 -0.2553 -0.2127
  508TIP3    H123015   0.269   5.753  16.845  1.4201 -0.0983  1.2448
  508TIP3    H223016   0.204   5.878  16.791  1.8773 -0.9229 -1.3887
  509TIP3   OH223017   1.435   1.398  13.124  0.2853  0.3060 -0.0642
  509TIP3    H123018   1.376   1.419  13.196  1.7160  0.7392  1.0224
  509TIP3    H223019   1.444   1.480  13.075 -1.6628 -0.2852 -1.5417
  510TIP3   OH223020   6.214   2.247  14.692  0.2155  0.0649 -0.2800
  510TIP3    H123021   6.154   2.321  14.697 -1.1597 -0.9167 -1.5934
  510TIP3    H223022   6.188   2.199  14.613  0.2902 -2.4598  1.1205
  511TIP3   OH223023   3.965   3.705   3.526 -0.0796 -0.3202  0.2437
  511TIP3    H123024   3.975   3.611   3.542  0.7865 -0.4150 -0.7017
  511TIP3    H223025   3.873   3.715   3.500 -0.0309 -1.0002 -0.2226
  512TIP3   OH223026   0.773   3.199  15.285  0.1793 -0.0896 -0.1384
  512TIP3    H123027   0.856   3.157  15.262  0.3494  0.3473 -0.3349
  512TIP3    H223028   0.738   3.147  15.357  1.4279  0.6722  1.0705
  513TIP3   OH223029   3.485   5.388   4.656 -0.4780  0.3140 -0.5552
  513TIP3    H123030   3.473   5.437   4.575 -1.8882 -0.7489 -1.0366
  513TIP3    H223031   3.434   5.437   4.721 -0.8437  0.1852 -0.7421
  514TIP3   OH223032   2.790   3.536   4.234  0.1561  0.6005  0.1494
  514TIP3    H123033   2.798   3.449   4.193  1.0193  0.5130  0.4954
  514TIP3    H223034   2.833   3.595   4.172 -1.7597  1.0470 -0.8382
  515TIP3   OH223035   5.042   3.698  12.069  0.7195  0.4023  0.4402
  515TIP3    H123036   4.994   3.654  12.139 -1.1264 -1.4579 -1.8016
  515TIP3    H223037   5.131   3.664  12.076  0.0266 -1.5614  0.5704
  516TIP3   OH223038   4.306   0.523   3.611  0.5074 -0.2782 -0.3712
  516TIP3    H123039   4.335   0.529   3.702 -2.3602  1.8115  0.5427
  516TIP3    H223040   4.337   0.604   3.570 -1.4385  0.6675 -0.1081
  517TIP3   OH223041   6.533   1.770   5.071 -0.5588 -0.1203  0.5005
  517TIP3    H123042   6.555   1.730   4.987 -0.5922  0.3544  0.2617
  517TIP3    H223043   6.495   1.699   5.122  0.9232 -0.8038  0.6995
  518TIP3   OH223044   4.458   2.538  14.930  1.1698 -0.1624 -0.0371
  518TIP3    H123045   4.494   2.450  14.919  2.7768  0.5543 -0.7651
  518TIP3    H223046   4.485   2.585  14.851 -0.7872  0.6441 -0.2887
  519TIP3   OH223047   6.206   4.495  14.513  0.2527  0.3868  0.2941
  519TIP3    H123048   6.174   4.410  14.544  2.5004 -0.0674  1.5841
  519TIP3    H223049   6.128   4.538  14.476 -1.2944 -1.5285  1.1451
  520TIP3   OH223050   1.842   2.976   0.955  0.0151  0.2903 -0.4648
  520TIP3    H123051   1.770   2.950   1.013 -0.2942  0.4326 -0.7780
  520TIP3    H223052   1.894   3.037   1.006 -1.2236  1.7802 -0.9039
  521TIP3   OH223053   3.287   0.983  16.660  0.0161 -0.0736  0.1588
  521TIP3    H123054   3.239   0.943  16.732  1.9613 -1.1286  0.9466
  521TIP3    H223055   3.377   0.991  16.692  1.0648 -0.9976 -2.2702
  522TIP3   OH223056   1.882   4.776  15.358 -0.2809 -0.2104 -0.3819
  522TIP3    H123057   1.853   4.806  15.444 -0.5820  0.8574 -0.8491
  522TIP3    H223058   1.978   4.777  15.363 -0.2899  0.6486 -0.3266
  523TIP3   OH223059   1.909   2.233   1.526 -0.1210  0.2364  0.1972
  523TIP3    H123060   1.829   2.285   1.530 -1.5169 -1.6806 -1.4666
  523TIP3    H223061   1.884   2.152   1.482  2.4054 -1.0800  0.9779
  524TIP3   OH223062   6.489   1.796   3.528 -0.3577  0.5851 -0.0205
  524TIP3    H123063   6.403   1.827   3.556 -0.4007  0.3397  0.1217
  524TIP3    H223064   6.480   1.781   3.434 -0.8456 -0.6284  0.1969
  525TIP3   OH223065   0.877   0.398  15.230  0.6339  0.3370 -0.3619
  525TIP3    H123066   0.797   0.356  15.199 -0.7572  3.2353 -1.1197
  525TIP3    H223067   0.946   0.334  15.216 -1.4029 -1.9168 -0.6027
  526TIP3   OH223068   5.057   0.674  12.569  0.2282  0.2425 -0.3472
  526TIP3    H123069   4.961   0.681  12.575  0.3118  1.4402 -0.2269
  526TIP3    H223070   5.086   0.762  12.546  1.5246  0.6882  2.6036
  527TIP3   OH223071   2.053   6.325   5.505 -0.3609 -0.1589 -0.3407
  527TIP3    H123072   2.148   6.334   5.503 -0.4492  0.9735 -0.1533
  527TIP3    H223073   2.037   6.259   5.572  0.2672  0.1010  0.0770
  528TIP3   OH223074   3.000   3.271  12.211 -0.0718  0.5957  0.0939
  528TIP3    H123075   2.997   3.256  12.117 -0.5450 -0.5729  0.2776
  528TIP3    H223076   3.080   3.226  12.240 -0.6869 -0.3037  0.4382
  529TIP3   OH223077   2.399   0.697  14.813 -0.6897 -0.4619 -0.1261
  529TIP3    H123078   2.374   0.745  14.892  1.4698  0.2949  0.1806
  529TIP3    H223079   2.472   0.641  14.841 -0.2797 -0.6284 -1.4445
  530TIP3   OH223080   6.059   5.585   3.495  0.2414  0.2222 -0.3969
  530TIP3    H123081   5.984   5.547   3.450  0.8417  0.4135 -1.5810
  530TIP3    H223082   6.126   5.594   3.428  0.9163  1.2054  0.3749
  531TIP3   OH223083   2.882   5.533   3.173  0.2752  0.2138  0.0697
  531TIP3    H123084   2.922   5.615   3.146 -0.3829  0.6750  0.4630
  531TIP3    H223085   2.924   5.512   3.256  1.8135 -0.8561 -0.9217
  532TIP3   OH223086   5.747   1.672   4.604 -0.9881 -0.3805  0.0785
  532TIP3    H123087   5.712   1.756   4.576 -1.1131 -0.8443 -1.2198
  532TIP3    H223088   5.801   1.643   4.531  0.7225 -0.4952  1.3310
  533TIP3   OH223089   6.563   3.399  15.580 -0.1911 -0.4276  0.0430
  533TIP3    H123090   6.566   3.345  15.659 -0.1911 -0.3142  0.1205
  533TIP3    H223091   6.651   3.395  15.545  0.0100  0.1503  0.4711
  534TIP3   OH223092   5.081   1.402  11.886 -0.1766  0.4637 -0.6925
  534TIP3    H123093   5.014   1.438  11.944 -0.2091 -1.3028  0.4221
  534TIP3    H223094   5.064   1.308  11.883  2.4151 -0.1142 -0.1165
  535TIP3   OH223095   4.209   3.752  11.331  0.1483  0.4088  0.3474
  535TIP3    H123096   4.152   3.806  11.277  0.7158  0.2468 -0.4309
  535TIP3    H223097   4.248   3.689  11.270  1.0818  0.4523  0.8680
  536TIP3   OH223098   1.888   5.244   4.738  0.2252  0.1523 -0.6527
  536TIP3    H123099   1.793   5.251   4.727  0.2855  0.7874 -0.8012
  536TIP3    H223100   1.910   5.315   4.798  0.5378 -0.3339 -0.1840
  537TIP3   OH223101   5.123   3.184  12.541  0.1085 -0.6116 -0.0080
  537TIP3    H123102   5.085   3.101  12.569  0.6631 -1.3472 -1.3420
  537TIP3    H223103   5.137   3.233  12.622 -2.0725 -0.9825  0.6761
  538TIP3   OH223104   5.614   4.896  16.024 -0.2680 -0.1562 -0.4453
  538TIP3    H123105   5.664   4.931  16.097  0.5444 -2.6545  0.3095
  538TIP3    H223106   5.637   4.952  15.950  1.0984  0.7259  0.5987
  539TIP3   OH223107   1.544   2.924   6.889  0.1524 -0.1214 -0.3092
  539TIP3    H123108   1.494   3.005   6.899  0.4567  0.5267 -3.0672
  539TIP3    H223109   1.477   2.855   6.886 -0.5928  0.5840 -2.5006
  540TIP3   OH223110   4.450   3.659  15.793 -0.3730 -0.3301 -0.3995
  540TIP3    H123111   4.454   3.566  15.813 -0.6024 -0.0503  1.0762
  540TIP3    H223112   4.358   3.682  15.807 -0.5558 -0.0928 -1.8571
  541TIP3   OH223113   4.699   4.797  13.773 -0.8257 -0.1968 -0.1280
  541TIP3    H123114   4.651   4.873  13.739  0.5266  0.8009  0.1407
  541TIP3    H223115   4.784   4.801  13.729  0.2445 -0.0016  1.8791
  542TIP3   OH223116   5.739   5.414   5.772  0.2759 -0.2733  0.0731
  542TIP3    H123117   5.793   5.484   5.809  1.3239 -1.0960  0.1455
  542TIP3    H223118   5.786   5.333   5.794 -1.0884 -1.0279  0.2902
  543TIP3   OH223119   6.680   3.266   5.026  0.9110 -0.1930 -0.7436
  543TIP3    H123120   6.662   3.192   4.969 -1.0978 -0.8879  0.6797
  543TIP3    H223121   6.606   3.325   5.014 -1.5936 -2.0031  3.5373
  544TIP3   OH223122   2.429   5.607   4.308 -0.0008  0.3692 -1.0504
  544TIP3    H123123   2.450   5.517   4.284 -0.1026 -0.0700  0.4307
  544TIP3    H223124   2.512   5.653   4.300  1.0193 -0.7242  1.8773
  545TIP3   OH223125   1.125   3.893  11.231 -0.7955  0.2852 -0.3165
  545TIP3    H123126   1.168   3.887  11.146 -1.4737 -0.3467 -0.6177
  545TIP3    H223127   1.167   3.825  11.284 -0.6048  0.4605 -0.2375
  546TIP3   OH223128   1.198   0.849  16.727  1.2633  0.3656 -0.0423
  546TIP3    H123129   1.253   0.902  16.669  1.5467  2.2557  1.8264
  546TIP3    H223130   1.260   0.791  16.772  1.0965 -0.7850 -1.2386
  547TIP3   OH223131   3.555   6.608   3.854  0.1371  0.5364  0.2323
  547TIP3    H123132   3.591   6.678   3.910  0.0377  1.0828 -0.3831
  547TIP3    H223133   3.509   6.550   3.915 -0.5405  1.4887  0.6447
  548TIP3   OH223134   3.874   5.315  16.954 -0.2376 -0.5886  0.6907
  548TIP3    H123135   3.907   5.229  16.926  2.8737  0.6611  0.0980
  548TIP3    H223136   3.953   5.364  16.976 -1.8641  2.4043  0.2607
  549TIP3   OH223137   1.496   4.005   2.918 -0.2066 -0.6693 -0.0815
  549TIP3    H123138   1.415   4.024   2.966 -0.9966 -1.2188 -1.1658
  549TIP3    H223139   1.482   4.042   2.831  0.9829 -0.1805 -0.0846
  550TIP3   OH223140   0.590   3.490  12.276 -0.0124  0.6169 -0.5988
  550TIP3    H123141   0.642   3.528  12.205 -2.9352  0.7714 -2.8592
  550TIP3    H223142   0.530   3.429  12.232 -3.3430  2.1858  1.3625
  551TIP3   OH223143   3.290   2.780   5.887  0.7856 -0.3143 -0.4083
  551TIP3    H123144   3.273   2.826   5.970  2.9535 -0.1050  0.0032
  551TIP3    H223145   3.206   2.780   5.841 -0.4417 -0.2574  1.6933
  552TIP3   OH223146   1.193   4.654  14.014  0.2491 -0.0637  0.4097
  552TIP3    H123147   1.175   4.747  14.004  3.0155  0.7838  2.0559
  552TIP3    H223148   1.121   4.620  14.066 -1.1380  0.9626 -0.7686
  553TIP3   OH223149   1.692   1.997  10.664  0.2482 -0.2514 -0.1699
  553TIP3    H123150   1.643   1.939  10.606  1.0725 -2.5868  1.3637
  553TIP3    H223151   1.629   2.066  10.687 -1.3617 -1.5168 -0.5918
  554TIP3   OH223152   6.525   5.851  16.930  0.0568 -0.6887 -0.4870
  554TIP3    H123153   6.431   5.832  16.929 -0.0985 -0.0276  0.6369
  554TIP3    H223154   6.551   5.844  17.022  0.9994 -0.3193 -0.7090
  555TIP3   OH223155   1.391   0.735   4.265 -0.4114  0.0148  0.0389
  555TIP3    H123156   1.431   0.668   4.210  0.8367 -0.8447  1.8850
  555TIP3    H223157   1.465   0.787   4.298 -1.0710  0.3406  1.0756
  556TIP3   OH223158   0.205   1.640   3.255  0.2134 -0.0350  0.2998
  556TIP3    H123159   0.178   1.688   3.334 -0.5677  0.4120 -0.2227
  556TIP3    H223160   0.298   1.622   3.268  0.4848  1.4542  0.6105
  557TIP3   OH223161   0.138   3.152  16.737 -0.1094  0.2256  1.3019
  557TIP3    H123162   0.122   3.241  16.770  1.4784  1.5671 -1.2237
  557TIP3    H223163   0.136   3.161  16.642  1.4419 -2.1654  0.9544
  558TIP3   OH223164   4.007   3.897  15.411 -0.4531  0.1655 -0.1231
  558TIP3    H123165   4.014   3.808  15.447 -1.0774  0.7270  1.4427
  558TIP3    H223166   4.019   3.955  15.486  1.0184  1.4587 -1.2889
  559TIP3   OH223167   3.575   1.293   3.047 -0.6608  0.1911 -0.0405
  559TIP3    H123168   3.578   1.388   3.060  0.5276  0.3605 -1.2761
  559TIP3    H223169   3.526   1.282   2.966  0.6383 -0.1058 -0.8236
  560TIP3   OH223170   6.822   4.392  11.837 -0.2881  0.1108 -0.4239
  560TIP3    H123171   6.730   4.414  11.822 -0.7832 -0.9617  0.8332
  560TIP3    H223172   6.822   4.298  11.853  1.1505 -0.0498 -1.1596
  561TIP3   OH223173   2.661   0.186   1.748 -0.9894  0.5180 -0.1155
  561TIP3    H123174   2.704   0.263   1.711  0.9121 -1.0425 -1.3882
  561TIP3    H223175   2.601   0.157   1.679 -0.2908 -0.1717 -0.4623
  562TIP3   OH223176   2.460   1.996   1.049  0.2420 -0.1133  0.0491
  562TIP3    H123177   2.403   1.936   1.000 -0.0406 -0.1851  0.4642
  562TIP3    H223178   2.402   2.068   1.074  0.7080  0.6190 -0.9392
  563TIP3   OH223179   2.577   6.206  11.249 -0.0979  0.3326  0.0320
  563TIP3    H123180   2.573   6.176  11.340 -0.0286 -0.0970 -0.1030
  563TIP3    H223181   2.643   6.150  11.208 -0.0568  0.5922 -0.2570
  564TIP3   OH223182   3.074   3.893   5.342  0.4602 -0.2216 -0.2837
  564TIP3    H123183   2.986   3.927   5.359  0.2659  0.4921 -2.3754
  564TIP3    H223184   3.060   3.811   5.295  0.7390  1.4616 -3.6193
  565TIP3   OH223185   4.001   2.982  16.777  0.3164  0.0571 -0.0798
  565TIP3    H123186   4.028   3.040  16.706  0.4762 -0.9126 -0.8229
  565TIP3    H223187   4.081   2.937  16.804 -0.0548 -0.8773 -0.4995
  566TIP3   OH223188   2.604   5.299   1.283  0.3246  0.0876 -0.2265
  566TIP3    H123189   2.526   5.248   1.259  1.0273 -0.6634 -0.9702
  566TIP3    H223190   2.571   5.388   1.295 -0.8253 -0.4091  0.5003
  567TIP3   OH223191   1.814   1.732   6.458 -0.2865  0.2113  0.0854
  567TIP3    H123192   1.889   1.771   6.503  0.8032 -0.0211 -1.4469
  567TIP3    H223193   1.788   1.658   6.512  1.2704 -0.3380  0.1151
  568TIP3   OH223194   5.777   0.928  12.979  0.5662  0.0926  0.0723
  568TIP3    H123195   5.791   1.021  12.962  0.7956 -0.1122 -0.9789
  568TIP3    H223196   5.808   0.914  13.068 -1.2134  1.3814  0.9331
  569TIP3   OH223197   4.287   6.672   2.501  0.0771 -0.5098  0.3610
  569TIP3    H123198   4.212   6.710   2.455 -0.0382 -0.2396  0.7686
  569TIP3    H223199   4.321   6.744   2.555 -0.0288 -0.9323  0.9935
  570TIP3   OH223200   2.691   4.784  13.918 -0.0205  0.0176  0.0598
  570TIP3    H123201   2.766   4.726  13.928 -0.1033 -0.0787  0.1339
  570TIP3    H223202   2.625   4.731  13.874  0.2310  0.3481 -0.7195
  571TIP3   OH223203   0.806   1.533  14.525  0.6480 -0.0681  0.6202
  571TIP3    H123204   0.901   1.540  14.517  0.7900 -1.2047  1.0231
  571TIP3    H223205   0.775   1.507  14.438  0.7534 -0.0514  0.5784
  572TIP3   OH223206   0.881   1.009   4.385  0.1731 -0.9360 -0.5741
  572TIP3    H123207   0.924   1.074   4.439  1.7809 -2.8728  0.6402
  572TIP3    H223208   0.789   1.013   4.409  0.2324  0.8600 -0.5678
  573TIP3   OH223209   1.359   5.039   4.718  0.3987 -0.8587 -0.2021
  573TIP3    H123210   1.321   5.093   4.649  1.9409  2.0947  1.0709
  573TIP3    H223211   1.437   5.000   4.678  0.9943  0.4235 -0.3576
  574TIP3   OH223212   0.619   1.774   4.742  0.5689  0.3762  0.1522
  574TIP3    H123213   0.659   1.840   4.687  0.0185  0.8106  0.2606
  574TIP3    H223214   0.630   1.807   4.832  1.5175 -0.3567  0.3198
  575TIP3   OH223215   1.984   6.196  12.647 -0.6221 -0.5631  0.4863
  575TIP3    H123216   2.061   6.146  12.676 -1.5287 -1.0855  2.1022
  575TIP3    H223217   1.997   6.283  12.685  1.2422  0.7774 -2.7908
  576TIP3   OH223218   1.495   0.428  17.208 -0.2470 -0.0730  0.2166
  576TIP3    H123219   1.545   0.405  17.286  0.0374  0.4028  0.1793
  576TIP3    H223220   1.403   0.424  17.235 -0.1264  1.5013  0.9953
  577TIP3   OH223221   2.846   3.344  14.509 -0.2554 -0.1514  0.3467
  577TIP3    H123222   2.933   3.365  14.543  0.2709  0.1364 -1.0941
  577TIP3    H223223   2.785   3.374  14.577  0.7155  0.9697  0.7590
  578TIP3   OH223224   1.070   3.007   4.356 -0.4032  0.0048 -0.2132
  578TIP3    H123225   1.024   3.047   4.430 -0.4733  0.9953 -0.7679
  578TIP3    H223226   1.000   2.986   4.294 -0.1561  1.6496 -1.1241
  579TIP3   OH223227   2.319   5.733   0.302  0.6543 -0.3754  0.1620
  579TIP3    H123228   2.351   5.742   0.392 -1.0099 -0.2553  0.7748
  579TIP3    H223229   2.289   5.821   0.279  2.4277 -0.0450 -1.0984
  580TIP3   OH223230   5.835   4.335  10.999  0.2337  0.4366  0.2943
  580TIP3    H123231   5.918   4.316  11.044  0.8082  1.8385 -0.1054
  580TIP3    H223232   5.861   4.354  10.909 -0.6532 -0.1220 -0.0902
  581TIP3   OH223233   3.524   5.034   3.540  0.6501 -0.8902 -0.3493
  581TIP3    H123234   3.478   5.004   3.618 -0.7701  2.4794  0.2905
  581TIP3    H223235   3.459   5.026   3.469 -1.7320  4.5242  0.6743
  582TIP3   OH223236   0.476   0.210  15.970  0.3061  0.0697  0.6403
  582TIP3    H123237   0.481   0.239  15.879 -0.2395 -1.4035  0.1252
  582TIP3    H223238   0.557   0.162  15.984 -0.4783 -1.4058  0.2980
  583TIP3   OH223239   0.732   3.827   3.221  0.0701 -0.1912 -0.2375
  583TIP3    H123240   0.675   3.791   3.289  0.6780 -0.1493  0.3065
  583TIP3    H223241   0.802   3.762   3.212 -0.1736 -0.3544 -1.0659
  584TIP3   OH223242   4.873   3.582  15.254 -1.2857  0.4664  0.0339
  584TIP3    H123243   4.883   3.632  15.172  0.1815 -1.2450 -0.9105
  584TIP3    H223244   4.784   3.550  15.252 -1.1757  0.1780 -1.0812
  585TIP3   OH223245   0.826   1.482   1.130 -0.1246 -0.0674 -0.6257
  585TIP3    H123246   0.844   1.440   1.045  0.2415 -0.4195 -0.3808
  585TIP3    H223247   0.768   1.420   1.175  2.1579 -1.4606  0.6292
  586TIP3   OH223248   5.250   4.509  11.930  0.3778 -0.4236  0.3405
  586TIP3    H123249   5.155   4.509  11.942  0.2985 -2.5577  0.1808
  586TIP3    H223250   5.263   4.529  11.837  0.2362  1.9005  0.7757
  587TIP3   OH223251   5.246   5.792  12.906  0.1498 -0.0777 -0.0348
  587TIP3    H123252   5.273   5.717  12.959 -0.6008 -1.0314 -0.9578
  587TIP3    H223253   5.315   5.857  12.920  0.1223 -0.4036  1.8554
  588TIP3   OH223254   1.487   6.516   0.581  0.4181 -0.2158  0.3137
  588TIP3    H123255   1.521   6.604   0.590  0.4468 -0.1405 -0.5144
  588TIP3    H223256   1.511   6.472   0.663  1.6082  0.1347  0.1616
  589TIP3   OH223257   5.206   0.217   5.768  0.0763  0.0170 -0.1366
  589TIP3    H123258   5.135   0.274   5.799  1.5601  2.1898 -0.5236
  589TIP3    H223259   5.270   0.277   5.730  1.3608 -2.0170 -1.3674
  590TIP3   OH223260   1.129   2.175   4.590 -0.3772  0.1904  0.1953
  590TIP3    H123261   1.186   2.210   4.658  0.1734 -0.1446 -0.0845
  590TIP3    H223262   1.184   2.112   4.543 -0.8159  0.2522 -0.4132
  591TIP3   OH223263   5.718   5.453   0.572 -0.0117 -0.4014  0.5277
  591TIP3    H123264   5.758   5.540   0.572  0.1538 -0.4404 -1.6439
  591TIP3    H223265   5.660   5.454   0.649  0.6071  1.3030  1.0272
  592TIP3   OH223266   2.800   1.971  12.912 -0.2252  0.4117 -0.1261
  592TIP3    H123267   2.789   2.035  12.842  1.3946  0.1110 -0.7116
  592TIP3    H223268   2.764   1.890  12.876 -0.2332  0.4751 -0.2628
  593TIP3   OH223269   3.065   4.428   1.326  0.7844  0.2548 -0.0803
  593TIP3    H123270   2.970   4.445   1.319  0.1289 -3.0238 -0.6811
  593TIP3    H223271   3.103   4.483   1.257 -1.1262 -0.8621 -2.1768
  594TIP3   OH223272   2.374   4.589  13.054  0.2106  0.1181  0.5491
  594TIP3    H123273   2.436   4.519  13.074  0.8973  0.1025 -1.4294
  594TIP3    H223274   2.401   4.662  13.109  0.0583 -0.8511  1.9486
  595TIP3   OH223275   3.167   1.480  14.546 -0.1596 -0.1057  0.3320
  595TIP3    H123276   3.148   1.414  14.480  0.0079  0.5917 -0.4311
  595TIP3    H223277   3.091   1.477  14.605  0.2546 -1.5685  0.8198
  596TIP3   OH223278   2.214   0.573   4.848 -0.4737  0.1333  0.1304
  596TIP3    H123279   2.222   0.647   4.787  0.4555 -0.2750 -0.2554
  596TIP3    H223280   2.264   0.502   4.807 -0.0048 -0.2149  1.2627
  597TIP3   OH223281   4.689   1.632  17.172 -0.1203 -0.1331 -0.2461
  597TIP3    H123282   4.629   1.669  17.236 -1.0030 -0.1042 -1.0757
  597TIP3    H223283   4.767   1.609  17.223 -0.2721  1.1319  0.5978
  598TIP3   OH223284   4.097   5.346   4.877  0.0230 -0.7926  0.4110
  598TIP3    H123285   4.132   5.411   4.938  0.1752  0.9319 -1.3909
  598TIP3    H223286   4.003   5.343   4.894 -0.1191  0.5724 -0.0216
  599TIP3   OH223287   1.105   2.197   5.762  0.1520 -0.7199 -0.1650
  599TIP3    H123288   1.074   2.135   5.828  0.7156 -1.2124 -0.3593
  599TIP3    H223289   1.185   2.158   5.727  1.0105  0.5353  0.3299
  600TIP3   OH223290   5.229   0.038  15.860 -0.4188  0.0455 -0.1456
  600TIP3    H123291   5.269   0.072  15.779  1.7441  1.3114  1.3565
  600TIP3    H223292   5.233  -0.057  15.850  0.2602  0.1727 -1.3537
  601TIP3   OH223293   6.368   5.141   3.319  0.1575  0.0306  0.1503
  601TIP3    H123294   6.453   5.183   3.311 -0.0871  0.4417 -0.3238
  601TIP3    H223295   6.308   5.199   3.272 -0.2716 -0.5916 -0.0735
  602TIP3   OH223296   5.530   4.653  15.892 -0.6842 -0.1526  0.0003
  602TIP3    H123297   5.545   4.736  15.937 -2.1251  0.3121 -0.3426
  602TIP3    H223298   5.618   4.619  15.876  0.0087  2.0707 -1.2634
  603TIP3   OH223299   6.612   6.499  15.880  0.5388  0.2717 -0.9718
  603TIP3    H123300   6.597   6.593  15.871 -0.9330  0.0647 -0.9672
  603TIP3    H223301   6.587   6.462  15.796 -2.7977 -0.4952  0.1954
  604TIP3   OH223302   5.497   3.373   5.235 -0.1326 -0.3345 -0.0812
  604TIP3    H123303   5.473   3.317   5.161 -0.8980 -0.4803  0.2654
  604TIP3    H223304   5.434   3.350   5.304 -1.3970  1.8773 -0.3831
  605TIP3   OH223305   6.705   2.980  10.896  0.6287 -0.5112 -0.3472
  605TIP3    H123306   6.750   2.995  10.813 -0.0082 -2.2500 -1.0534
  605TIP3    H223307   6.612   2.990  10.875  0.5239  0.7168  0.5738
  606TIP3   OH223308   4.729   6.422  17.096  0.3558  0.0462  0.4361
  606TIP3    H123309   4.723   6.513  17.066 -0.5087 -0.3421 -0.6340
  606TIP3    H223310   4.784   6.379  17.030  1.4152 -0.0654  1.3508
  607TIP3   OH223311   5.454   2.605  13.060  0.5297 -0.2821  0.0331
  607TIP3    H123312   5.531   2.551  13.042  1.3640  1.3757 -1.7564
  607TIP3    H223313   5.382   2.557  13.021  0.5619 -1.9590  1.9103
  608TIP3   OH223314   2.166   4.979  15.848 -0.0426 -0.8771 -0.5295
  608TIP3    H123315   2.082   5.024  15.839  0.7708  0.2438 -3.7041
  608TIP3    H223316   2.231   5.044  15.824  1.9568 -1.4090  2.8146
  609TIP3   OH223317   1.127   3.125   0.405 -0.1083 -0.3897  0.4747
  609TIP3    H123318   1.109   3.205   0.355  0.0280 -1.0651 -0.6800
  609TIP3    H223319   1.210   3.142   0.449  2.1074 -1.3611 -3.0283
  610TIP3   OH223320   5.009   4.005  13.491 -0.5716 -0.5257 -0.4456
  610TIP3    H123321   4.915   3.990  13.478 -0.7111 -0.0807 -0.0041
  610TIP3    H223322   5.013   4.072  13.559  0.0498 -0.0342 -0.9428
  611TIP3   OH223323   1.907   1.169  13.162  0.5818 -0.2250  0.2277
  611TIP3    H123324   1.892   1.087  13.209  0.3606 -0.5324 -0.3684
  611TIP3    H223325   1.973   1.215  13.214  1.4536 -1.2197  0.0225
  612TIP3   OH223326   1.447   3.632  14.569 -0.0095 -0.2832  0.1384
  612TIP3    H123327   1.513   3.568  14.540  1.5305  1.3565 -0.1617
  612TIP3    H223328   1.499   3.703  14.606 -1.6545  0.9719  0.1050
  613TIP3   OH223329   2.606   0.678  16.947 -0.1723 -0.2681 -0.4281
  613TIP3    H123330   2.577   0.591  16.919 -0.3485 -0.0798 -0.8409
  613TIP3    H223331   2.595   0.733  16.869 -0.3145  0.1844 -0.0908
  614TIP3   OH223332   1.560   0.417  11.877  0.0877 -0.0564 -0.7268
  614TIP3    H123333   1.593   0.329  11.857  0.8866  0.3105 -1.0242
  614TIP3    H223334   1.524   0.448  11.793  1.2282  0.5110 -1.0294
  615TIP3   OH223335   6.416   1.847  12.215 -0.2456  0.3912 -0.5076
  615TIP3    H123336   6.395   1.801  12.296  3.4718 -0.6944  0.0228
  615TIP3    H223337   6.349   1.914  12.207 -3.7096 -2.6208  0.7167
  616TIP3   OH223338   2.394   0.220  15.508  0.4428 -0.1578  0.1047
  616TIP3    H123339   2.441   0.183  15.583  1.3070  3.0014  1.2548
  616TIP3    H223340   2.303   0.222  15.536  0.5988 -0.0324  0.6009
  617TIP3   OH223341   1.478   5.895   5.318 -0.1554 -0.3951 -0.1943
  617TIP3    H123342   1.490   5.990   5.320  0.9011 -0.5218  1.3177
  617TIP3    H223343   1.421   5.876   5.393 -0.1145 -0.9720 -0.3061
  618TIP3   OH223344   6.427   6.547   0.180  0.3304 -0.3589  0.1634
  618TIP3    H123345   6.408   6.615   0.115  1.1882 -0.4363 -0.1826
  618TIP3    H223346   6.342   6.510   0.202 -0.0079 -0.1139 -0.6816
  619TIP3   OH223347   1.563   4.559  11.829  0.3764  0.3834  0.2373
  619TIP3    H123348   1.503   4.491  11.858 -1.6625  3.0234  2.7854
  619TIP3    H223349   1.512   4.613  11.768  0.9164  1.3570  0.6229
  620TIP3   OH223350   0.308   0.758   5.863 -0.5270  0.4174 -0.3280
  620TIP3    H123351   0.381   0.738   5.804  0.6736  2.4223  0.3873
  620TIP3    H223352   0.230   0.751   5.808  0.4058  0.5721 -1.7225
  621TIP3   OH223353   3.941   0.061  15.161  0.0658 -0.5714 -0.3020
  621TIP3    H123354   4.016   0.095  15.112 -1.5085  0.5433 -2.0438
  621TIP3    H223355   3.936   0.117  15.238  0.7402 -0.3675 -0.3996
  622TIP3   OH223356   2.226   2.531   5.953  0.0454 -0.2366 -0.3997
  622TIP3    H123357   2.157   2.479   5.995  1.1852 -0.2940  1.5388
  622TIP3    H223358   2.207   2.527   5.860 -2.4257 -0.4437  0.0614
  623TIP3   OH223359   4.648   5.645   2.580  0.1235 -0.0676 -0.3201
  623TIP3    H123360   4.629   5.586   2.654  2.4534  0.8644  1.1422
  623TIP3    H223361   4.741   5.630   2.561  0.0986  1.2647 -1.6634
  624TIP3   OH223362   3.408   1.412  16.623 -0.3132  0.0229 -0.3650
  624TIP3    H123363   3.502   1.412  16.640  0.0933  0.4768 -2.3742
  624TIP3    H223364   3.368   1.401  16.709  1.5808 -1.2593  0.4048
  625TIP3   OH223365   1.779   4.019   5.862 -0.0414  0.4517  0.3316
  625TIP3    H123366   1.741   4.086   5.919 -0.0746  1.0864 -0.4124
  625TIP3    H223367   1.814   4.068   5.787 -1.6332 -0.4679 -1.0999
  626TIP3   OH223368   3.033   2.622  11.099  0.1289  0.4054  0.3214
  626TIP3    H123369   3.059   2.676  11.025  0.5346  0.8663  0.7959
  626TIP3    H223370   3.012   2.537  11.060 -0.8115  0.9689 -0.4768
  627TIP3   OH223371   3.607   4.197  12.589  0.1507  0.2442  0.3422
  627TIP3    H123372   3.680   4.253  12.563 -0.5211  0.7450 -0.5262
  627TIP3    H223373   3.626   4.174  12.680  2.2263 -0.9965 -0.3320
  628TIP3   OH223374   4.449   4.900  17.106  0.4012  0.0335 -0.5803
  628TIP3    H123375   4.451   4.822  17.161  0.2090  1.5284  1.6746
  628TIP3    H223376   4.524   4.952  17.134 -1.2473  2.0904  0.3193
  629TIP3   OH223377   5.070   2.092  11.190 -0.2987 -0.0305 -0.2491
  629TIP3    H123378   5.051   2.006  11.227 -0.7468  0.5444  0.8967
  629TIP3    H223379   5.030   2.089  11.103 -0.6988 -0.8268 -0.0554
  630TIP3   OH223380   6.686   4.308  16.656 -0.6663  0.5385  0.4512
  630TIP3    H123381   6.706   4.224  16.616  1.8408  1.3902 -0.2564
  630TIP3    H223382   6.735   4.309  16.738 -2.0713  0.6506  1.3201
  631TIP3   OH223383   6.748   6.422  11.711  0.3340  0.3717 -0.2549
  631TIP3    H123384   6.722   6.508  11.679  0.3735 -0.0272 -1.3762
  631TIP3    H223385   6.672   6.366  11.694  1.0685 -0.2925 -1.5149
  632TIP3   OH223386   1.695   4.347  14.154 -0.0414 -0.5139 -0.1029
  632TIP3    H123387   1.729   4.257  14.157 -1.6105 -1.1010  1.5929
  632TIP3    H223388   1.601   4.336  14.139 -0.2326  0.8700  0.0225
  633TIP3   OH223389   1.164   0.592  14.960 -0.3273 -0.2573  0.1890
  633TIP3    H123390   1.098   0.590  14.891  0.7439 -0.7271 -0.8598
  633TIP3    H223391   1.247   0.580  14.914  0.3873 -0.9488  1.6080
  634TIP3   OH223392   6.444   4.254  13.938  0.0009 -0.2009 -0.3781
  634TIP3    H123393   6.520   4.235  13.883  0.0860 -0.3708 -0.2016
  634TIP3    H223394   6.415   4.341  13.909 -0.1760 -0.4431 -0.9387
  635TIP3   OH223395   5.185   2.447   0.805 -0.1287  0.6316 -0.2244
  635TIP3    H123396   5.136   2.515   0.758  0.9378  2.2855  0.9674
  635TIP3    H223397   5.277   2.468   0.791  0.2811 -1.2272 -0.6969
  636TIP3   OH223398   3.519   2.904   0.352  0.1061  0.3411  0.1375
  636TIP3    H123399   3.482   2.859   0.275  0.5742  0.5356 -0.2070
  636TIP3    H223400   3.611   2.918   0.329 -0.0593  1.6091  0.1721
  637TIP3   OH223401   4.347   1.419  14.701 -0.0382  0.3726 -0.0871
  637TIP3    H123402   4.289   1.344  14.690  0.0506  0.4561 -1.1799
  637TIP3    H223403   4.434   1.385  14.684 -0.1637  1.0777 -2.3580
  638TIP3   OH223404   4.768   0.384  14.450  0.1490  0.1469 -0.4954
  638TIP3    H123405   4.858   0.417  14.442  0.1574  0.7277  1.3985
  638TIP3    H223406   4.778   0.295  14.482  0.0517 -0.7641 -2.7854
  639TIP3   OH223407   1.509   0.830  10.810 -0.4097 -0.1585 -0.3502
  639TIP3    H123408   1.480   0.740  10.822  0.2905 -0.4195 -0.5564
  639TIP3    H223409   1.571   0.826  10.737 -0.1530  0.4399 -0.1754
  640TIP3   OH223410   1.361   5.214  11.606 -0.2276  0.3472 -0.5710
  640TIP3    H123411   1.363   5.136  11.660 -0.5491 -0.2377 -1.3859
  640TIP3    H223412   1.269   5.229  11.588 -0.1210  0.4796 -1.0248
  641TIP3   OH223413   2.195   3.659  11.702 -0.2537  0.4825 -0.6372
  641TIP3    H123414   2.279   3.617  11.686  0.2000  1.6363 -1.4624
  641TIP3    H223415   2.131   3.601  11.661  0.4349  0.9395 -2.4446
  642TIP3   OH223416   1.817   4.994   5.275 -0.1366 -0.1869  0.1973
  642TIP3    H123417   1.782   5.077   5.306  0.1397  0.3953 -0.9824
  642TIP3    H223418   1.799   4.993   5.181  1.9340 -0.3692 -0.2620
  643TIP3   OH223419   0.992   4.839  16.291 -0.1407 -0.0462  0.1128
  643TIP3    H123420   0.918   4.830  16.231  1.4812 -0.1262 -2.0279
  643TIP3    H223421   1.035   4.754  16.290  0.1679  0.0846  1.0812
  644TIP3   OH223422   1.902   6.456   2.094 -0.1749  0.0862  0.0365
  644TIP3    H123423   1.980   6.402   2.100 -0.5463 -0.3800  0.8688
  644TIP3    H223424   1.835   6.398   2.059 -0.5319  0.0527  0.7666
  645TIP3   OH223425   5.625   0.412  16.310 -0.7787 -0.1164  0.3524
  645TIP3    H123426   5.581   0.336  16.272  0.2588 -0.4404 -0.2246
  645TIP3    H223427   5.653   0.464  16.235 -3.7186  2.2272  0.7090
  646TIP3   OH223428   1.738   5.769   5.279  0.4670 -0.5977 -0.7098
  646TIP3    H123429   1.703   5.695   5.230 -0.2806 -1.3591  0.8912
  646TIP3    H223430   1.662   5.824   5.298  0.2985 -1.5315  1.5780
  647TIP3   OH223431   0.765   4.648  13.488 -0.0457 -0.3334  0.0125
  647TIP3    H123432   0.830   4.578  13.485 -3.1302 -3.4602 -0.4344
  647TIP3    H223433   0.742   4.664  13.397  0.7940  1.5576  0.0904
  648TIP3   OH223434   0.032   6.553   0.613  0.5891  0.4472  0.2148
  648TIP3    H123435   0.090   6.610   0.563  1.9575 -0.6651  0.4949
  648TIP3    H223436   0.005   6.485   0.551  2.0769 -0.7811  0.8468
  649TIP3   OH223437   2.456   4.854   0.922 -0.1368 -0.2587 -0.6203
  649TIP3    H123438   2.541   4.873   0.963 -0.7934  1.5648 -0.0378
  649TIP3    H223439   2.471   4.772   0.874  2.1604  0.3904 -1.1448
  650TIP3   OH223440   0.902   6.728  13.184 -0.0858  0.1820  0.2557
  650TIP3    H123441   0.937   6.809  13.148  0.8268 -0.2862  0.0713
  650TIP3    H223442   0.808   6.745  13.194  0.0794  1.2159  0.1190
  651TIP3   OH223443   3.412   3.463  13.141  0.2678 -0.4288 -0.3175
  651TIP3    H123444   3.396   3.370  13.160  0.6321 -0.1886  1.3480
  651TIP3    H223445   3.491   3.484  13.190  0.5598  0.6205 -1.2046
  652TIP3   OH223446   0.543   4.901  17.234  0.3118  0.0276  0.2581
  652TIP3    H123447   0.504   4.947  17.159  0.0113  0.0353  0.4159
  652TIP3    H223448   0.515   4.952  17.310 -0.0505 -0.4288  0.4398
  653TIP3   OH223449   6.597   2.770  11.065  0.6526  0.4500  0.5514
  653TIP3    H123450   6.624   2.860  11.046  2.2224 -0.2059 -0.5106
  653TIP3    H223451   6.645   2.716  11.002 -0.1914 -1.1505  1.2135
  654TIP3   OH223452   0.083   6.639   1.622  0.1536 -0.4762  0.5054
  654TIP3    H123453   0.074   6.544   1.615 -0.8098 -0.3543 -0.0703
  654TIP3    H223454   0.047   6.673   1.540 -0.1970  0.4184  1.0105
  655TIP3   OH223455   6.573   1.108  15.781 -0.3635  0.5805  0.2288
  655TIP3    H123456   6.657   1.072  15.755  0.9183  3.0461  0.6458
  655TIP3    H223457   6.575   1.105  15.877 -0.7126  0.7343  0.2422
  656TIP3   OH223458   1.230   6.058   4.520  0.4423  0.7373 -0.5628
  656TIP3    H123459   1.277   6.102   4.449  0.0604  0.2586 -1.1177
  656TIP3    H223460   1.296   6.002   4.561  1.1950  2.5168  0.7852
  657TIP3   OH223461   6.681   4.505  10.793 -0.3385 -0.9460 -0.2466
  657TIP3    H123462   6.628   4.550  10.860 -0.4874  1.0598 -1.6167
  657TIP3    H223463   6.624   4.435  10.761 -2.4420  1.3552 -1.9154
  658TIP3   OH223464   4.808   6.702  12.033 -0.3555  0.1236 -0.2333
  658TIP3    H123465   4.882   6.740  11.986  0.3628  0.2068  0.9315
  658TIP3    H223466   4.772   6.776  12.083 -0.3683 -0.2246  0.2734
  659TIP3   OH223467   6.092   4.300   0.673  0.1970  0.2058 -0.4652
  659TIP3    H123468   6.076   4.381   0.624 -2.1679  0.1925  0.1732
  659TIP3    H223469   6.057   4.317   0.761 -0.8778 -1.6541 -0.4700
  660TIP3   OH223470   1.850   4.318  15.278  0.0779 -0.3607  0.5935
  660TIP3    H123471   1.788   4.383  15.313 -1.4534 -0.1629 -2.1724
  660TIP3    H223472   1.849   4.333  15.183  1.7649 -2.6671  0.1239
  661TIP3   OH223473   6.571   0.726  16.823  0.0008  0.0137 -0.0502
  661TIP3    H123474   6.549   0.642  16.864  0.0136 -0.4446 -0.9400
  661TIP3    H223475   6.581   0.704  16.730 -0.3461  1.0703 -0.3447
  662TIP3   OH223476   5.938   5.127   0.350  0.0171  0.3505  0.1470
  662TIP3    H123477   5.843   5.129   0.364 -0.0983  1.5333 -0.6423
  662TIP3    H223478   5.969   5.055   0.405 -1.3668 -0.2204  0.2186
  663TIP3   OH223479   1.009   1.570   5.542 -0.0834  0.5653 -0.2545
  663TIP3    H123480   0.962   1.614   5.613  0.9024  1.1120  0.0731
  663TIP3    H223481   0.988   1.477   5.555 -0.2116  0.6949  0.5305
  664TIP3   OH223482   6.421   6.268  11.976  0.3916 -0.0897 -0.0983
  664TIP3    H123483   6.450   6.262  11.885  0.5583  0.8051 -0.1127
  664TIP3    H223484   6.330   6.240  11.974  0.7601 -1.3384 -0.3206
  665TIP3   OH223485   3.293   1.670  16.218  0.1694  0.2271 -0.0882
  665TIP3    H123486   3.225   1.606  16.238 -1.1163  0.6399 -2.6772
  665TIP3    H223487   3.367   1.645  16.273 -0.5243 -3.0227 -0.4591
  666TIP3   OH223488   4.470   3.126  16.517 -0.4434  0.0801  0.3052
  666TIP3    H123489   4.558   3.099  16.492  0.2635  0.8496  1.8914
  666TIP3    H223490   4.437   3.174  16.441  0.1785 -0.9017 -0.6097
  667TIP3   OH223491   4.817   4.148  11.792  0.1010  0.4579  0.6943
  667TIP3    H123492   4.727   4.174  11.811 -0.0734 -0.7218  1.5805
  667TIP3    H223493   4.810   4.058  11.760  1.0684 -0.1173  2.0394
  668TIP3   OH223494   0.644   2.954  16.126 -0.0180  0.4208 -0.0539
  668TIP3    H123495   0.732   2.920  16.141 -0.8483 -1.1376  1.7935
  668TIP3    H223496   0.605   2.961  16.214 -2.0300  0.1561 -0.8533
  669TIP3   OH223497   5.790   3.210   1.937  0.4958 -0.0289 -0.5465
  669TIP3    H123498   5.872   3.162   1.923  1.0899  0.7473  0.1280
  669TIP3    H223499   5.818   3.298   1.964 -0.5212  1.3924 -3.6751
  670TIP3   OH223500   1.152   0.490   4.756 -0.2197  0.6574  0.7020
  670TIP3    H123501   1.091   0.501   4.828  1.5317  1.3958  2.1432
  670TIP3    H223502   1.148   0.573   4.708 -0.4745  0.6263  0.6668
  671TIP3   OH223503   0.999   3.091  13.738  0.0260 -0.1459  0.0223
  671TIP3    H123504   0.942   3.123  13.808  0.9377 -1.1133  1.2522
  671TIP3    H223505   0.993   2.995  13.745  2.1959 -0.2889  0.5578
  672TIP3   OH223506   6.718   3.800   2.687 -0.3753  0.3708 -0.1719
  672TIP3    H123507   6.653   3.857   2.645 -1.5824 -0.2745  0.7462
  672TIP3    H223508   6.764   3.759   2.615 -2.4487 -0.7849 -0.9189
  673TIP3   OH223509   6.279   0.752  14.575 -0.3903 -1.0962 -0.5538
  673TIP3    H123510   6.238   0.828  14.616  1.8837  0.9470 -1.8060
  673TIP3    H223511   6.217   0.724  14.508 -0.4567  1.0082 -1.4597
  674TIP3   OH223512   1.792   0.051  12.875 -0.2802 -0.1221  0.3433
  674TIP3    H123513   1.793   0.033  12.781 -0.6748 -0.5009  0.4080
  674TIP3    H223514   1.809   0.145  12.882  1.3963 -0.3587 -0.0352
  675TIP3   OH223515   1.727   1.010  11.732 -0.2751 -0.5410 -0.1078
  675TIP3    H123516   1.701   1.081  11.674 -2.8181  0.6552  2.3176
  675TIP3    H223517   1.685   0.932  11.695  0.2859 -0.3275 -1.2497
  676TIP3   OH223518   2.856   1.722  16.008 -0.2818 -0.2495  0.4517
  676TIP3    H123519   2.816   1.635  16.007 -1.9758  0.4842 -1.4767
  676TIP3    H223520   2.939   1.711  15.962 -0.1983 -0.9421  0.7579
  677TIP3   OH223521   0.981   5.553   6.188 -0.4490 -0.4392  0.8558
  677TIP3    H123522   0.932   5.476   6.217 -1.7400  0.5261  1.2941
  677TIP3    H223523   0.935   5.582   6.109  0.6887 -0.7398  0.0639
  678TIP3   OH223524   4.314   0.421   0.553 -0.1462 -0.2103 -0.0614
  678TIP3    H123525   4.226   0.429   0.517 -0.5640 -0.9661  0.7454
  678TIP3    H223526   4.340   0.331   0.533 -0.1747 -0.4697  1.0069
  679TIP3   OH223527   5.147   2.378  13.370  0.0019  0.1729  0.4048
  679TIP3    H123528   5.183   2.335  13.448  1.0610  1.9217  0.9513
  679TIP3    H223529   5.210   2.448  13.351 -0.2593 -0.1832 -2.0193
  680TIP3   OH223530   0.607   2.830  11.577  0.4980  0.1777 -0.0320
  680TIP3    H123531   0.534   2.787  11.623  0.1964  0.0199 -0.6473
  680TIP3    H223532   0.627   2.771  11.504  1.5240  0.0095  0.3566
  681TIP3   OH223533   2.758   1.730   2.196  0.1806 -0.4072 -0.1601
  681TIP3    H123534   2.763   1.825   2.191 -2.2182 -0.1743  0.5826
  681TIP3    H223535   2.746   1.701   2.106 -0.7395  0.1648 -0.2351
  682TIP3   OH223536   5.596   4.705   5.870 -0.1457 -0.8592  0.0029
  682TIP3    H123537   5.521   4.653   5.897 -0.7989 -0.1770 -0.4678
  682TIP3    H223538   5.615   4.761   5.946  0.0804 -1.2290  0.2260
  683TIP3   OH223539   4.372   0.162   3.713  0.2133 -0.4040 -0.3850
  683TIP3    H123540   4.423   0.228   3.759 -1.2169 -0.7058  1.8276
  683TIP3    H223541   4.432   0.123   3.650  1.5792  1.7671 -0.4996
  684TIP3   OH223542   3.911   4.463   2.862  0.0874 -0.3626  0.2220
  684TIP3    H123543   3.962   4.386   2.839  1.7209  0.8933 -0.6078
  684TIP3    H223544   3.962   4.506   2.931 -0.3489  0.4130  0.0764
  685TIP3   OH223545   0.561   0.328  12.771 -0.2313  0.3549  0.1711
  685TIP3    H123546   0.476   0.309  12.812  1.6439 -0.8074  4.0085
  685TIP3    H223547   0.560   0.280  12.689 -2.9968 -0.1726  0.4144
  686TIP3   OH223548   3.406   1.449   0.592 -0.6731  0.3595 -0.2245
  686TIP3    H123549   3.472   1.488   0.648 -0.5488  0.1004 -0.1855
  686TIP3    H223550   3.409   1.355   0.614 -0.2386  0.1651 -1.0428
  687TIP3   OH223551   4.320   2.847   0.886 -0.5891 -0.8380  0.0352
  687TIP3    H123552   4.297   2.809   0.971 -0.4272  0.4967  0.6916
  687TIP3    H223553   4.236   2.854   0.840 -0.6789 -1.5465  0.0678
  688TIP3   OH223554   0.034   4.520  15.832  0.2294 -0.2767 -0.2654
  688TIP3    H123555   0.013   4.560  15.748  0.4131 -0.5273 -0.4333
  688TIP3    H223556  -0.045   4.531  15.885 -0.3494 -1.2451 -0.8975
  689TIP3   OH223557   1.368   5.483   3.983 -0.0986  0.1294 -0.2382
  689TIP3    H123558   1.455   5.468   4.020 -0.2203 -0.8996 -0.3256
  689TIP3    H223559   1.383   5.531   3.902  0.3243  0.6356  0.1376
  690TIP3   OH223560   5.678   0.323   4.363  0.1044 -0.5711  0.1462
  690TIP3    H123561   5.728   0.329   4.281 -0.2024  1.6438  0.0472
  690TIP3    H223562   5.733   0.368   4.427 -2.4185  4.0161 -0.4285
  691TIP3   OH223563   2.538   3.226  13.790 -0.1478  0.1847  0.4700
  691TIP3    H123564   2.489   3.224  13.873 -1.9615 -1.0996 -0.5572
  691TIP3    H223565   2.484   3.175  13.730  1.2521  0.8834 -1.4553
  692TIP3   OH223566   4.937   5.836   1.561 -0.1909  0.0544  0.2577
  692TIP3    H123567   4.884   5.759   1.581 -1.3407  0.8800  0.5238
  692TIP3    H223568   4.927   5.892   1.638  0.2690  0.6565 -0.1124
  693TIP3   OH223569   2.352   2.374   2.918  0.0398 -0.0690 -0.2231
  693TIP3    H123570   2.376   2.456   2.875 -0.9058  0.1708 -0.3315
  693TIP3    H223571   2.385   2.382   3.007  1.1015 -0.1298 -0.5975
  694TIP3   OH223572   3.705   0.839  15.198  0.0102 -0.0424  0.2035
  694TIP3    H123573   3.799   0.825  15.207 -0.1649 -2.1918 -0.6777
  694TIP3    H223574   3.696   0.931  15.177  2.0815 -0.1814 -1.5505
  695TIP3   OH223575   5.992   4.779  12.756 -0.0348 -0.2400  0.4587
  695TIP3    H123576   5.905   4.815  12.771 -0.6041 -0.4894 -1.8389
  695TIP3    H223577   6.050   4.855  12.760 -1.0771  0.9641 -3.2213
  696TIP3   OH223578   2.156   4.809   1.528  0.3611 -0.3117 -0.4061
  696TIP3    H123579   2.176   4.837   1.439  0.5243 -0.9371 -0.5662
  696TIP3    H223580   2.062   4.824   1.538  0.1428 -1.2058 -1.0372
  697TIP3   OH223581   1.230   3.826  13.122 -0.0491  0.1778  0.4203
  697TIP3    H123582   1.219   3.747  13.174 -0.6089  0.1747  0.3087
  697TIP3    H223583   1.324   3.838  13.116  0.0246  0.3210  1.6367
  698TIP3   OH223584   1.193   2.267  13.379 -0.2089 -0.0160 -0.7967
  698TIP3    H123585   1.203   2.227  13.466 -0.2790  0.7035 -0.4525
  698TIP3    H223586   1.100   2.290  13.375 -0.3244 -0.5484 -1.2899
  699TIP3   OH223587   6.311   3.325  17.122 -0.5252 -0.0387  0.0290
  699TIP3    H123588   6.280   3.268  17.053 -0.5672 -0.1473  0.1360
  699TIP3    H223589   6.353   3.398  17.077 -0.2655 -0.2691 -0.1071
  700TIP3   OH223590   4.431   1.156  13.698  0.3107 -0.3626  0.1337
  700TIP3    H123591   4.373   1.203  13.639  1.1380 -2.0693 -2.2038
  700TIP3    H223592   4.508   1.212  13.706  0.8413 -0.7542 -1.7448
  701TIP3   OH223593   3.651   6.062  14.709  0.2591  0.0696  0.0276
  701TIP3    H123594   3.604   6.129  14.658 -1.0316  0.0769  1.1869
  701TIP3    H223595   3.654   6.097  14.798  2.0969 -0.1461  0.0935
  702TIP3   OH223596   6.734   4.648   4.977 -0.2968  0.3519 -0.1349
  702TIP3    H123597   6.824   4.615   4.984 -0.2707  0.1394 -1.2763
  702TIP3    H223598   6.683   4.587   5.030  0.2615  0.6479  0.7707
  703TIP3   OH223599   2.008   2.257  15.189 -0.0423 -0.0589 -0.2850
  703TIP3    H123600   2.009   2.175  15.139 -1.9958  0.0882 -0.6840
  703TIP3    H223601   2.014   2.230  15.280  1.1090 -0.5066 -0.4783
  704TIP3   OH223602   1.441   0.622  11.702  0.0067  0.2528 -0.1183
  704TIP3    H123603   1.453   0.584  11.615 -1.5878  1.7508 -1.0524
  704TIP3    H223604   1.520   0.674  11.717  0.0297  0.4755 -0.9514
  705TIP3   OH223605   2.727   3.032  12.658  0.2710 -0.3955 -0.2122
  705TIP3    H123606   2.793   3.072  12.715 -0.8027  1.2790 -0.0832
  705TIP3    H223607   2.700   2.953  12.705  1.7607 -0.8033  0.0014
  706TIP3   OH223608   3.931   6.564  14.230  0.3615 -0.1239  0.1238
  706TIP3    H123609   3.877   6.568  14.151 -0.2261 -0.4226  0.5031
  706TIP3    H223610   3.897   6.489  14.278  1.0134 -0.2148  0.4488
  707TIP3   OH223611   3.138   3.605   5.237 -0.0003 -0.1505  0.2196
  707TIP3    H123612   3.199   3.557   5.180  3.1854  2.1471  1.3850
  707TIP3    H223613   3.069   3.635   5.179 -0.4353 -3.3371 -1.0961
  708TIP3   OH223614   4.265   4.155  11.568  0.2104  0.2551 -0.1816
  708TIP3    H123615   4.359   4.147  11.550 -0.0460 -1.4710 -0.9601
  708TIP3    H223616   4.250   4.096  11.641 -0.6015 -1.2184 -1.4775
  709TIP3   OH223617   3.221   2.893   2.707 -0.4718 -0.1327 -0.7271
  709TIP3    H123618   3.224   2.915   2.613 -0.0017  0.8348 -0.4941
  709TIP3    H223619   3.281   2.954   2.748 -1.4215  0.1218  0.3411
  710TIP3   OH223620   2.123   0.774   1.568 -0.7839 -0.0842 -0.2660
  710TIP3    H123621   2.132   0.695   1.622 -1.6299 -0.3485 -0.4935
  710TIP3    H223622   2.199   0.828   1.591 -0.0592 -1.0688 -0.2887
  711TIP3   OH223623   5.568   1.477  11.848  0.3823  0.0735 -0.0457
  711TIP3    H123624   5.525   1.562  11.848  1.4039  0.6526 -2.1669
  711TIP3    H223625   5.661   1.497  11.836  0.3725 -1.3290 -3.6351
  712TIP3   OH223626   3.749   5.855   3.614 -0.1308  0.1357 -0.1846
  712TIP3    H123627   3.792   5.879   3.696  0.0525  1.3156 -0.6032
  712TIP3    H223628   3.708   5.771   3.632 -0.7499  0.7407  1.3605
  713TIP3   OH223629   1.129   3.456  16.996  0.1150 -0.3093 -0.1452
  713TIP3    H123630   1.046   3.436  17.040  0.4209 -1.2812  0.0025
  713TIP3    H223631   1.146   3.380  16.941  0.8202 -0.0275 -0.3274
  714TIP3   OH223632   0.315   0.328  14.889  0.9625  0.1417  0.4724
  714TIP3    H123633   0.247   0.265  14.913  0.0022  0.3772 -1.4467
  714TIP3    H223634   0.332   0.376  14.970 -2.6615  1.4581  0.6711
  715TIP3   OH223635   3.623   1.105   2.327 -0.6451 -0.0952 -0.1073
  715TIP3    H123636   3.578   1.027   2.294 -0.1608 -0.9943  1.2665
  715TIP3    H223637   3.565   1.139   2.395 -0.5681  0.3955 -0.2835
  716TIP3   OH223638   4.614   3.031   1.105 -0.0078 -0.2950  0.2454
  716TIP3    H123639   4.543   3.096   1.104 -0.6789 -1.0147 -0.0423
  716TIP3    H223640   4.611   2.991   1.018  1.0813  0.0027  0.0606
  717TIP3   OH223641   4.261   3.988  10.828 -0.3931 -0.4961 -0.4075
  717TIP3    H123642   4.169   4.007  10.813 -0.4467 -0.1638  0.3029
  717TIP3    H223643   4.295   4.066  10.871  0.1084 -0.8015 -0.2373
  718TIP3   OH223644   2.739   1.637  12.783 -0.1797  0.1934 -0.0789
  718TIP3    H123645   2.668   1.663  12.842 -1.5008 -0.0225 -1.5137
  718TIP3    H223646   2.695   1.593  12.710  1.4614 -0.1837 -0.8882
  719TIP3   OH223647   4.543   4.163  11.916  0.1597  0.3379  0.0884
  719TIP3    H123648   4.600   4.113  11.975 -0.0677  0.2363  0.2210
  719TIP3    H223649   4.468   4.187  11.970 -0.2284 -0.0790 -0.2558
  720TIP3   OH223650   4.099   3.154  16.570 -0.5281  0.9874  0.2619
  720TIP3    H123651   4.182   3.111  16.548 -1.3627 -0.1731 -0.7540
  720TIP3    H223652   4.087   3.220  16.502 -1.4099 -0.2489 -0.8358
  721TIP3   OH223653   5.600   2.788  16.135 -0.6563 -0.3595 -0.3071
  721TIP3    H123654   5.636   2.714  16.085  1.7596  0.2887  0.3439
  721TIP3    H223655   5.635   2.777  16.223 -0.4857  1.4083 -0.1218
  722TIP3   OH223656   6.053   6.310   5.426  0.5527  0.0454  0.0889
  722TIP3    H123657   6.114   6.302   5.353 -0.2253  0.3056 -0.6032
  722TIP3    H223658   6.014   6.223   5.435  0.2077  0.1734 -0.1920
  723TIP3   OH223659   2.132   6.468  12.676 -0.2760  0.2544  0.1714
  723TIP3    H123660   2.195   6.481  12.748  0.1915 -0.4342 -0.1046
  723TIP3    H223661   2.087   6.552  12.669 -1.0292  0.0586  1.9332
  724TIP3   OH223662   2.158   5.636   3.080  0.5653 -0.1988  0.1722
  724TIP3    H123663   2.203   5.606   3.001 -1.2807 -0.8436 -0.6979
  724TIP3    H223664   2.162   5.732   3.075 -0.9343 -0.1652 -1.6404
  725TIP3   OH223665   1.991   6.773  13.252  0.0559 -0.5643 -0.1358
  725TIP3    H123666   1.900   6.762  13.279 -0.5751  2.1238 -0.8348
  725TIP3    H223667   1.996   6.731  13.166  0.2028 -2.8836  0.9253
  726TIP3   OH223668   6.537   5.225   5.642  0.2647 -0.2181 -0.0873
  726TIP3    H123669   6.466   5.243   5.703 -0.2887  2.3858 -1.3482
  726TIP3    H223670   6.553   5.309   5.598  1.5589 -1.6191 -2.5338
  727TIP3   OH223671   6.782   2.714   5.314 -0.7654 -0.5052  0.6110
  727TIP3    H123672   6.813   2.626   5.335 -0.0275  0.1569  2.5806
  727TIP3    H223673   6.686   2.707   5.315 -0.7149 -1.2498  0.8695
  728TIP3   OH223674   6.680   4.139  16.931 -0.1765  0.6578 -0.3108
  728TIP3    H123675   6.606   4.199  16.935 -0.4270  0.3595 -0.3533
  728TIP3    H223676   6.641   4.055  16.904 -0.3768 -0.3876  2.8628
  729TIP3   OH223677   2.585   1.180   1.591 -0.2412  0.6627  0.2203
  729TIP3    H123678   2.505   1.201   1.639 -2.2307  0.4471 -2.7827
  729TIP3    H223679   2.585   1.239   1.516  1.0792 -1.0286 -1.1970
  730TIP3   OH223680   4.425   3.620  16.443 -0.0591 -0.3775 -0.1272
  730TIP3    H123681   4.462   3.705  16.468 -0.4207 -0.0953 -0.5365
  730TIP3    H223682   4.344   3.642  16.397  0.1622 -0.9191 -0.7811
  731TIP3   OH223683   4.994   2.153   3.455 -0.5877 -0.2103 -0.1096
  731TIP3    H123684   5.000   2.227   3.515 -1.6419 -0.0405 -0.1949
  731TIP3    H223685   5.057   2.173   3.385 -0.7811  0.5475 -0.0688
  732TIP3   OH223686   3.787   6.606   3.081  0.5214  0.1542  0.1607
  732TIP3    H123687   3.710   6.553   3.101  2.0156 -1.9505  0.7288
  732TIP3    H223688   3.825   6.564   3.004  1.0463  1.2467 -0.1916
  733TIP3   OH223689   0.333   0.329   4.908 -0.1689 -0.0747 -0.1166
  733TIP3    H123690   0.366   0.418   4.917  0.4160  0.1184 -3.0016
  733TIP3    H223691   0.365   0.283   4.986 -0.7751  2.2628  1.6040
  734TIP3   OH223692   1.270   4.327  10.261 -0.3914  0.4929  0.7572
  734TIP3    H123693   1.216   4.265  10.310 -1.2765  0.4983 -0.1774
  734TIP3    H223694   1.226   4.411  10.271 -1.3963  0.2495 -1.1560
  735TIP3   OH223695   0.653   3.750  14.636  0.3262 -0.0146 -0.0458
  735TIP3    H123696   0.625   3.699  14.712  1.3001 -0.0976  0.2779
  735TIP3    H223697   0.659   3.686  14.565  0.3193 -0.1134  0.0420
  736TIP3   OH223698   4.383   3.056   1.403 -0.4136  0.4213  0.4050
  736TIP3    H123699   4.433   2.990   1.451  1.2096  1.2977 -0.0181
  736TIP3    H223700   4.413   3.048   1.313 -1.1414  0.8982  0.1063
  737TIP3   OH223701   3.188   6.798   2.644  0.3682  0.9585 -0.3895
  737TIP3    H123702   3.221   6.709   2.629 -0.6771  0.6407 -0.8650
  737TIP3    H223703   3.251   6.855   2.599  0.2353  0.3586 -1.3580
  738TIP3   OH223704   0.615   4.042  15.097 -0.0256  0.1382  0.1676
  738TIP3    H123705   0.523   4.049  15.121  0.0542  3.0325  0.0054
  738TIP3    H223706   0.657   4.117  15.140  2.1074 -0.6089 -0.4614
  739TIP3   OH223707   4.766   4.266   2.544 -0.1496 -0.1394 -0.0567
  739TIP3    H123708   4.748   4.324   2.618 -0.1797 -1.5534  1.0995
  739TIP3    H223709   4.804   4.323   2.477 -0.0156  1.1722  1.0922
  740TIP3   OH223710   5.375   1.200  11.490  0.5317  0.1784  0.0354
  740TIP3    H123711   5.342   1.243  11.411 -2.6153  0.0536  1.1490
  740TIP3    H223712   5.368   1.267  11.558 -1.8845 -1.1935  1.2393
  741TIP3   OH223713   5.921   4.138  14.856 -0.1055 -0.4842 -0.8993
  741TIP3    H123714   5.976   4.062  14.836  1.7953  0.0389  1.6680
  741TIP3    H223715   5.983   4.211  14.863 -1.5630  0.8079 -0.9712
  742TIP3   OH223716   4.596   5.623   2.911 -0.1691  0.6018  0.1119
  742TIP3    H123717   4.522   5.682   2.896 -0.1098  0.9680  1.1635
  742TIP3    H223718   4.673   5.681   2.914  0.4086  0.0832 -2.4606
  743TIP3   OH223719   0.144   6.279  11.780  0.0506  0.5367 -0.0932
  743TIP3    H123720   0.071   6.323  11.736  1.3870  1.7601 -1.2069
  743TIP3    H223721   0.133   6.301  11.872 -0.9757  0.7121 -0.2459
  744TIP3   OH223722   5.776   3.778  13.783 -0.1435 -0.2620 -0.3405
  744TIP3    H123723   5.689   3.777  13.823  0.5146 -1.8783  1.1956
  744TIP3    H223724   5.778   3.859  13.732 -1.8502  0.8263  1.1674
  745TIP3   OH223725   0.955   2.426  14.888  0.1612  0.1316 -0.4523
  745TIP3    H123726   0.932   2.517  14.874 -1.1826  0.1293  1.3421
  745TIP3    H223727   1.010   2.427  14.967 -2.7371 -0.8315  1.7535
  746TIP3   OH223728   5.820   1.318   2.921  0.3458  0.0569  0.2616
  746TIP3    H123729   5.762   1.359   2.985 -0.6775 -0.9689  0.0209
  746TIP3    H223730   5.871   1.254   2.970  0.2323 -0.0655  0.2210
  747TIP3   OH223731   5.182   3.587   5.096  0.7522  0.7134  0.1505
  747TIP3    H123732   5.172   3.497   5.127 -1.4132 -0.1708 -2.7320
  747TIP3    H223733   5.106   3.633   5.132  1.1231  1.0771  0.4834
  748TIP3   OH223734   6.736   0.496  13.380 -0.5956  0.3037  0.4319
  748TIP3    H123735   6.690   0.412  13.375  0.2591 -0.1059 -1.0862
  748TIP3    H223736   6.785   0.492  13.461  0.9884 -1.5227 -0.5514
  749TIP3   OH223737   3.967   6.819   5.669  0.0129 -0.0595  0.4981
  749TIP3    H123738   3.937   6.822   5.578  1.7967 -0.1425 -0.1290
  749TIP3    H223739   3.986   6.910   5.691 -0.1001 -0.0792  0.6767
  750TIP3   OH223740   5.284   1.528  15.489 -0.7016 -0.1057  0.0757
  750TIP3    H123741   5.273   1.482  15.572  1.7109  0.7424  0.9609
  750TIP3    H223742   5.351   1.594  15.508  1.0453 -0.8650 -2.8949
  751TIP3   OH223743   4.576   5.297   1.073 -0.2217 -0.5588 -0.0743
  751TIP3    H123744   4.536   5.307   0.986  1.8621  0.3230 -0.9974
  751TIP3    H223745   4.629   5.217   1.065 -0.3508 -0.7042  0.5304
  752TIP3   OH223746   3.222   0.417  13.930 -0.0552 -0.5957 -0.2602
  752TIP3    H123747   3.213   0.340  13.986  2.2728  0.6479  2.0339
  752TIP3    H223748   3.174   0.486  13.976  2.0263  0.4867  0.4408
  753TIP3   OH223749   1.390   3.062   0.153  0.0768 -0.2729  0.5440
  753TIP3    H123750   1.393   3.007   0.232  0.4971  0.8683  1.3557
  753TIP3    H223751   1.302   3.050   0.119 -0.1644 -0.6828  1.2830
  754TIP3   OH223752   2.164   4.136  15.462  0.2740  0.2610 -0.2329
  754TIP3    H123753   2.202   4.076  15.526  0.5174  0.2130 -0.4202
  754TIP3    H223754   2.075   4.153  15.494  0.2385 -0.1180 -0.1241
  755TIP3   OH223755   2.300   3.819  12.940 -0.1710 -0.4834  0.1639
  755TIP3    H123756   2.292   3.872  12.861  0.9200  0.2987  0.5592
  755TIP3    H223757   2.385   3.776  12.933 -0.3742 -0.9693  0.5781
  756TIP3   OH223758   3.087   6.745  11.680  0.2507 -0.3568  0.0618
  756TIP3    H123759   3.122   6.763  11.767 -0.2970  1.0306  0.0231
  756TIP3    H223760   3.089   6.650  11.672  3.4589 -0.3996  0.2728
  757TIP3   OH223761   1.203   6.373   6.354 -0.3266 -0.1398 -0.1637
  757TIP3    H123762   1.168   6.462   6.357  0.7846  0.3022  0.4822
  757TIP3    H223763   1.214   6.348   6.446 -0.0016 -0.6827 -0.3437
  758TIP3   OH223764   4.365   1.208   4.782 -0.0484  0.2258 -0.2219
  758TIP3    H123765   4.379   1.188   4.875 -0.2969  0.2193 -0.1839
  758TIP3    H223766   4.372   1.303   4.776 -1.1620  0.3296  0.0051
  759TIP3   OH223767   3.352   3.087   2.215 -0.6867  0.1621  0.4596
  759TIP3    H123768   3.319   3.120   2.131 -0.6214  0.5489  0.5845
  759TIP3    H223769   3.277   3.042   2.254 -0.5462 -0.5532 -0.0791
  760TIP3   OH223770   4.000   4.183  11.119  0.1152 -0.3971  0.0128
  760TIP3    H123771   3.918   4.171  11.166  0.4517  0.2823  0.8048
  760TIP3    H223772   3.976   4.181  11.026 -0.8297  0.0490  0.2441
  761TIP3   OH223773   5.207   0.167  12.720  0.4764 -0.2222 -0.6300
  761TIP3    H123774   5.121   0.206  12.708  1.1582  0.9699 -1.9986
  761TIP3    H223775   5.230   0.132  12.634  0.6958 -1.9940  0.1138
  762TIP3   OH223776   1.508   3.600   5.982  0.0958  0.4848  0.6925
  762TIP3    H123777   1.556   3.661   5.925  0.5859 -0.2348  0.3245
  762TIP3    H223778   1.574   3.539   6.013  0.0259  1.3967  2.8121
  763TIP3   OH223779   5.764   3.671   4.867  0.0371 -0.6202 -0.2737
  763TIP3    H123780   5.796   3.614   4.937 -0.1440  0.7918  0.9931
  763TIP3    H223781   5.778   3.760   4.899 -0.2277  0.0717 -1.9603
  764TIP3   OH223782   6.276   3.148  16.882  0.1253  0.3762 -0.6957
  764TIP3    H123783   6.248   3.102  16.802  0.9444 -0.1656 -0.6811
  764TIP3    H223784   6.368   3.167  16.867  0.2490  0.3959  0.0671
  765TIP3   OH223785   2.648   2.476   1.327  0.0482  0.7682 -0.0018
  765TIP3    H123786   2.630   2.476   1.233  1.2277  0.9961 -0.2442
  765TIP3    H223787   2.561   2.474   1.368 -0.5822  2.8054 -1.0776
  766TIP3   OH223788   3.841   5.963   0.597 -0.7626 -0.2392 -0.3776
  766TIP3    H123789   3.747   5.967   0.579 -0.4251  1.9014 -2.1951
  766TIP3    H223790   3.878   6.031   0.540  1.8626 -0.8807  0.4605
  767TIP3   OH223791   6.290   2.962  17.140  0.5844  0.5697  0.4646
  767TIP3    H123792   6.270   3.035  17.082  0.8663  1.5141  1.5239
  767TIP3    H223793   6.205   2.920  17.155  0.7369 -0.8256 -2.0263
  768TIP3   OH223794   3.081   1.899  14.698 -0.2568 -0.1541 -0.2695
  768TIP3    H123795   3.152   1.855  14.649  0.9711  0.8274  0.5612
  768TIP3    H223796   3.122   1.924  14.781 -1.8715 -0.3850  0.6254
  769TIP3   OH223797   5.137   3.865  11.283 -0.0708  0.4833 -0.7188
  769TIP3    H123798   5.166   3.830  11.199  1.0948  1.5137 -0.7810
  769TIP3    H223799   5.201   3.832  11.346  1.0585  2.4211 -0.7839
  770TIP3   OH223800   3.007   1.984   3.735 -0.1320 -0.2600  0.4677
  770TIP3    H123801   2.919   2.020   3.720 -0.1715 -0.8950 -1.0355
  770TIP3    H223802   2.992   1.891   3.748  0.4299 -0.7325 -1.8121
  771TIP3   OH223803   4.644   0.282  16.977 -0.0119 -0.0427  0.1809
  771TIP3    H123804   4.732   0.293  17.015  0.1605 -1.3798  0.2245
  771TIP3    H223805   4.585   0.292  17.051  0.0427  1.3545  0.0705
  772TIP3   OH223806   1.889   5.400   0.755 -0.0179  0.0073  0.4952
  772TIP3    H123807   1.969   5.367   0.795  2.7395  4.2344 -0.9467
  772TIP3    H223808   1.881   5.351   0.673  0.9294 -0.6890  0.8042
  773TIP3   OH223809   4.952   5.567  13.518 -0.1897  0.4405  0.1332
  773TIP3    H123810   4.933   5.517  13.598  2.1808  0.2022  0.6273
  773TIP3    H223811   4.976   5.500  13.453  2.0611  0.7662  0.5228
  774TIP3   OH223812   1.363   2.767   3.194  0.0695 -0.0907 -0.6225
  774TIP3    H123813   1.449   2.729   3.210 -0.5227 -0.5809  1.6436
  774TIP3    H223814   1.378   2.862   3.196  0.3426 -0.1457  1.3193
  775TIP3   OH223815   1.526   1.667   2.775 -0.0905  0.1212 -0.4960
  775TIP3    H123816   1.488   1.648   2.690 -0.9058 -0.3162 -0.0382
  775TIP3    H223817   1.590   1.597   2.789 -1.1241 -0.7491 -0.0323
  776TIP3   OH223818   3.962   4.934   1.025  0.0958 -0.0385 -0.7348
  776TIP3    H123819   3.979   4.848   0.986  2.4512 -0.7688  1.6176
  776TIP3    H223820   3.921   4.915   1.109  1.0772  1.0914  0.0294
  777TIP3   OH223821   5.739   0.879   1.857 -0.0417 -0.1583  0.0627
  777TIP3    H123822   5.731   0.807   1.920  0.9010  1.3718  2.0839
  777TIP3    H223823   5.767   0.838   1.776 -0.3382 -2.1439  0.9015
  778TIP3   OH223824   0.413   4.806   5.403 -0.0661  0.5194 -0.0660
  778TIP3    H123825   0.359   4.783   5.479 -0.2240  0.5244 -0.1757
  778TIP3    H223826   0.350   4.835   5.337 -0.2602 -2.3989 -1.3199
  779TIP3   OH223827   3.551   5.960  11.685 -0.6454 -0.0071 -0.0562
  779TIP3    H123828   3.476   5.909  11.718  1.1107 -1.2772  2.2190
  779TIP3    H223829   3.542   5.955  11.590 -2.4360 -1.6959  0.1285
  780TIP3   OH223830   1.933   6.071   1.792 -0.2358 -0.1506  0.1948
  780TIP3    H123831   1.973   6.121   1.721 -1.6169  0.4303 -0.2120
  780TIP3    H223832   1.891   5.996   1.749 -1.6438  0.5552  0.2761
  781TIP3   OH223833   5.307   1.026   0.297 -0.4296  0.1818 -0.1928
  781TIP3    H123834   5.231   0.971   0.318 -1.0305  0.5868 -1.2030
  781TIP3    H223835   5.351   0.979   0.226  0.3124 -0.0850  0.4406
  782TIP3   OH223836   3.543   2.072   6.054 -0.0513 -0.3585  0.0254
  782TIP3    H123837   3.614   2.059   6.117  0.6647  0.7759 -0.5103
  782TIP3    H223838   3.464   2.044   6.100  0.7784 -2.0941  0.4787
  783TIP3   OH223839   3.373   0.931  14.909 -0.5706 -0.2020 -0.1975
  783TIP3    H123840   3.380   0.850  14.959  0.1440  0.0730  0.1533
  783TIP3    H223841   3.414   0.910  14.825  1.7559  0.4538  0.7117
  784TIP3   OH223842   1.110   5.934  11.985 -0.1208  0.3893  0.4073
  784TIP3    H123843   1.090   5.844  12.011 -2.5410  0.2301 -1.6119
  784TIP3    H223844   1.121   5.928  11.890 -2.4262  2.5010 -0.0689
  785TIP3   OH223845   5.816   0.221   1.957 -0.1816 -0.2578  0.1519
  785TIP3    H123846   5.830   0.314   1.941  0.4647 -0.5137 -0.8856
  785TIP3    H223847   5.741   0.217   2.017  1.0512  0.9994  1.8713
  786TIP3   OH223848   2.883   1.486  14.640  0.5079  0.4724 -0.3907
  786TIP3    H123849   2.911   1.548  14.707 -1.7197  0.5038  0.5727
  786TIP3    H223850   2.871   1.538  14.561  1.5569  0.7131 -0.4065
  787TIP3   OH223851   4.358   3.101  17.144 -0.8835 -0.0636  0.5625
  787TIP3    H123852   4.372   3.192  17.172  0.3214 -0.7224  2.2786
  787TIP3    H223853   4.264   3.095  17.129 -0.8562  1.7580 -0.7812
  788TIP3   OH223854   5.855   2.030  14.691  0.1332 -0.0814 -0.2955
  788TIP3    H123855   5.881   2.085  14.765  0.1016 -0.3860 -0.0573
  788TIP3    H223856   5.769   2.063  14.665 -1.0558 -1.5937  1.4458
  789TIP3   OH223857   3.142   0.655   0.733 -0.8875  0.2673 -0.1565
  789TIP3    H123858   3.122   0.622   0.645  1.2176  1.3640 -1.1207
  789TIP3    H223859   3.226   0.613   0.755 -0.4678  1.4334  0.5298
  790TIP3   OH223860   4.145   6.775  12.360 -0.2152 -0.2056  0.3899
  790TIP3    H123861   4.079   6.782  12.291 -1.4668 -2.0024  1.3286
  790TIP3    H223862   4.099   6.796  12.441  0.6594 -0.2971  0.9276
  791TIP3   OH223863   5.183   0.737   4.585 -0.3188 -0.6085  0.1247
  791TIP3    H123864   5.273   0.704   4.591 -0.2027 -0.4210 -0.5206
  791TIP3    H223865   5.144   0.689   4.512 -0.7932 -0.7981  0.4997
  792TIP3   OH223866   5.280   6.152  15.289 -0.5107  0.2203  0.1168
  792TIP3    H123867   5.275   6.057  15.304  1.1101  0.1465  0.3320
  792TIP3    H223868   5.284   6.160  15.194  0.2265  0.0169  0.1289
  793TIP3   OH223869   1.652   6.639   3.238  0.0090  0.3672  0.0938
  793TIP3    H123870   1.619   6.548   3.241  0.8548  0.0717  0.9445
  793TIP3    H223871   1.655   6.660   3.145 -3.1385  0.6375 -0.0765
  794TIP3   OH223872   6.811   0.321   5.644  0.3856 -0.4029  0.0419
  794TIP3    H123873   6.794   0.414   5.655  0.3756 -0.2920 -0.8572
  794TIP3    H223874   6.885   0.316   5.584  0.9604 -0.9686  0.7685
  795TIP3   OH223875   0.494   2.833   5.748 -0.8147 -0.2909 -0.1569
  795TIP3    H123876   0.555   2.880   5.691  0.4747 -0.2267  1.2040
  795TIP3    H223877   0.524   2.742   5.745 -1.4589 -0.4916 -0.4832
  796TIP3   OH223878   5.269   1.495  11.631  0.4851  0.0638  0.1871
  796TIP3    H123879   5.315   1.577  11.612 -0.9863  0.8195 -0.3083
  796TIP3    H223880   5.208   1.518  11.702 -0.8441 -0.2373 -0.8164
  797TIP3   OH223881   1.692   3.659  15.025 -0.1938  0.1161 -0.3800
  797TIP3    H123882   1.667   3.686  14.936 -2.5253  3.2741  1.0639
  797TIP3    H223883   1.762   3.720  15.050 -2.8266  2.6129  1.5207
  798TIP3   OH223884   2.359   5.541   2.235  0.0313 -0.0467  0.4602
  798TIP3    H123885   2.444   5.585   2.227  0.5349 -1.1460 -0.5544
  798TIP3    H223886   2.301   5.593   2.178  0.0362  0.6242  1.0463
  799TIP3   OH223887   0.607   4.557   3.044  0.5358 -0.2559  0.8515
  799TIP3    H123888   0.534   4.602   3.086  2.8716  2.1352  2.6683
  799TIP3    H223889   0.599   4.466   3.073 -0.8396  0.2691  2.2507
  800TIP3   OH223890   4.730   4.244  10.399  0.6983 -0.0896 -0.0166
  800TIP3    H123891   4.682   4.323  10.421 -0.2397 -1.2948  2.6431
  800TIP3    H223892   4.812   4.250  10.447  0.8164 -0.5334 -0.1484
  801TIP3   OH223893   2.636   6.818   5.722  0.3895 -0.0914  0.0586
  801TIP3    H123894   2.719   6.836   5.766 -0.0164 -1.2639  1.3599
  801TIP3    H223895   2.623   6.724   5.732  2.0858 -1.3649 -5.7862
  802TIP3   OH223896   4.317   2.504  16.040  0.8813  0.5812  0.5082
  802TIP3    H123897   4.232   2.548  16.029  0.0791 -1.4057 -2.4695
  802TIP3    H223898   4.380   2.566  16.002  0.0812  0.2506 -1.4853
  803TIP3   OH223899   0.458   3.690   6.120 -0.2007 -0.1082 -0.1527
  803TIP3    H123900   0.528   3.738   6.166 -0.5215 -1.1467  1.5217
  803TIP3    H223901   0.400   3.759   6.087  0.8699  0.7279 -0.3634
  804TIP3   OH223902   2.141   3.290   4.284  0.4652 -1.0777  0.4566
  804TIP3    H123903   2.057   3.315   4.244  0.7301  0.1380  0.6023
  804TIP3    H223904   2.131   3.312   4.377  1.2514  0.0207  0.3132
  805TIP3   OH223905   1.129   1.445  16.799 -0.5364  0.1644 -0.2167
  805TIP3    H123906   1.166   1.361  16.773  0.1425 -0.1493  1.6137
  805TIP3    H223907   1.192   1.510  16.767 -0.7855 -0.0315 -1.1487
  806TIP3   OH223908   5.038   5.433   6.226  0.0802 -0.4908 -0.2521
  806TIP3    H123909   4.955   5.451   6.182  0.5264 -1.7149 -1.6488
  806TIP3    H223910   5.017   5.365   6.289 -0.0857 -0.3881 -0.1950
  807TIP3   OH223911   5.545   5.491   3.197 -0.2250  0.1717 -0.2996
  807TIP3    H123912   5.504   5.429   3.137 -0.2490  1.4685 -1.6571
  807TIP3    H223913   5.485   5.495   3.272 -0.4169 -1.1197 -0.3551
  808TIP3   OH223914   0.993   2.564  12.788  0.6155  0.3467  0.5053
  808TIP3    H123915   0.905   2.534  12.810  0.4212  0.3236 -0.2875
  808TIP3    H223916   1.002   2.648  12.834  0.3807  0.1038  1.0078
  809TIP3   OH223917   5.543   6.634  15.572  0.2008 -0.6342 -0.0505
  809TIP3    H123918   5.553   6.579  15.649  1.6587 -0.6129 -0.2083
  809TIP3    H223919   5.557   6.574  15.498  0.0042 -0.4088 -0.2736
  810TIP3   OH223920   0.120   1.289   3.760 -0.2246  0.4463 -0.3015
  810TIP3    H123921   0.161   1.315   3.678 -0.3214 -2.1028 -1.2628
  810TIP3    H223922   0.109   1.194   3.752  0.0771  0.0325  2.8045
  811TIP3   OH223923   0.634   0.907   1.571 -0.0241  0.1849  0.6202
  811TIP3    H123924   0.598   0.919   1.659 -1.0652  0.9904  0.1063
  811TIP3    H223925   0.561   0.872   1.520  0.2019  0.9150 -0.2150
  812TIP3   OH223926   2.005   1.547   6.294 -0.0410  0.4839  0.2576
  812TIP3    H123927   1.923   1.546   6.245 -0.3559  0.7935  0.7617
  812TIP3    H223928   2.068   1.503   6.237 -0.2246  1.4554 -0.7281
  813TIP3   OH223929   0.848   0.503  13.089  0.2044 -0.1123  0.5230
  813TIP3    H123930   0.822   0.501  13.181  0.3682 -0.8969  0.5554
  813TIP3    H223931   0.861   0.596  13.070 -0.2198  0.0889  1.1790
  814TIP3   OH223932   3.364   2.405   2.061 -0.1406 -0.3027  0.0190
  814TIP3    H123933   3.299   2.402   1.991 -1.0424 -0.2566  0.8284
  814TIP3    H223934   3.379   2.498   2.076 -1.7690 -0.2204  1.4813
  815TIP3   OH223935   2.048   5.325  15.560 -0.3105 -0.0673  0.0383
  815TIP3    H123936   1.969   5.373  15.534  1.1963  1.4589 -2.1173
  815TIP3    H223937   2.043   5.243  15.512 -0.5702  0.0213 -0.0905
  816TIP3   OH223938   3.866   0.228   4.662  0.2797  0.0792  0.4194
  816TIP3    H123939   3.961   0.226   4.665  0.2894  1.2276  2.9598
  816TIP3    H223940   3.842   0.308   4.710 -1.9173  1.3972 -2.5304
  817TIP3   OH223941   3.796   2.471   5.464  0.4569  1.1290 -0.3643
  817TIP3    H123942   3.764   2.506   5.548  0.4137 -0.0752  0.1422
  817TIP3    H223943   3.889   2.494   5.462  0.3824  1.4613 -0.1515
  818TIP3   OH223944   0.646   6.250  13.217 -0.0783  0.5065 -0.1352
  818TIP3    H123945   0.671   6.325  13.272  0.0757 -0.1892  0.7718
  818TIP3    H223946   0.551   6.242  13.230 -0.2120  0.9567 -0.7774
  819TIP3   OH223947   5.010   5.491  15.025 -0.0547 -0.1272  0.8171
  819TIP3    H123948   5.063   5.414  15.004 -1.8729 -2.6299  4.2448
  819TIP3    H223949   4.920   5.461  15.012 -0.8048  1.7920  1.3058
  820TIP3   OH223950   4.923   3.988   4.470  0.1781  0.1758 -0.2177
  820TIP3    H123951   4.998   3.983   4.529  0.2112 -0.6607 -0.3192
  820TIP3    H223952   4.849   4.010   4.528  0.2687 -0.3134  0.0952
  821TIP3   OH223953   4.575   4.214  14.333 -0.1460 -0.1223 -0.0582
  821TIP3    H123954   4.586   4.230  14.240 -1.3055 -2.1831 -0.6229
  821TIP3    H223955   4.480   4.208  14.346  0.0047 -3.2378  0.5117
  822TIP3   OH223956   0.782   5.417   0.213  0.1412 -0.4697  0.0550
  822TIP3    H123957   0.857   5.437   0.268  0.8848  0.0382 -1.1195
  822TIP3    H223958   0.795   5.326   0.187  0.2481 -0.4367 -0.0044
  823TIP3   OH223959   3.498   4.915   4.529  0.2594 -0.0572 -0.4756
  823TIP3    H123960   3.442   4.870   4.592  0.2262 -0.5868 -0.8776
  823TIP3    H223961   3.580   4.866   4.531  0.5662  0.4591 -0.2035
  824TIP3   OH223962   1.790   5.536   1.158 -0.2655  0.3789 -0.7835
  824TIP3    H123963   1.728   5.513   1.088  1.0713 -2.0061 -1.2864
  824TIP3    H223964   1.799   5.456   1.209  0.8776  1.2926  0.5054
  825TIP3   OH223965   6.443   4.692  10.872 -0.2297 -0.1028 -0.0345
  825TIP3    H123966   6.427   4.683  10.778 -5.0902 -1.8064  0.7057
  825TIP3    H223967   6.397   4.772  10.898 -0.3378 -0.5269  1.1633
  826TIP3   OH223968   2.560   1.908  15.500  0.1687 -0.3138  0.4611
  826TIP3    H123969   2.598   1.843  15.560  1.0930  1.6341  2.1102
  826TIP3    H223970   2.507   1.856  15.439 -0.5248 -2.4595  2.7186
  827TIP3   OH223971   2.067   4.869   4.973  0.5195  0.2170  0.3423
  827TIP3    H123972   2.013   4.935   5.018 -0.0357 -1.4027  2.2239
  827TIP3    H223973   2.156   4.903   4.979  0.1653  1.1237  0.6694
  828TIP3   OH223974   3.370   5.347   5.912 -0.2040  0.1791 -0.5612
  828TIP3    H123975   3.323   5.429   5.927 -0.8915 -0.1899 -0.6400
  828TIP3    H223976   3.462   5.371   5.918 -0.4007  0.8429  0.0040
  829TIP3   OH223977   2.737   5.483  11.101  0.0204 -0.1873  0.1844
  829TIP3    H123978   2.676   5.443  11.040 -0.5001 -1.0040  1.2148
  829TIP3    H223979   2.761   5.413  11.162 -0.7833  0.9919  1.9374
  830TIP3   OH223980   1.132   3.424   2.694 -0.4267  0.7865  0.2507
  830TIP3    H123981   1.123   3.377   2.612  0.5718  2.6513 -0.9895
  830TIP3    H223982   1.094   3.365   2.760 -0.4706 -1.1090 -1.3894
  831TIP3   OH223983   5.680   4.096   2.299  0.3928  0.6242  0.3630
  831TIP3    H123984   5.744   4.161   2.329  2.6093 -0.6698 -1.2915
  831TIP3    H223985   5.608   4.148   2.265  1.6571  2.2334  0.0174
  832TIP3   OH223986   5.473   2.041   5.091 -0.0825 -0.0049 -0.1083
  832TIP3    H123987   5.465   1.946   5.080 -1.1155  0.3316 -3.0599
  832TIP3    H223988   5.495   2.074   5.004  1.9109  2.3758  1.1705
  833TIP3   OH223989   4.671   1.033   1.228 -0.2328 -0.2432  0.1717
  833TIP3    H123990   4.644   1.095   1.160 -1.6889 -2.6850 -1.6478
  833TIP3    H223991   4.753   1.068   1.262 -0.3366  1.9769 -1.6465
  834TIP3   OH223992   6.391   1.598  15.760 -0.3883 -0.2486  0.4225
  834TIP3    H123993   6.388   1.678  15.813 -2.3307  1.2382 -1.7545
  834TIP3    H223994   6.480   1.597  15.724 -0.8739  2.0670 -1.0362
  835TIP3   OH223995   4.560   5.818   2.110  0.1830  0.7796  0.1350
  835TIP3    H123996   4.550   5.810   2.205  1.6310  0.5183  0.2807
  835TIP3    H223997   4.482   5.776   2.074  0.0068  0.1743  1.1957
  836TIP3   OH223998   2.326   6.683  13.022 -0.0829  0.2979 -0.0771
  836TIP3    H123999   2.289   6.699  13.108 -2.1369 -1.5676 -0.5147
  836TIP3    H224000   2.253   6.694  12.962  1.4300  2.1776 -1.7188
  837TIP3   OH224001   3.500   4.191  16.464 -0.1092 -0.1595 -0.1581
  837TIP3    H124002   3.583   4.144  16.466 -0.2073 -0.4038  2.6395
  837TIP3    H224003   3.433   4.123  16.467 -0.4375  0.0657 -1.5250
  838TIP3   OH224004   5.391   5.699   5.275  0.3795  0.4161 -0.4894
  838TIP3    H124005   5.425   5.757   5.208 -0.4452 -0.7592 -1.9932
  838TIP3    H224006   5.413   5.611   5.245 -0.3896 -0.1633  0.5583
  839TIP3   OH224007   5.371   3.469  10.637  0.0935 -0.1812 -0.0212
  839TIP3    H124008   5.295   3.413  10.624 -1.6184  2.0846 -0.5813
  839TIP3    H224009   5.403   3.487  10.548  0.4122 -0.0299  0.1209
  840TIP3   OH224010   5.724   4.654   4.479  0.1409  0.2975  0.0803
  840TIP3    H124011   5.764   4.572   4.510 -0.3043  0.0662  0.0424
  840TIP3    H224012   5.631   4.645   4.500 -0.1609  0.1759 -1.2215
  841TIP3   OH224013   0.988   1.726   4.608  0.2745  0.0792  1.1604
  841TIP3    H124014   1.059   1.780   4.574 -0.4480  0.5259  0.3209
  841TIP3    H224015   0.985   1.650   4.549  0.3853 -0.1827  1.4939
  842TIP3   OH224016   5.524   1.680   3.080  0.3637  0.5326 -0.5518
  842TIP3    H124017   5.480   1.763   3.062  1.7830  1.2746 -0.6865
  842TIP3    H224018   5.454   1.615   3.076 -1.1156  1.9006  1.3302
  843TIP3   OH224019   2.649   0.967   0.672  0.0260  0.4046 -0.0954
  843TIP3    H124020   2.590   1.014   0.613  0.8882  1.1942 -0.3520
  843TIP3    H224021   2.642   0.875   0.645  0.0227  0.6909 -1.1014
  844TIP3   OH224022   6.073   4.511  12.727 -0.5335 -0.3664  0.1935
  844TIP3    H124023   6.002   4.456  12.759 -0.1985 -2.5008 -2.3400
  844TIP3    H224024   6.034   4.598  12.718 -2.1366 -0.9571  1.0495
  845TIP3   OH224025   6.027   6.201  12.308  0.3530 -0.5098  0.5079
  845TIP3    H124026   5.954   6.186  12.369 -0.6642  0.3509 -0.4604
  845TIP3    H224027   6.061   6.113  12.289 -1.1663 -1.0352  0.1136
  846TIP3   OH224028   2.878   6.246   4.966  0.3085 -0.3905  0.3265
  846TIP3    H124029   2.874   6.163   4.918  0.2836 -0.1928 -0.0190
  846TIP3    H224030   2.957   6.238   5.020 -0.4282 -1.1772  1.3119
  847TIP3   OH224031   6.664   6.490   2.077  0.4903  0.0086  0.2765
  847TIP3    H124032   6.570   6.477   2.066 -0.1818  3.6129  0.4439
  847TIP3    H224033   6.685   6.445   2.158 -1.2803 -0.1939  0.6659
  848TIP3   OH224034   4.252   3.789  15.014  0.0609  0.2012  0.0218
  848TIP3    H124035   4.266   3.882  15.028  1.1941 -0.1089  1.1111
  848TIP3    H224036   4.156   3.779  15.011 -0.1503  1.1053  2.2198
  849TIP3   OH224037   4.099   2.200  13.527 -0.4080 -0.0940  0.3060
  849TIP3    H124038   4.157   2.125  13.542 -0.7612 -0.6136 -0.8064
  849TIP3    H224039   4.147   2.275  13.561  0.6320 -0.6115  0.0201
  850TIP3   OH224040   0.209   2.347   4.538 -0.0911 -0.2586  0.2968
  850TIP3    H124041   0.138   2.410   4.548 -2.2011 -2.4900  0.1691
  850TIP3    H224042   0.259   2.379   4.463  0.1867  2.3381  1.4848
  851TIP3   OH224043   4.769   6.813   1.136 -0.3259  0.0380  0.3236
  851TIP3    H124044   4.783   6.794   1.043 -0.7504 -0.5017  0.3643
  851TIP3    H224045   4.682   6.777   1.155 -0.3004  0.2680  0.8974
  852TIP3   OH224046   4.251   4.380   1.233  0.1792  0.1941  0.0660
  852TIP3    H124047   4.166   4.402   1.195  0.1847  0.3598  0.1522
  852TIP3    H224048   4.257   4.432   1.313  0.0593 -0.3416  0.4290
  853TIP3   OH224049   0.516   5.129  15.529 -0.3862 -0.6922 -0.5888
  853TIP3    H124050   0.603   5.097  15.551  0.1694  2.0370  1.7060
  853TIP3    H224051   0.529   5.189  15.457 -0.3462 -0.2799 -0.2423
  854TIP3   OH224052   0.184   0.980   5.971  0.2899  0.0058 -0.6336
  854TIP3    H124053   0.177   1.039   5.897 -1.9864  0.7656  0.1043
  854TIP3    H224054   0.207   0.895   5.932 -3.3554 -0.2709 -2.6422
  855TIP3   OH224055   5.375   3.459   1.923 -0.2546  0.5496  0.3006
  855TIP3    H124056   5.384   3.376   1.970  0.0662  0.1850 -0.3981
  855TIP3    H224057   5.384   3.526   1.992 -1.8973  0.0054  1.0906
  856TIP3   OH224058   3.973   3.925   5.936  0.1832  0.1912 -0.2587
  856TIP3    H124059   3.947   3.998   5.880  1.5120  1.6440  0.9589
  856TIP3    H224060   4.040   3.961   5.994  0.6090 -1.9013  0.6361
  857TIP3   OH224061   1.781   4.791   0.470  0.0026  0.1276 -0.2376
  857TIP3    H124062   1.731   4.722   0.426 -0.9060  0.3835  0.3651
  857TIP3    H224063   1.813   4.751   0.551  2.6717 -0.7079 -1.5765
  858TIP3   OH224064   2.870   6.286  14.939  0.3259  0.1963  0.2646
  858TIP3    H124065   2.851   6.193  14.947  3.1778 -0.3590  1.7466
  858TIP3    H224066   2.907   6.297  14.852  0.2210 -0.0839  0.1852
  859TIP3   OH224067   5.621   0.012   1.292 -0.0942  0.0937  0.0009
  859TIP3    H124068   5.601  -0.076   1.261 -2.9761 -0.3873  2.7573
  859TIP3    H224069   5.565   0.069   1.239 -0.3193 -0.0244  0.1126
  860TIP3   OH224070   2.329   6.591   4.190 -0.0077  0.1246  0.0453
  860TIP3    H124071   2.261   6.544   4.141  1.1043 -0.1674 -1.2886
  860TIP3    H224072   2.283   6.666   4.228 -1.3086 -0.7092  0.1798
  861TIP3   OH224073   0.339   1.802  17.115  0.2687  0.1176  0.3899
  861TIP3    H124074   0.406   1.826  17.051  0.5987 -0.5586  0.4668
  861TIP3    H224075   0.270   1.761  17.062 -0.2861  1.1799  0.2621
  862TIP3   OH224076   0.083   5.709   2.961 -0.0724  0.2762 -0.5053
  862TIP3    H124077   0.136   5.631   2.975 -1.0766 -0.5508 -1.1952
  862TIP3    H224078   0.064   5.709   2.867 -2.3586 -0.1820 -0.0993
  863TIP3   OH224079   2.945   0.630  12.939 -0.1441 -0.3618 -0.0490
  863TIP3    H124080   2.999   0.699  12.977 -0.4347 -0.0027 -0.2828
  863TIP3    H224081   3.003   0.585  12.877 -0.5821  1.1232 -1.5998
  864TIP3   OH224082   1.944   2.051   6.016  0.2732 -0.3592 -0.2361
  864TIP3    H124083   2.037   2.040   6.037  0.0770  1.7575  2.2082
  864TIP3    H224084   1.898   2.006   6.087 -0.5529  0.2084 -0.3987
  865TIP3   OH224085   4.744   1.169  15.365 -0.0648  0.1699  0.4928
  865TIP3    H124086   4.766   1.217  15.284 -0.0505  0.2605  0.5502
  865TIP3    H224087   4.687   1.229  15.413  0.8872  0.6074  1.1060
  866TIP3   OH224088   6.300   1.769  14.665 -0.0622  0.3433 -0.2613
  866TIP3    H124089   6.390   1.765  14.632 -0.0158 -1.2420 -0.0475
  866TIP3    H224090   6.246   1.777  14.587  0.1342 -1.7254 -0.6727
  867TIP3   OH224091   0.082   2.129  12.161  0.5420 -0.8532 -0.1549
  867TIP3    H124092   0.112   2.047  12.200 -0.8851 -1.1825  0.2915
  867TIP3    H224093  -0.008   2.112  12.135  0.8329 -0.0232 -1.8453
  868TIP3   OH224094   2.035   0.121   4.079 -0.5518 -0.1374  0.0825
  868TIP3    H124095   2.060   0.177   4.005 -1.4034 -0.9732 -0.8735
  868TIP3    H224096   1.994   0.045   4.039  0.6751 -1.5362  1.3552
  869TIP3   OH224097   5.472   5.777   2.148 -0.1913 -0.4941  0.1305
  869TIP3    H124098   5.417   5.854   2.155  0.3157 -0.1762  0.6828
  869TIP3    H224099   5.534   5.785   2.220  0.5930 -0.8338 -0.4931
  870TIP3   OH224100   5.231   1.987   0.174  0.3662  0.2176 -0.1828
  870TIP3    H124101   5.203   2.034   0.253  1.0790  1.5726 -0.6956
  870TIP3    H224102   5.150   1.954   0.136 -0.3250  2.0087 -0.3783
  871TIP3   OH224103   1.524   0.477   2.273  0.6237  0.0119 -0.5123
  871TIP3    H124104   1.509   0.417   2.200 -0.3529 -1.0655  0.5290
  871TIP3    H224105   1.522   0.564   2.233 -1.3168 -0.4579 -1.5784
  872TIP3   OH224106   2.476   5.447   0.573  0.4943 -0.5371 -0.3044
  872TIP3    H124107   2.456   5.358   0.602  1.8701 -0.9051 -0.4417
  872TIP3    H224108   2.551   5.474   0.626 -0.3603  0.8423  0.2653
  873TIP3   OH224109   5.881   3.145  15.857  0.3092 -0.5704 -0.2032
  873TIP3    H124110   5.830   3.083  15.909  2.6890 -2.2644  0.2945
  873TIP3    H224111   5.875   3.228  15.904  1.1367 -1.6864  2.0094
  874TIP3   OH224112   0.667   6.524   5.647  0.5784  0.1722 -0.7993
  874TIP3    H124113   0.633   6.452   5.594 -0.3046  0.4041 -0.5614
  874TIP3    H224114   0.762   6.513   5.643  0.4588 -1.7683  0.2842
  875TIP3   OH224115   5.426   0.002   4.640  0.0850 -0.9356  0.2128
  875TIP3    H124116   5.346   0.048   4.614  0.1830 -0.9062 -0.0405
  875TIP3    H224117   5.486   0.072   4.667 -0.6716 -1.0537  2.4177
  876TIP3   OH224118   6.026   6.595  15.901 -0.7481  0.5581  0.1183
  876TIP3    H124119   5.944   6.582  15.950  0.1324  0.2092  1.5697
  876TIP3    H224120   6.029   6.521  15.841 -0.5516 -0.5892  1.4787
  877TIP3   OH224121   1.784   0.567  11.943  0.1129 -0.2890 -0.1173
  877TIP3    H124122   1.717   0.501  11.927 -1.4960  1.4912 -1.0067
  877TIP3    H224123   1.736   0.649  11.953  2.0343  0.7472  1.1512
  878TIP3   OH224124   2.369   5.929   1.838  0.4887  0.0706 -0.2328
  878TIP3    H124125   2.380   5.839   1.808  1.7580  0.2149 -0.2249
  878TIP3    H224126   2.446   5.947   1.891 -0.4123  0.7173  0.9189
  879TIP3   OH224127   2.472   1.631   3.725  0.0806 -0.5879  0.0680
  879TIP3    H124128   2.486   1.569   3.796 -1.7088 -1.8255 -0.5749
  879TIP3    H224129   2.452   1.714   3.769 -0.4825 -1.2049  1.0183
  880TIP3   OH224130   2.157   2.245  11.322  0.1440  0.3817 -0.0570
  880TIP3    H124131   2.199   2.275  11.241  0.2081 -1.4457 -0.7522
  880TIP3    H224132   2.230   2.229  11.382  0.1996  0.3957 -0.1210
  881TIP3   OH224133   4.914   3.134   0.640  0.5497 -0.0248 -0.1631
  881TIP3    H124134   4.973   3.177   0.701 -0.1654  0.1296  0.4390
  881TIP3    H224135   4.863   3.206   0.601  0.4724 -0.1866 -0.3652
  882TIP3   OH224136   5.818   1.050   1.238 -0.9894 -0.1272  0.0974
  882TIP3    H124137   5.731   1.090   1.243 -0.5846  0.6569  1.2033
  882TIP3    H224138   5.876   1.114   1.279  0.2057 -0.3910 -1.1312
  883TIP3   OH224139   6.615   5.000   1.460 -0.1626 -0.1194 -0.0438
  883TIP3    H124140   6.535   5.024   1.505 -1.0572  0.3079 -1.7667
  883TIP3    H224141   6.679   5.066   1.488 -1.0237  0.8507 -0.3121
  884TIP3   OH224142   4.457   2.109  14.323 -0.8680 -0.1517  0.2070
  884TIP3    H124143   4.449   2.041  14.390  1.1053 -0.8640 -0.2289
  884TIP3    H224144   4.536   2.087  14.275 -1.8157  0.7754 -1.8989
  885TIP3   OH224145   1.064   0.274  13.570  0.0741 -0.2262  0.4358
  885TIP3    H124146   1.111   0.358  13.568 -1.7973  0.8671  0.7075
  885TIP3    H224147   1.099   0.229  13.647 -1.2862  1.7995  2.3522
  886TIP3   OH224148   2.831   6.358   3.748 -0.0338  0.3012 -0.1923
  886TIP3    H124149   2.784   6.422   3.694 -1.3784 -0.6122 -0.1559
  886TIP3    H224150   2.897   6.410   3.794 -0.6623  1.5531 -0.6398
  887TIP3   OH224151   3.512   4.780  10.281  0.0046 -0.1462 -0.0561
  887TIP3    H124152   3.438   4.835  10.306  1.5942  2.9717 -1.5651
  887TIP3    H224153   3.475   4.714  10.223 -1.8793 -0.1065  1.0395
  888TIP3   OH224154   2.690   2.407   3.331 -0.2633  0.0903  0.6793
  888TIP3    H124155   2.632   2.331   3.340  0.8948 -0.8329  0.6851
  888TIP3    H224156   2.717   2.405   3.239 -0.0767  0.3844  0.7276
  889TIP3   OH224157   6.388   0.675  14.314 -0.4555 -0.1183 -0.5336
  889TIP3    H124158   6.412   0.702  14.403  0.6041 -0.6243 -0.6531
  889TIP3    H224159   6.346   0.753  14.276  1.0565  0.8468 -0.3190
  890TIP3   OH224160   6.033   3.583   1.104  0.0855 -0.4145 -0.1703
  890TIP3    H124161   6.060   3.674   1.094 -0.8199 -0.0301  0.6648
  890TIP3    H224162   6.013   3.554   1.015  0.3407  0.2188 -0.4377
  891TIP3   OH224163   1.053   6.730   0.216  0.6131 -0.1769 -0.0648
  891TIP3    H124164   1.078   6.652   0.265 -0.1757  0.6394  1.7276
  891TIP3    H224165   1.058   6.801   0.279 -1.9768  0.6903 -0.6995
  892TIP3   OH224166   1.975   5.879   3.349  0.0227 -0.9387 -0.3234
  892TIP3    H124167   2.004   5.925   3.429 -1.5626 -0.2278 -0.1265
  892TIP3    H224168   2.025   5.920   3.279  0.9317 -1.1007  0.2117
  893TIP3   OH224169   3.884   2.285  15.887  0.3471  0.3687  0.6090
  893TIP3    H124170   3.940   2.283  15.964  1.9070  1.9613 -0.3943
  893TIP3    H224171   3.823   2.357  15.904  1.2611  1.3099  0.0414
  894TIP3   OH224172   1.964   5.925   4.793 -0.0608  0.0631 -0.1408
  894TIP3    H124173   1.922   5.934   4.879 -0.3481 -0.3231 -0.2407
  894TIP3    H224174   2.051   5.962   4.806 -0.5833  1.3111 -0.0559
  895TIP3   OH224175   5.433   4.948   2.821  0.7201  0.2715  0.4101
  895TIP3    H124176   5.361   4.892   2.794  1.1292 -0.9821  1.7848
  895TIP3    H224177   5.414   5.033   2.781 -0.2721 -0.6519 -1.1525
  896TIP3   OH224178   1.164   6.149  12.159 -0.2693  0.2938 -0.6653
  896TIP3    H124179   1.102   6.144  12.232  0.4526  0.1723 -0.0421
  896TIP3    H224180   1.141   6.075  12.103  1.3557 -1.7948  1.2368
  897TIP3   OH224181   5.191   3.958  13.062 -0.3089  0.2551 -0.4667
  897TIP3    H124182   5.232   3.907  12.992 -2.2148  0.0669 -1.5275
  897TIP3    H224183   5.248   4.034  13.073  0.5532 -0.2083 -1.5395
  898TIP3   OH224184   3.733   2.847   1.088 -0.1737  0.1682  0.4520
  898TIP3    H124185   3.827   2.862   1.075  0.0606 -1.6214 -0.1546
  898TIP3    H224186   3.729   2.773   1.149 -1.1331 -0.8519 -0.7970
  899TIP3   OH224187   3.181   4.618  12.803  0.2434  0.5491  0.4564
  899TIP3    H124188   3.136   4.584  12.881 -0.1667  2.0405  0.9097
  899TIP3    H224189   3.196   4.711  12.823  4.2259  0.0248  0.6458
  900TIP3   OH224190   5.789   2.633   0.677 -0.4592  1.0538 -0.0023
  900TIP3    H124191   5.703   2.675   0.690 -0.4188  1.1519 -0.0469
  900TIP3    H224192   5.805   2.641   0.583 -1.7669 -1.6181 -0.5366
  901TIP3   OH224193   1.655   0.859   4.339  1.0028  0.1313  0.2450
  901TIP3    H124194   1.693   0.795   4.279 -0.6990 -0.5305 -0.1885
  901TIP3    H224195   1.684   0.831   4.426 -0.5804 -1.9317  0.1766
  902TIP3   OH224196   4.014   2.061   5.006 -0.0147 -0.1649  0.6628
  902TIP3    H124197   3.974   2.088   4.924  1.4697  1.3198  0.3707
  902TIP3    H224198   3.973   1.977   5.027 -3.0112  1.1132  0.2895
  903TIP3   OH224199   5.342   2.087  12.792 -1.0784  0.1235 -0.6188
  903TIP3    H124200   5.409   2.093  12.860 -1.8133  0.5350  0.0856
  903TIP3    H224201   5.392   2.077  12.711 -0.1340  1.0824 -0.1952
  904TIP3   OH224202   6.746   3.299   0.276  0.6253  0.4196  0.7352
  904TIP3    H124203   6.792   3.309   0.360  0.7703  1.8457  0.5111
  904TIP3    H224204   6.729   3.389   0.247  0.8840 -0.0391 -0.9453
  905TIP3   OH224205   4.021   5.327  12.512 -0.0327 -0.2712  0.2304
  905TIP3    H124206   3.973   5.257  12.555  1.0244  0.5528  2.9668
  905TIP3    H224207   4.100   5.285  12.479 -0.0911 -0.6462  0.5586
  906TIP3   OH224208   0.255   4.213  14.178  0.0500  0.0218  0.1081
  906TIP3    H124209   0.293   4.298  14.200  1.3087 -0.3598 -0.5349
  906TIP3    H224210   0.253   4.211  14.083 -3.1867  0.6946  0.0462
  907TIP3   OH224211   1.684   6.625   0.351  0.3630 -0.4368  0.0231
  907TIP3    H124212   1.613   6.651   0.411  0.4833  1.6880 -0.6658
  907TIP3    H224213   1.757   6.682   0.375  1.7250 -2.2449  0.3766
  908TIP3   OH224214   2.420   2.895   6.503  0.1913  0.3169 -0.3952
  908TIP3    H124215   2.476   2.818   6.498  0.7045  0.7568 -1.9493
  908TIP3    H224216   2.438   2.932   6.589  1.7898  0.0727 -0.6002
  909TIP3   OH224217   1.349   5.381   5.721  0.2320 -0.0735  0.0419
  909TIP3    H124218   1.334   5.302   5.668  0.0366  0.2054 -0.3243
  909TIP3    H224219   1.305   5.362   5.804 -1.9979  0.6080 -0.9149
  910TIP3   OH224220   2.092   4.707  10.608  0.1563  0.1293  0.0966
  910TIP3    H124221   2.152   4.722  10.535  1.4246  0.4512  1.1637
  910TIP3    H224222   2.037   4.633  10.581  0.3330  0.5039 -1.3223
  911TIP3   OH224223   0.474   6.588   0.313 -0.2757  0.8928 -0.2922
  911TIP3    H124224   0.448   6.649   0.244  0.3620  0.8423 -0.5791
  911TIP3    H224225   0.487   6.643   0.390  0.7986  1.1922 -0.6803
  912TIP3   OH224226   2.030   5.319  17.177  0.1172  0.0080 -0.3246
  912TIP3    H124227   2.040   5.268  17.096 -0.4833  1.0662 -1.0954
  912TIP3    H224228   2.085   5.274  17.241  2.6719  0.6087 -1.9810
  913TIP3   OH224229   2.494   4.367  14.513  0.8653  0.0252 -0.4840
  913TIP3    H124230   2.465   4.443  14.464  0.1344  0.8116  1.0930
  913TIP3    H224231   2.419   4.345  14.569  1.0007 -1.9583 -0.9891
  914TIP3   OH224232   2.204   1.105  14.480  0.3623 -0.6087 -0.4672
  914TIP3    H124233   2.218   1.027  14.533  1.7977  0.1370  0.2953
  914TIP3    H224234   2.249   1.175  14.527  0.2766  0.4107 -1.8364
  915TIP3   OH224235   6.091   0.604   5.066  0.3559  0.4316 -0.0610
  915TIP3    H124236   6.027   0.601   4.995 -1.5328  1.2530  1.5272
  915TIP3    H224237   6.076   0.523   5.115 -0.5977  1.3473  1.2114
  916TIP3   OH224238   5.665   4.469  11.190 -0.3990  0.0372 -0.1521
  916TIP3    H124239   5.720   4.430  11.122 -1.7938 -1.8348 -0.2680
  916TIP3    H224240   5.710   4.449  11.272 -0.0480 -0.0152 -0.3575
  917TIP3   OH224241   5.824   6.606   4.359  0.3768 -0.4046 -0.4309
  917TIP3    H124242   5.745   6.627   4.309  0.2669  0.9278  0.2635
  917TIP3    H224243   5.820   6.663   4.436  2.1650 -0.0856 -0.5306
  918TIP3   OH224244   2.950   3.092   3.025  0.2111 -0.2511 -0.1067
  918TIP3    H124245   2.954   3.093   2.930 -0.8038  1.6915 -0.1837
  918TIP3    H224246   2.858   3.106   3.046  0.8261  3.3253  1.0406
  919TIP3   OH224247   6.352   5.577  17.108  0.0494  0.5601  0.6793
  919TIP3    H124248   6.279   5.549  17.053 -0.0574 -0.0300  1.1043
  919TIP3    H224249   6.337   5.533  17.192  1.8612 -1.0828  0.2186
  920TIP3   OH224250   2.929   6.433  11.001  0.6118 -0.1834 -0.0512
  920TIP3    H124251   2.973   6.373  10.941 -1.0677 -3.0858  1.4024
  920TIP3    H224252   2.846   6.453  10.958  0.9612  0.7886 -0.3088
  921TIP3   OH224253   5.267   0.456   1.518 -0.1003  0.4431 -0.1298
  921TIP3    H124254   5.225   0.528   1.471 -0.2922 -0.1707 -0.9136
  921TIP3    H224255   5.203   0.385   1.516  0.5383 -0.1315 -0.3745
  922TIP3   OH224256   1.043   6.769   1.422  0.4283  0.3383  0.2434
  922TIP3    H124257   0.978   6.740   1.358  0.2085 -0.0759  0.6438
  922TIP3    H224258   1.105   6.822   1.372  1.7527 -2.1192 -0.8978
  923TIP3   OH224259   5.624   4.436  15.380  0.4626  0.2857  0.3160
  923TIP3    H124260   5.596   4.345  15.370  0.5927  0.4459 -1.8146
  923TIP3    H224261   5.542   4.485  15.390  0.0722  0.3385 -2.4131
  924TIP3   OH224262   1.759   2.142  13.790  0.5351  0.1736 -0.4119
  924TIP3    H124263   1.848   2.117  13.815  0.6407 -1.0202 -1.8189
  924TIP3    H224264   1.768   2.182  13.703 -0.1657  1.1641 -0.0467
  925TIP3   OH224265   6.256   2.274  14.047  0.2081  0.6266  0.2719
  925TIP3    H124266   6.312   2.274  14.124  0.6215  0.8387 -0.0277
  925TIP3    H224267   6.316   2.276  13.973 -0.2078  2.5952 -0.0565
  926TIP3   OH224268   1.093   2.764   4.054  0.4136  0.2168  0.3302
  926TIP3    H124269   1.039   2.804   3.985 -0.0912  1.2786  1.2887
  926TIP3    H224270   1.154   2.833   4.080  0.2298  0.0282  1.3153
  927TIP3   OH224271   6.245   2.967  13.359  0.1721 -0.4190 -0.0386
  927TIP3    H124272   6.194   3.042  13.329  1.1914  0.9704  1.5298
  927TIP3    H224273   6.311   3.004  13.418  0.4691 -2.5955  1.1187
  928TIP3   OH224274   5.326   4.727  12.597 -0.1937  0.4735  0.4381
  928TIP3    H124275   5.236   4.711  12.625 -0.6851  0.1232 -1.2230
  928TIP3    H224276   5.317   4.772  12.513  1.1837  0.3590  0.2078
  929TIP3   OH224277   1.542   0.151  14.170 -0.7674 -0.2600 -0.1048
  929TIP3    H124278   1.526   0.244  14.185 -2.8302 -0.4117 -1.0045
  929TIP3    H224279   1.510   0.108  14.250  0.1582 -0.2378  0.2985
  930TIP3   OH224280   0.964   1.607  12.031 -0.4805  0.4095 -0.4268
  930TIP3    H124281   0.967   1.697  11.999  2.2996 -0.1611 -2.1176
  930TIP3    H224282   0.970   1.553  11.952 -0.8868 -1.2469  0.6216
  931TIP3   OH224283   5.790   2.400  10.617  0.0161  0.7689 -0.8415
  931TIP3    H124284   5.774   2.337  10.688  0.1024 -0.0190 -1.5028
  931TIP3    H224285   5.885   2.400  10.605  0.1750  2.1735  0.1527
  932TIP3   OH224286   0.884   6.514  14.373  0.2985  0.6589  0.0403
  932TIP3    H124287   0.842   6.576  14.434 -1.8658 -0.8487  0.1986
  932TIP3    H224288   0.927   6.450  14.429 -2.2380 -1.0980  0.1381
  933TIP3   OH224289   3.260   2.755   1.695 -1.0541  0.2374 -0.3659
  933TIP3    H124290   3.183   2.747   1.752 -0.1004 -0.4187  0.8939
  933TIP3    H224291   3.275   2.666   1.662 -1.0249  0.4266 -0.8736
  934TIP3   OH224292   3.272   3.215   3.790  1.0160  0.4047  0.5801
  934TIP3    H124293   3.292   3.298   3.748  0.7633  0.2426  0.1364
  934TIP3    H224294   3.356   3.168   3.791  0.8950  0.1434 -0.3501
  935TIP3   OH224295   0.872   3.888   4.838 -0.0298  0.0026 -0.0528
  935TIP3    H124296   0.786   3.851   4.818 -0.6858  0.8769  1.0436
  935TIP3    H224297   0.894   3.854   4.924 -0.5842  1.9730  0.9188
  936TIP3   OH224298   2.079   2.331  14.482 -0.2528  0.3859  0.3430
  936TIP3    H124299   2.133   2.408  14.466 -0.1851  1.3554  4.2555
  936TIP3    H224300   2.127   2.280  14.547  0.0494 -3.5273 -2.5780
  937TIP3   OH224301   5.567   3.052   1.080 -0.4583 -0.5945 -0.1057
  937TIP3    H124302   5.642   3.106   1.105 -0.0170 -1.5337  0.6689
  937TIP3    H224303   5.525   3.102   1.010  0.5546  0.2258 -0.1732
  938TIP3   OH224304   0.831   3.752   0.594 -0.3889 -0.3127 -0.3165
  938TIP3    H124305   0.848   3.741   0.501 -0.9123  0.8359 -0.5710
  938TIP3    H224306   0.743   3.790   0.598  0.1812  1.0040  0.5544
  939TIP3   OH224307   6.108   5.444  15.701 -0.0402 -0.3108  0.0725
  939TIP3    H124308   6.114   5.350  15.720  0.9312 -0.3649 -0.4468
  939TIP3    H224309   6.091   5.448  15.607 -1.3353  0.0257  0.2982
  940TIP3   OH224310   2.662   3.985   3.876  0.4102 -0.1135 -0.5281
  940TIP3    H124311   2.568   3.998   3.884  0.2554 -1.8733  1.1234
  940TIP3    H224312   2.700   4.056   3.927  0.0834  1.2229 -2.0362
  941TIP3   OH224313   6.302   0.622   0.788 -0.3160  0.9449  0.5318
  941TIP3    H124314   6.341   0.653   0.706  1.0757  0.0411  0.8192
  941TIP3    H224315   6.208   0.631   0.774 -0.1030  0.9800 -1.1052
  942TIP3   OH224316   2.243   6.421  13.696 -0.0814 -0.4504 -0.1046
  942TIP3    H124317   2.169   6.417  13.757  0.5278 -1.2258  0.6058
  942TIP3    H224318   2.228   6.501  13.646 -2.3613 -1.5090 -1.2333
  943TIP3   OH224319   4.557   2.767  11.716  0.2998  0.4985  0.2489
  943TIP3    H124320   4.649   2.771  11.689  0.4314  0.2083  0.6354
  943TIP3    H224321   4.553   2.824  11.793  0.0763  0.7884  0.0239
  944TIP3   OH224322   5.430   3.051   5.629 -0.3632 -0.4804 -0.3953
  944TIP3    H124323   5.368   3.032   5.699  1.1160 -0.7149  0.9258
  944TIP3    H224324   5.480   2.970   5.619  2.1077  0.7311  1.1745
  945TIP3   OH224325   0.656   2.095   1.537  0.1617  0.2808  0.2086
  945TIP3    H124326   0.664   2.008   1.578  0.0200  0.5458  0.8058
  945TIP3    H224327   0.724   2.147   1.579  1.9337 -0.1858 -1.9232
  946TIP3   OH224328   5.498   1.692  14.487 -0.0503  0.4738  0.2536
  946TIP3    H124329   5.487   1.786  14.491  3.1468  1.1898 -2.5002
  946TIP3    H224330   5.515   1.674  14.395  2.1297 -2.3340  1.0422
  947TIP3   OH224331   0.803   6.570   1.007  0.1030  0.1194 -0.3145
  947TIP3    H124332   0.758   6.541   0.927 -1.1796  1.7960 -0.2530
  947TIP3    H224333   0.861   6.497   1.029 -0.9658 -1.2114 -1.6543
  948TIP3   OH224334   2.158   2.048   5.802 -0.0082  0.1667  0.4105
  948TIP3    H124335   2.251   2.030   5.813 -0.0943 -0.4389  0.1777
  948TIP3    H224336   2.120   1.965   5.771 -0.5064  0.5982 -0.1746
  949TIP3   OH224337   5.360   6.390   2.646 -0.3209 -0.2327 -0.1903
  949TIP3    H124338   5.268   6.410   2.665 -0.8855 -2.5304 -0.1139
  949TIP3    H224339   5.391   6.346   2.724 -0.1050 -2.1650 -1.2881
  950TIP3   OH224340   4.502   2.028   0.252  0.2027 -0.0490  0.0747
  950TIP3    H124341   4.591   2.005   0.225  0.4424  0.9831 -0.0441
  950TIP3    H224342   4.445   1.989   0.186  0.6304  0.1740 -0.4285
  951TIP3   OH224343   4.719   6.384   0.794  0.2099 -0.3074  0.1919
  951TIP3    H124344   4.646   6.386   0.732  0.2662  0.4870  0.1390
  951TIP3    H224345   4.787   6.436   0.752  0.6133 -0.5989  0.4817
  952TIP3   OH224346   0.335   5.295   3.214  0.1185 -0.3388  0.3348
  952TIP3    H124347   0.427   5.277   3.230  0.6146  2.5910  1.4318
  952TIP3    H224348   0.291   5.268   3.295  0.0307 -1.4045 -0.0530
  953TIP3   OH224349   1.969   3.022  11.717 -0.5685 -0.0177 -0.4078
  953TIP3    H124350   2.008   3.025  11.630 -0.3327  1.5154 -0.2737
  953TIP3    H224351   1.888   2.973  11.706 -0.6704  0.3843 -1.5488
  954TIP3   OH224352   6.014   2.180  13.979  0.6689  0.5045  0.5390
  954TIP3    H124353   5.978   2.132  14.054  1.5358 -0.7349  0.1905
  954TIP3    H224354   6.085   2.232  14.016 -0.5929  1.9565  1.0060
  955TIP3   OH224355   0.034   1.301  11.547  0.1352  0.0957  0.2748
  955TIP3    H124356   0.052   1.392  11.573  1.3340 -0.0351 -0.0326
  955TIP3    H224357  -0.056   1.303  11.515 -0.2501  0.9419  1.3074
  956TIP3   OH224358   6.800   4.785  17.142  0.4600 -0.0678 -0.4660
  956TIP3    H124359   6.802   4.875  17.111  1.9133  0.2157  0.3878
  956TIP3    H224360   6.814   4.791  17.236  2.1127 -1.2571 -0.6026
  957TIP3   OH224361   1.428   4.055  14.324  0.2854  0.8770  0.4714
  957TIP3    H124362   1.427   4.118  14.396  0.8921  0.2686  1.0230
  957TIP3    H224363   1.337   4.028  14.315  0.4627 -0.6351  2.4583
  958TIP3   OH224364   4.098   4.556  11.090 -0.4759  0.1388  0.7615
  958TIP3    H124365   4.077   4.467  11.060  1.6914 -0.4976  0.9680
  958TIP3    H224366   4.116   4.604  11.009 -2.6418  0.7435  0.5674
  959TIP3   OH224367   0.722   3.381  12.024 -0.2203  0.0300 -0.4636
  959TIP3    H124368   0.798   3.439  12.033  2.3187 -2.7456 -2.1371
  959TIP3    H224369   0.682   3.407  11.941 -1.9616  2.2464  0.9505
  960TIP3   OH224370   3.101   0.229  13.459  0.7020 -0.0690 -0.4588
  960TIP3    H124371   3.155   0.231  13.380 -0.0931  0.9840 -0.9999
  960TIP3    H224372   3.040   0.157  13.444  2.4901 -1.9268  0.5797
  961TIP3   OH224373   4.240   1.165   5.483  0.5086 -0.3494 -0.3443
  961TIP3    H124374   4.239   1.196   5.574  1.9760  0.3202 -0.5198
  961TIP3    H224375   4.284   1.235   5.435 -1.1812 -0.2283 -1.7812
  962TIP3   OH224376   5.675   2.339   4.898  0.4589  0.2876  0.7874
  962TIP3    H124377   5.708   2.328   4.988  0.3118 -0.2480  0.7786
  962TIP3    H224378   5.611   2.270   4.888  0.6002  0.2401  0.2032
  963TIP3   OH224379   6.768   0.423  13.099 -0.0889 -0.5138 -0.1147
  963TIP3    H124380   6.813   0.398  13.180 -0.7573 -2.2360 -0.2220
  963TIP3    H224381   6.743   0.514  13.112 -1.7742 -1.2355  2.4029
  964TIP3   OH224382   6.724   1.768  17.113 -0.0135 -0.1231  0.3220
  964TIP3    H124383   6.714   1.818  17.194 -0.2908 -0.7311  0.6632
  964TIP3    H224384   6.635   1.758  17.080  0.2486  2.5458 -1.5634
  965TIP3   OH224385   1.091   1.932  13.552  0.3930  0.9023 -0.3244
  965TIP3    H124386   1.134   2.016  13.571  0.6572  0.8186 -0.5410
  965TIP3    H224387   1.154   1.866  13.582 -0.3493  0.7721  1.0448
  966TIP3   OH224388   5.720   3.286  14.283 -0.0420  0.4313  0.4891
  966TIP3    H124389   5.675   3.309  14.365 -0.8648  0.6922 -0.0258
  966TIP3    H224390   5.813   3.283  14.307 -0.1638  1.5736  1.2028
  967TIP3   OH224391   4.891   4.302   4.598  0.6654  0.1573  0.0378
  967TIP3    H124392   4.821   4.238   4.589  2.2913 -1.6292 -0.4515
  967TIP3    H224393   4.904   4.310   4.693  0.7674 -0.5907  0.0897
  968TIP3   OH224394   2.317   3.678   2.711  0.2216 -0.3291  0.1204
  968TIP3    H124395   2.229   3.697   2.744  0.7158  0.9511  0.7728
  968TIP3    H224396   2.362   3.638   2.786 -0.2893 -2.6912 -0.7337
  969TIP3   OH224397   6.776   1.887  12.999 -0.0901 -0.0127 -0.0217
  969TIP3    H124398   6.737   1.919  13.081  1.2022  0.0366  0.6106
  969TIP3    H224399   6.870   1.906  13.009  0.5152 -2.4968 -0.2947
  970TIP3   OH224400   1.072   3.284  14.321 -0.1209 -0.2224  0.2768
  970TIP3    H124401   1.028   3.262  14.403 -0.5614  0.2195  0.1632
  970TIP3    H224402   1.047   3.214  14.261  1.5904 -1.5079  0.9790
  971TIP3   OH224403   4.609   4.731   5.064 -0.1554  0.2913 -0.1143
  971TIP3    H124404   4.546   4.789   5.108 -1.0850 -0.2898 -0.6573
  971TIP3    H224405   4.694   4.770   5.084 -0.5506  0.2149  1.9494
  972TIP3   OH224406   5.311   5.935   4.771  0.1064 -0.1057 -0.1443
  972TIP3    H124407   5.371   5.978   4.832  1.0122 -1.5308  0.0013
  972TIP3    H224408   5.233   5.991   4.772  0.4578  0.4179  1.6066
  973TIP3   OH224409   6.710   3.662   2.943  0.3555 -0.0097 -0.3369
  973TIP3    H124410   6.745   3.719   2.875 -3.5794  0.4891 -2.2193
  973TIP3    H224411   6.678   3.585   2.896 -1.0207 -0.3870  1.1053
  974TIP3   OH224412   4.312   1.895  13.884  0.4462 -0.4650 -0.0345
  974TIP3    H124413   4.310   1.968  13.823  2.3194 -0.7539 -0.5300
  974TIP3    H224414   4.303   1.935  13.970 -1.2890  0.0409 -0.4087
  975TIP3   OH224415   6.625   4.404   1.217  0.0528 -0.8305  0.6722
  975TIP3    H124416   6.575   4.385   1.137  0.2346  1.1873  0.0240
  975TIP3    H224417   6.713   4.421   1.185  0.3404 -0.9084  1.4257
  976TIP3   OH224418   5.282   4.080   0.364  0.4785  0.5980 -0.1812
  976TIP3    H124419   5.366   4.113   0.394  0.6206 -0.1516  0.2660
  976TIP3    H224420   5.269   4.121   0.278  0.9307  1.3176  0.0873
  977TIP3   OH224421   3.426   5.745   3.510  0.0953  0.7521 -0.1894
  977TIP3    H124422   3.444   5.837   3.526 -2.1796  1.1679  0.2351
  977TIP3    H224423   3.384   5.744   3.424  1.0391 -0.0424 -0.6649
  978TIP3   OH224424   0.876   5.983   4.324 -0.4735  0.5633 -1.1685
  978TIP3    H124425   0.948   5.922   4.311 -0.2600  0.5075  0.2052
  978TIP3    H224426   0.916   6.070   4.315 -0.2972  0.5291 -0.7115
  979TIP3   OH224427   0.210   4.190  16.125  0.5666 -0.0182 -0.0638
  979TIP3    H124428   0.251   4.164  16.042  0.1985  0.3899 -0.3764
  979TIP3    H224429   0.181   4.280  16.111 -0.3675 -0.2681  0.1745
  980TIP3   OH224430   1.483   0.759  16.734 -0.6826  0.2886  0.3447
  980TIP3    H124431   1.473   0.745  16.639  0.4252  0.4861  0.1954
  980TIP3    H224432   1.563   0.810  16.743 -1.3063  1.1321  1.3380
  981TIP3   OH224433   4.381   5.521   6.743 -0.3840  0.6184  0.3081
  981TIP3    H124434   4.447   5.502   6.676 -0.4285 -0.1071  0.4562
  981TIP3    H224435   4.417   5.485   6.824 -0.3934  1.3682  0.6514
  982TIP3   OH224436   0.913   1.752  16.822  0.3131  0.1126  0.0449
  982TIP3    H124437   0.957   1.705  16.752  0.3174 -0.0032  0.1250
  982TIP3    H224438   0.908   1.843  16.792 -0.9419 -0.1825 -0.7414
  983TIP3   OH224439   5.816   4.834  12.210 -0.4134 -0.3574  0.1028
  983TIP3    H124440   5.869   4.893  12.156 -0.9616  0.6546  0.6423
  983TIP3    H224441   5.862   4.833  12.295  0.2658 -1.6837 -0.2519
  984TIP3   OH224442   2.723   6.483  15.040 -0.4928  0.0943 -0.2825
  984TIP3    H124443   2.782   6.416  15.005  0.9147  1.1384  0.0228
  984TIP3    H224444   2.649   6.483  14.979  0.0909 -0.8296 -1.0253
  985TIP3   OH224445   6.254   5.156  16.621  0.0730 -0.6797  0.1218
  985TIP3    H124446   6.247   5.061  16.634 -0.0509 -0.3993  2.6157
  985TIP3    H224447   6.340   5.168  16.582  0.2842 -1.7795  0.2034
  986TIP3   OH224448   4.435   3.155   5.689  0.6547  0.0519 -0.4062
  986TIP3    H124449   4.367   3.134   5.625 -0.1900  0.6519  0.2632
  986TIP3    H224450   4.393   3.143   5.774  0.5057  2.9999  0.0340
  987TIP3   OH224451   1.056   5.553  11.530 -0.4200  0.4070 -0.1162
  987TIP3    H124452   1.142   5.557  11.572 -0.6400  2.0156  0.2693
  987TIP3    H224453   1.068   5.600  11.448 -0.8174  0.2258 -0.2783
  988TIP3   OH224454   4.509   2.535   4.958 -0.3330 -0.0276  0.3322
  988TIP3    H124455   4.596   2.508   4.988  0.9119  1.4538 -1.6878
  988TIP3    H224456   4.512   2.525   4.862 -1.4395  2.5211 -0.0659
  989TIP3   OH224457   5.238   1.712  10.739  0.2305  0.2352 -0.0818
  989TIP3    H124458   5.160   1.667  10.706 -0.1252  0.3350  0.5952
  989TIP3    H224459   5.302   1.643  10.753  0.0630  0.0741 -0.0994
  990TIP3   OH224460   0.447   0.792  13.873 -0.1059  0.2731  0.2301
  990TIP3    H124461   0.495   0.770  13.953  1.4005  2.6255  0.0646
  990TIP3    H224462   0.416   0.708  13.840  1.5279 -1.0543  1.8600
  991TIP3   OH224463   4.582   3.851  13.727 -0.6839  0.0754  0.5656
  991TIP3    H124464   4.663   3.813  13.762 -0.2902 -0.3032 -0.6972
  991TIP3    H224465   4.583   3.942  13.758  0.0505 -0.0240  0.8608
  992TIP3   OH224466   2.231   4.809  17.124  0.2002 -0.7210 -0.3102
  992TIP3    H124467   2.236   4.900  17.094  1.7435 -0.8207 -0.4160
  992TIP3    H224468   2.175   4.812  17.201 -0.2982  0.2096 -0.6882
  993TIP3   OH224469   2.436   1.870  15.776  0.1314  0.2531 -0.1560
  993TIP3    H124470   2.505   1.930  15.748 -1.0653  1.5212 -0.5470
  993TIP3    H224471   2.401   1.834  15.695  0.4974 -0.5822  0.0518
  994TIP3   OH224472   2.075   1.149   1.587 -0.5747 -0.2515 -0.9639
  994TIP3    H124473   2.002   1.089   1.573  1.3628 -2.5807 -1.9229
  994TIP3    H224474   2.132   1.136   1.510  0.1880  2.5429 -0.9899
  995TIP3   OH224475   2.908   3.315   5.100  0.2711  0.3644  0.1105
  995TIP3    H124476   2.894   3.221   5.090  0.4162  0.4109 -0.6331
  995TIP3    H224477   2.933   3.327   5.192 -0.5139 -0.2212  0.4084
  996TIP3   OH224478   4.364   0.584  13.330 -0.4287  0.5601  0.3257
  996TIP3    H124479   4.285   0.615  13.374 -0.7061  2.0202 -1.1044
  996TIP3    H224480   4.360   0.624  13.243 -0.7967 -3.4574 -1.7690
  997TIP3   OH224481   3.577   1.077  14.135 -0.4586  0.1005 -0.0318
  997TIP3    H124482   3.552   1.079  14.227 -2.3575  0.0518 -0.4836
  997TIP3    H224483   3.662   1.119  14.131 -0.4883  0.3709  1.6996
  998TIP3   OH224484   0.802   0.502   0.409 -0.4752 -0.1545  0.0147
  998TIP3    H124485   0.799   0.576   0.349  0.5881 -0.7545 -0.8180
  998TIP3    H224486   0.734   0.520   0.473 -2.4121  0.0060 -1.9643
  999TIP3   OH224487   6.756   1.577  14.844  0.2443  0.4287 -0.8475
  999TIP3    H124488   6.735   1.505  14.903  0.3017 -0.7523 -2.1804
  999TIP3    H224489   6.851   1.568  14.829  0.5415  1.7129  0.1042
 1000TIP3   OH224490   2.986   4.667  17.148 -0.4682  0.6744  0.3748
 1000TIP3    H124491   2.974   4.580  17.186 -0.7473  1.2263  1.5937
 1000TIP3    H224492   3.080   4.682  17.151 -0.1489 -0.4287 -1.8514
 1001TIP3   OH224493   4.172   1.235   3.884  0.3797  0.1828  0.6064
 1001TIP3    H124494   4.105   1.256   3.818  0.6393 -0.3106  0.1808
 1001TIP3    H224495   4.158   1.299   3.953 -0.5453  0.0839  0.5254
 1002TIP3   OH224496   4.573   2.822   5.141  0.2537  0.6480 -0.2143
 1002TIP3    H124497   4.572   2.796   5.049  0.2816 -0.8366  0.1781
 1002TIP3    H224498   4.634   2.896   5.145  1.9918 -0.6754 -1.0463
 1003TIP3   OH224499   2.542   4.170   1.784  0.2770  0.0976  0.5358
 1003TIP3    H124500   2.540   4.117   1.704 -1.7943  0.9972 -0.0882
 1003TIP3    H224501   2.527   4.259   1.753  0.2988  0.5809  1.8727
 1004TIP3   OH224502   1.686   5.986  16.969 -0.3780 -0.3576 -0.3209
 1004TIP3    H124503   1.780   5.986  16.950 -0.2192 -1.5259  0.3834
 1004TIP3    H224504   1.664   5.894  16.982 -1.2030  0.0589  1.5213
 1005TIP3   OH224505   2.337   1.442  14.233 -0.2639  0.7649  0.2044
 1005TIP3    H124506   2.312   1.499  14.160 -0.7078 -1.2687 -1.3293
 1005TIP3    H224507   2.254   1.414  14.270 -0.0425  1.2453  1.0915
 1006TIP3   OH224508   4.218   1.820   5.176  0.4109  0.4993  0.4406
 1006TIP3    H124509   4.132   1.837   5.213  0.3721  1.1510  0.0555
 1006TIP3    H224510   4.209   1.738   5.128  0.2159  0.1499  1.0661
 1007TIP3   OH224511   0.380   5.565   5.130 -0.2587 -0.6189 -0.4293
 1007TIP3    H124512   0.370   5.496   5.195 -0.3398  0.1841  0.4287
 1007TIP3    H224513   0.453   5.618   5.163 -0.9415  0.3650 -0.4663
 1008TIP3   OH224514   0.280   2.617   6.323  0.1745  0.4041  0.1043
 1008TIP3    H124515   0.188   2.590   6.317  0.5447 -0.5585 -2.8276
 1008TIP3    H224516   0.278   2.712   6.306 -0.0986 -0.2335 -5.0272
 1009TIP3   OH224517   0.651   3.289   3.948  0.2683 -0.0980 -0.1548
 1009TIP3    H124518   0.608   3.341   3.880  0.7681 -0.8746 -1.0966
 1009TIP3    H224519   0.661   3.202   3.909 -0.1284 -0.7802  1.2118
 1010TIP3   OH224520   3.867   0.595   1.296 -0.6095 -0.1610  0.2253
 1010TIP3    H124521   3.865   0.684   1.261 -0.9615 -0.5930 -0.8888
 1010TIP3    H224522   3.865   0.607   1.391  1.9960  1.1009  0.2318
 1011TIP3   OH224523   3.607   1.632  15.186  0.4203 -0.0643 -0.0475
 1011TIP3    H124524   3.653   1.715  15.202  1.9168 -0.3512 -2.3167
 1011TIP3    H224525   3.515   1.652  15.201  0.9274  1.5351  1.1676
 1012TIP3   OH224526   4.902   0.344   3.054  0.1274 -0.1648  0.5106
 1012TIP3    H124527   4.842   0.381   3.118 -0.9634 -0.7267 -0.1584
 1012TIP3    H224528   4.923   0.417   2.996 -0.5716 -0.1430  0.2711
 1013TIP3   OH224529   1.733   1.147   3.945 -0.0686  0.0109  0.0793
 1013TIP3    H124530   1.680   1.227   3.953 -0.8555 -0.5053  0.1576
 1013TIP3    H224531   1.730   1.108   4.032 -2.6916 -1.9294 -0.7301
 1014TIP3   OH224532   2.065   2.518  12.060  0.0257 -0.3042 -0.0810
 1014TIP3    H124533   2.127   2.584  12.089  0.4450 -0.8124  0.2012
 1014TIP3    H224534   2.017   2.559  11.988 -0.5251  0.7110  0.8490
 1015TIP3   OH224535   5.120   5.433  13.774  0.3219  0.0613  0.6420
 1015TIP3    H124536   5.090   5.477  13.853 -1.1354  0.6862 -0.1944
 1015TIP3    H224537   5.139   5.344  13.801 -3.8520 -0.8998  1.1161
 1016TIP3   OH224538   1.623   6.002   2.021  0.2344  0.3418 -0.2229
 1016TIP3    H124539   1.640   5.978   1.930 -0.8820 -1.2288 -0.0489
 1016TIP3    H224540   1.573   5.929   2.057  0.3502  1.0842  1.5705
 1017TIP3   OH224541   1.096   5.419   4.074  0.6340  0.2282  0.3849
 1017TIP3    H124542   1.097   5.331   4.036 -0.4723 -0.0274  0.9009
 1017TIP3    H224543   1.184   5.431   4.110  1.0157 -0.3800 -0.3285
 1018TIP3   OH224544   2.459   3.451   4.691  0.1844  0.3426 -0.3794
 1018TIP3    H124545   2.412   3.502   4.757  1.2878  1.5386 -0.4698
 1018TIP3    H224546   2.498   3.517   4.633  1.3230 -0.6106 -0.7454
 1019TIP3   OH224547   4.002   2.741  14.041 -0.4289 -0.1329  0.2833
 1019TIP3    H124548   3.969   2.702  13.961 -0.3148 -1.2377  0.7570
 1019TIP3    H224549   4.027   2.830  14.016  0.4736 -0.7449 -1.1246
 1020TIP3   OH224550   2.959   3.797  13.500  0.1230  0.2105  0.1691
 1020TIP3    H124551   3.033   3.816  13.442 -0.2831  2.9934  0.4281
 1020TIP3    H224552   2.997   3.791  13.587 -0.0074  2.8414  0.4723
 1021TIP3   OH224553   1.313   2.764   6.865 -0.3107  0.7007 -0.0857
 1021TIP3    H124554   1.294   2.831   6.799 -1.3138  1.4349  0.9013
 1021TIP3    H224555   1.244   2.699   6.853  0.4544 -0.0044 -0.8065
 1022TIP3   OH224556   1.596   5.954   4.514 -0.2413  0.1671 -0.2017
 1022TIP3    H124557   1.530   5.962   4.583  1.3058  0.8431  1.2724
 1022TIP3    H224558   1.595   6.038   4.469  0.9854  0.9633  1.1698
 1023TIP3   OH224559   1.737   6.195  12.288 -0.1941 -0.3961  0.2767
 1023TIP3    H124560   1.794   6.261  12.329 -0.1548  0.6338 -1.3580
 1023TIP3    H224561   1.797   6.141  12.237 -0.4094 -0.7301  0.3787
 1024TIP3   OH224562   0.944   2.514   0.893  0.1848 -0.3405 -0.3032
 1024TIP3    H124563   1.012   2.528   0.959 -1.6763 -0.3083  1.7564
 1024TIP3    H224564   0.987   2.465   0.824  1.9519 -1.6194  1.5784
 1025TIP3   OH224565   6.472   1.081  11.516 -0.4323  0.1389  0.1202
 1025TIP3    H124566   6.551   1.032  11.495 -0.9769 -1.5719  1.8216
 1025TIP3    H224567   6.429   1.095  11.432  0.2327 -1.4695 -0.5255
 1026TIP3   OH224568   5.969   1.465   1.730  0.0616  0.1627  0.4382
 1026TIP3    H124569   5.918   1.452   1.810  0.3998  1.7657  0.9648
 1026TIP3    H224570   5.904   1.470   1.660 -0.4857  1.4957  1.0053
 1027TIP3   OH224571   3.755   3.749   0.462 -0.3241 -0.0735 -0.0440
 1027TIP3    H124572   3.818   3.777   0.529 -0.3514  0.1748 -0.1205
 1027TIP3    H224573   3.800   3.767   0.379 -0.6764  0.5309 -0.1061
 1028TIP3   OH224574   1.680   2.491   1.711 -0.3802 -0.0183  0.4688
 1028TIP3    H124575   1.747   2.440   1.756 -1.0412 -0.6437  0.7849
 1028TIP3    H224576   1.712   2.500   1.622  0.0210 -0.4971  0.5577
 1029TIP3   OH224577   0.956   0.160  14.482 -0.2374  0.1077 -0.0309
 1029TIP3    H124578   0.982   0.072  14.508  1.2829  0.6250  0.2748
 1029TIP3    H224579   1.000   0.175  14.398  0.3781  0.9496  0.4269
 1030TIP3   OH224580   2.627   0.816  16.716  0.6110 -0.4798  0.7744
 1030TIP3    H124581   2.658   0.821  16.625  0.2576  0.8667  0.7023
 1030TIP3    H224582   2.680   0.879  16.763  0.3777 -0.7345  1.3843
 1031TIP3   OH224583   0.343   5.783  11.140 -0.1281  0.6100  0.4068
 1031TIP3    H124584   0.263   5.804  11.188  1.0462  1.1686  2.2276
 1031TIP3    H224585   0.379   5.707  11.187 -0.6865 -1.1096 -1.7804
 1032TIP3   OH224586   6.205   5.935  10.844 -0.1910  0.1764  0.2300
 1032TIP3    H124587   6.207   5.845  10.812 -1.0386  0.2183  0.0295
 1032TIP3    H224588   6.141   5.979  10.789  0.5721  1.0402  0.0084
 1033TIP3   OH224589   5.606   6.129  17.216  0.0636 -0.3393 -0.3848
 1033TIP3    H124590   5.677   6.172  17.263 -0.4184 -0.8277  0.8156
 1033TIP3    H224591   5.648   6.094  17.137  0.5683  1.8398 -1.1509
 1034TIP3   OH224592   0.635   6.605  11.263 -0.0366 -0.6016  0.2883
 1034TIP3    H124593   0.602   6.633  11.348  1.0477 -1.0573  0.8791
 1034TIP3    H224594   0.645   6.510  11.271  0.7488 -0.5644 -0.0890
 1035TIP3   OH224595   4.588   4.568  15.409 -0.2017  0.4055 -0.1595
 1035TIP3    H124596   4.644   4.494  15.387  0.5132  1.1637 -0.9749
 1035TIP3    H224597   4.648   4.642  15.417 -0.9631  1.0135  0.0415
 1036TIP3   OH224598   6.200   4.963  17.159 -0.6059 -0.0843 -0.5094
 1036TIP3    H124599   6.272   5.025  17.149  0.3465 -0.9558  0.6009
 1036TIP3    H224600   6.130   5.013  17.200 -0.2302  0.5113 -0.5938
 1037TIP3   OH224601   4.423   2.068  16.613  0.2480  0.0155  0.0185
 1037TIP3    H124602   4.473   2.099  16.538  2.5421  0.6651  1.7145
 1037TIP3    H224603   4.349   2.021  16.575  1.7780 -0.4245 -2.6300
 1038TIP3   OH224604   1.289   2.268  17.167 -0.2566  0.4404 -0.3298
 1038TIP3    H124605   1.244   2.191  17.203  0.9832 -0.4542 -0.6306
 1038TIP3    H224606   1.362   2.283  17.227 -0.1149  0.9837 -0.6385
 1039TIP3   OH224607   1.812   0.381   3.275  0.1473  0.0264  0.3460
 1039TIP3    H124608   1.788   0.474   3.269 -1.1892 -0.2333  1.2850
 1039TIP3    H224609   1.908   0.382   3.283  0.2342  1.2620 -0.6328
 1040TIP3   OH224610   4.692   0.616   2.162  0.0860 -0.1400 -0.2453
 1040TIP3    H124611   4.756   0.636   2.093 -0.9558  1.3532 -0.8295
 1040TIP3    H224612   4.694   0.521   2.170 -0.2526 -0.4314 -2.8504
 1041TIP3   OH224613   1.682   1.607  12.536  0.0700 -0.2843  0.2385
 1041TIP3    H124614   1.655   1.698  12.538 -2.4435 -0.8991 -1.1160
 1041TIP3    H224615   1.678   1.578  12.627  1.2248  0.9954  0.7245
 1042TIP3   OH224616   0.881   5.677  14.989  0.2895 -0.7492  0.1065
 1042TIP3    H124617   0.976   5.669  14.998  0.4091 -1.1353 -1.2929
 1042TIP3    H224618   0.851   5.589  14.969 -0.3372 -0.5751  0.2583
 1043TIP3   OH224619   1.992   1.504   3.182 -0.0449 -0.4146  0.3222
 1043TIP3    H124620   2.050   1.436   3.150  0.9923  0.5548  0.0614
 1043TIP3    H224621   2.028   1.585   3.146 -0.6177  0.3819  1.4752
 1044TIP3   OH224622   3.227   5.574  16.389  0.2047  0.7346  0.4259
 1044TIP3    H124623   3.214   5.556  16.482 -0.9458  1.1977  0.3671
 1044TIP3    H224624   3.187   5.660  16.375 -1.7689 -0.3239 -0.9439
 1045TIP3   OH224625   5.570   1.077  11.853  0.3526 -0.2885 -0.0513
 1045TIP3    H124626   5.538   1.002  11.903 -4.2166  2.1853  1.2765
 1045TIP3    H224627   5.536   1.063  11.765 -2.5030  1.0254  0.7143
 1046TIP3   OH224628   4.595   5.810   6.269 -0.3116  0.9113 -0.1017
 1046TIP3    H124629   4.561   5.899   6.275  0.5436  1.1865  1.0606
 1046TIP3    H224630   4.689   5.821   6.256 -0.2586  0.1793 -0.3771
 1047TIP3   OH224631   0.245   2.290  14.747 -0.7128  0.2027 -0.5118
 1047TIP3    H124632   0.318   2.345  14.720  0.4036 -0.2031  1.5097
 1047TIP3    H224633   0.167   2.339  14.722  0.2187  1.0319 -1.9470
 1048TIP3   OH224634   5.357   2.213  11.016 -0.3214 -0.3522  0.4525
 1048TIP3    H124635   5.347   2.131  10.968 -2.1108  0.9414 -1.5529
 1048TIP3    H224636   5.445   2.243  10.994 -0.4984 -0.6288 -0.6661
 1049TIP3   OH224637   5.923   2.292   0.918  0.1050  0.1281 -0.3901
 1049TIP3    H124638   5.996   2.354   0.918  1.6972 -1.6199 -0.6945
 1049TIP3    H224639   5.964   2.209   0.944 -1.7208 -1.0041 -0.9786
 1050TIP3   OH224640   0.328   0.658  16.074  0.3631  0.2559  0.7369
 1050TIP3    H124641   0.384   0.581  16.085 -1.0522 -1.2489 -1.5493
 1050TIP3    H224642   0.379   0.717  16.017  1.0631  0.6013  1.7009
 1051TIP3   OH224643   3.371   2.856  16.338  0.0916 -0.3440 -0.3092
 1051TIP3    H124644   3.400   2.864  16.247  2.7610 -1.3385  0.3459
 1051TIP3    H224645   3.349   2.764  16.349  2.7546 -0.9492  0.7280
 1052TIP3   OH224646   3.998   0.314  15.687 -0.2722 -0.1644  0.5622
 1052TIP3    H124647   4.016   0.363  15.607 -0.1080 -0.3632  0.4787
 1052TIP3    H224648   3.914   0.271  15.670 -0.3392 -0.0401  0.5761
 1053TIP3   OH224649   6.780   2.481   4.949  0.2206  0.7912  0.1734
 1053TIP3    H124650   6.874   2.482   4.930  0.7213  1.6583  2.3889
 1053TIP3    H224651   6.750   2.395   4.921  2.1585 -0.3768  1.4830
 1054TIP3   OH224652   6.076   6.125   0.426  0.5353 -0.2919 -0.3877
 1054TIP3    H124653   6.110   6.036   0.430  1.9365  0.1875 -1.2673
 1054TIP3    H224654   6.001   6.120   0.366 -0.0933 -1.0730  0.4410
 1055TIP3   OH224655   3.382   5.698  17.244 -0.2147 -0.2072 -0.6654
 1055TIP3    H124656   3.473   5.678  17.268  0.7930  3.6921 -0.5803
 1055TIP3    H224657   3.386   5.723  17.152 -0.8925  1.3004 -0.3185
 1056TIP3   OH224658   6.775   2.992  13.277  0.2152  0.0615  0.1664
 1056TIP3    H124659   6.823   2.931  13.221  2.9286  0.5807  1.7625
 1056TIP3    H224660   6.843   3.046  13.317 -1.9166  2.4571  0.7815
 1057TIP3   OH224661   4.519   5.326  17.044 -0.6728 -0.1996  0.6359
 1057TIP3    H124662   4.474   5.273  16.978  0.5224  0.4803 -0.7966
 1057TIP3    H224663   4.547   5.263  17.110 -1.3638 -1.0012  0.1934
 1058TIP3   OH224664   6.309   1.461   1.855 -0.2170  0.4255  0.6256
 1058TIP3    H124665   6.389   1.411   1.841 -1.0968 -0.9519  0.2861
 1058TIP3    H224666   6.240   1.394   1.861 -1.6624  1.6406 -1.3245
 1059TIP3   OH224667   6.303   6.746  13.066 -0.2559  0.5023  0.2230
 1059TIP3    H124668   6.279   6.839  13.062 -1.6392  0.1428 -0.6100
 1059TIP3    H224669   6.222   6.700  13.045  0.4498 -0.8946  0.4843
 1060TIP3   OH224670   0.075   1.457   4.199  0.4274  0.4406 -0.3306
 1060TIP3    H124671   0.128   1.440   4.277 -0.9564 -0.4847  0.4669
 1060TIP3    H224672   0.049   1.549   4.207 -0.9175 -0.0326  1.1223
 1061TIP3   OH224673   0.456   6.038  11.299 -0.1588  0.7743 -0.2604
 1061TIP3    H124674   0.368   6.027  11.264  0.1854  0.2508 -0.9726
 1061TIP3    H224675   0.474   5.956  11.345  0.1500  0.6787 -0.5492
 1062TIP3   OH224676   0.081   3.517   6.478  0.0217 -0.1436 -0.7819
 1062TIP3    H124677   0.135   3.452   6.525 -1.1325 -0.2941  0.4022
 1062TIP3    H224678   0.136   3.545   6.405  0.9370 -1.7474 -0.7726
 1063TIP3   OH224679   0.206   2.180  15.036  0.0130 -0.3551  0.0111
 1063TIP3    H124680   0.248   2.096  15.017 -1.4740 -1.1179 -0.1385
 1063TIP3    H224681   0.240   2.239  14.969  1.3315 -0.7345  0.3129
 1064TIP3   OH224682   1.789   0.780  16.417 -0.5587 -0.2940  0.1597
 1064TIP3    H124683   1.819   0.722  16.347  0.5593  0.1591  0.2403
 1064TIP3    H224684   1.870   0.809  16.460 -1.1187  0.9745  0.3880
 1065TIP3   OH224685   3.174   3.482   3.360  0.0616  0.1692  0.4647
 1065TIP3    H124686   3.263   3.456   3.337  0.4138 -0.5862  2.4993
 1065TIP3    H224687   3.119   3.410   3.328  0.1580  0.5697 -0.6643
 1066TIP3   OH224688   6.000   2.116  15.229 -0.1718  0.4871  0.1523
 1066TIP3    H124689   5.947   2.059  15.173 -0.2070 -0.1867  0.8491
 1066TIP3    H224690   6.075   2.140  15.175 -0.5151  0.3637 -0.3911
 1067TIP3   OH224691   3.871   1.620   0.273  0.7829 -0.5133  0.1343
 1067TIP3    H124692   3.804   1.687   0.257  0.8233 -0.2924  0.8530
 1067TIP3    H224693   3.936   1.665   0.327  1.5647 -0.6950 -0.6334
 1068TIP3   OH224694   0.107   2.763  16.949 -0.4540  0.3424 -0.1164
 1068TIP3    H124695   0.034   2.705  16.930  0.1310 -0.4636  0.0463
 1068TIP3    H224696   0.097   2.835  16.887 -0.6598 -0.3974 -0.9618
 1069TIP3   OH224697   4.279   1.771   2.593 -0.1576  0.0188 -0.5180
 1069TIP3    H124698   4.356   1.829   2.591  0.3092 -0.4937  0.9902
 1069TIP3    H224699   4.313   1.688   2.626 -1.1684 -0.5694 -0.9065
 1070TIP3   OH224700   2.530   2.294   0.554 -0.5548 -0.3522  0.4285
 1070TIP3    H124701   2.624   2.279   0.539 -0.6192 -1.1777  0.7786
 1070TIP3    H224702   2.500   2.340   0.475  0.8458  3.3128  1.8221
 1071TIP3   OH224703   2.886   4.090  13.023 -0.2778  0.2587  0.3526
 1071TIP3    H124704   2.809   4.032  13.023 -0.1060  0.0275  0.3026
 1071TIP3    H224705   2.898   4.114  13.115  0.5447 -0.9967  0.5978
 1072TIP3   OH224706   6.566   0.961   4.719 -0.0907  0.4863  0.1149
 1072TIP3    H124707   6.594   0.902   4.648  0.4334  2.8227 -1.7755
 1072TIP3    H224708   6.585   0.912   4.799  1.9162 -1.2477 -1.2736
 1073TIP3   OH224709   2.388   4.897  16.621 -0.1765 -0.0510 -0.7225
 1073TIP3    H124710   2.410   4.810  16.587  0.4007 -0.4484  0.6050
 1073TIP3    H224711   2.352   4.880  16.708  2.0498  1.1470  0.5111
 1074TIP3   OH224712   6.570   2.630  13.899 -0.0506  0.6286  0.0683
 1074TIP3    H124713   6.554   2.675  13.816  1.7758  1.3821  0.0726
 1074TIP3    H224714   6.644   2.572  13.881 -0.9686 -0.7549  0.6515
 1075TIP3   OH224715   4.549   3.866  11.228  0.6502  0.3822  0.2411
 1075TIP3    H124716   4.575   3.921  11.155  2.7247 -0.5122  0.2425
 1075TIP3    H224717   4.511   3.788  11.187  0.6383  0.4293  0.1622
 1076TIP3   OH224718   2.682   1.288  14.149 -0.0985  0.0802 -0.3694
 1076TIP3    H124719   2.628   1.302  14.227  0.3763  1.1605 -0.2182
 1076TIP3    H224720   2.670   1.368  14.098 -1.7663 -1.2588 -2.2687
 1077TIP3   OH224721   3.951   3.479  13.832 -0.1077  0.1751 -0.2328
 1077TIP3    H124722   4.042   3.455  13.819  0.8173  1.8936  2.2726
 1077TIP3    H224723   3.901   3.402  13.805  2.1057 -1.0530 -0.9855
 1078TIP3   OH224724   5.548   1.206  13.826 -0.6154 -0.2315 -0.5522
 1078TIP3    H124725   5.456   1.202  13.852 -0.2245 -1.6749  0.8095
 1078TIP3    H224726   5.589   1.262  13.892 -0.6475  1.1781 -1.6930
 1079TIP3   OH224727   1.243   1.499   5.447  0.3434  0.0240 -0.4637
 1079TIP3    H124728   1.290   1.508   5.530  1.0878 -0.6063 -0.8121
 1079TIP3    H224729   1.162   1.452   5.470  0.5496 -0.1499 -0.0950
 1080TIP3   OH224730   3.521   0.088  11.884  0.0089 -0.2093  0.1387
 1080TIP3    H124731   3.505   0.144  11.960  1.2944  1.4661 -0.7530
 1080TIP3    H224732   3.611   0.106  11.860 -0.7986  0.5173 -2.7180
 1081TIP3   OH224733   1.628   6.072  12.513 -0.1611 -0.4280 -0.3470
 1081TIP3    H124734   1.705   6.102  12.464  1.9895 -1.2436  2.2233
 1081TIP3    H224735   1.581   6.015  12.452  2.0565 -1.0043 -1.6509
 1082TIP3   OH224736   3.541   0.681   3.403  0.1439  0.2667 -0.2727
 1082TIP3    H124737   3.626   0.685   3.358 -1.1690 -0.0781 -2.9852
 1082TIP3    H224738   3.559   0.631   3.482  2.3777 -0.2682 -1.0243
 1083TIP3   OH224739   6.248   1.448  14.747  0.0970  0.0753 -0.0736
 1083TIP3    H124740   6.248   1.353  14.736  0.7446  0.1493 -0.8102
 1083TIP3    H224741   6.212   1.483  14.665 -0.8770  0.4534  0.4930
 1084TIP3   OH224742   4.327   0.078   4.855  0.1539 -0.3194 -0.3486
 1084TIP3    H124743   4.280   0.100   4.935 -0.0504  1.4385 -0.9059
 1084TIP3    H224744   4.383   0.004   4.879 -0.1873 -0.0689  1.3066
 1085TIP3   OH224745   1.975   6.004  12.265  0.1339 -0.0886 -0.0540
 1085TIP3    H124746   2.045   6.002  12.199  1.0182  1.2635  0.8061
 1085TIP3    H224747   2.017   5.975  12.346 -0.6446 -0.5768  0.1802
 1086TIP3   OH224748   5.919   6.498   1.167 -0.8067  0.3896  0.0932
 1086TIP3    H124749   5.961   6.412   1.160 -1.3314  0.0996  0.4006
 1086TIP3    H224750   5.973   6.547   1.228 -1.2219 -0.1758  0.9306
 1087TIP3   OH224751   5.784   2.567  11.061  0.2753  0.0700  0.2483
 1087TIP3    H124752   5.771   2.608  10.976 -1.6022 -0.1575  0.3848
 1087TIP3    H224753   5.798   2.474  11.041  3.1365  0.4449  0.0347
 1088TIP3   OH224754   4.469   5.136  14.321  0.9699  0.2215 -0.0936
 1088TIP3    H124755   4.434   5.073  14.258 -1.1965  1.5206 -0.2871
 1088TIP3    H224756   4.391   5.175  14.362  2.2803  0.4852  2.3309
 1089TIP3   OH224757   5.108   5.980  14.020 -0.1402  0.0905  0.3026
 1089TIP3    H124758   5.128   5.928  14.098  1.9962 -0.1081 -0.3174
 1089TIP3    H224759   5.090   5.915  13.952  1.0534  0.1642 -0.1042
 1090TIP3   OH224760   0.447   2.309   1.068 -0.3212 -0.3234  0.2112
 1090TIP3    H124761   0.424   2.389   1.021  1.1614 -0.1082 -0.1953
 1090TIP3    H224762   0.503   2.260   1.008 -1.6977 -1.9967  0.2134
 1091TIP3   OH224763   1.237   5.525   5.067 -0.8209 -0.0848 -0.4934
 1091TIP3    H124764   1.305   5.593   5.061 -0.3411 -0.6398 -1.4679
 1091TIP3    H224765   1.179   5.543   4.994 -1.3705 -0.0216 -0.0509
 1092TIP3   OH224766   2.828   0.983   4.236  0.1817 -0.6346 -0.2452
 1092TIP3    H124767   2.752   0.987   4.178  0.2611 -1.4520 -0.4115
 1092TIP3    H224768   2.809   0.911   4.296  0.3032 -0.0851  0.4673
 1093TIP3   OH224769   0.228   2.174   1.193  0.0615 -0.6826  0.0134
 1093TIP3    H124770   0.294   2.242   1.179  0.1924 -1.2131 -2.3923
 1093TIP3    H224771   0.145   2.219   1.181  0.0007 -0.3233  1.5920
 1094TIP3   OH224772   3.734   0.812  11.268  0.6060  0.1729 -0.2306
 1094TIP3    H124773   3.658   0.869  11.260 -0.1313 -0.7168  0.2588
 1094TIP3    H224774   3.804   0.859  11.222  0.0603  1.5158  0.2587
 1095TIP3   OH224775   4.120   1.340  16.567  0.2324 -0.0455 -0.4324
 1095TIP3    H124776   4.083   1.297  16.489  0.5913  1.4484 -1.4523
 1095TIP3    H224777   4.143   1.428  16.538  1.5225  0.1538  1.0591
 1096TIP3   OH224778   0.721   2.324   5.678  0.1031  0.9098  0.0323
 1096TIP3    H124779   0.664   2.284   5.612  1.0965 -0.5046 -0.0094
 1096TIP3    H224780   0.707   2.271   5.756  0.2898  1.4511  0.4363
 1097TIP3   OH224781   1.947   2.973  16.810 -0.2792 -0.4026  0.0973
 1097TIP3    H124782   1.925   3.044  16.750 -1.1668 -0.0470  0.8193
 1097TIP3    H224783   2.020   2.928  16.767 -0.5646  0.1313 -1.0049
 1098TIP3   OH224784   3.269   6.536  10.316  0.1262  0.1693  0.2497
 1098TIP3    H124785   3.204   6.598  10.282 -0.5046  0.1156  1.3024
 1098TIP3    H224786   3.239   6.451  10.285  1.6271  0.4247 -2.1843
 1099TIP3   OH224787   4.074   0.478  16.092 -0.4888  0.2094 -0.0527
 1099TIP3    H124788   4.126   0.441  16.021  0.6793  0.2017  0.7645
 1099TIP3    H224789   4.024   0.549  16.052  2.1339  1.9693 -0.4202
 1100TIP3   OH224790   1.562   5.810  11.504 -0.0949 -0.1812 -0.1743
 1100TIP3    H124791   1.584   5.882  11.445 -0.2455  0.8205  0.9692
 1100TIP3    H224792   1.646   5.774  11.530 -0.0220 -0.5312 -0.8609
 1101TIP3   OH224793   4.143   0.365  12.010  0.1182 -0.5539  0.0072
 1101TIP3    H124794   4.192   0.283  12.021  1.3019  0.0530 -0.4844
 1101TIP3    H224795   4.070   0.358  12.070 -0.3266 -2.3668 -0.6785
 1102TIP3   OH224796   4.776   1.305   5.097 -0.2952 -0.1287  0.1927
 1102TIP3    H124797   4.797   1.372   5.162  2.2075 -1.5991  1.0578
 1102TIP3    H224798   4.728   1.238   5.146 -0.3227 -0.2377  0.0195
 1103TIP3   OH224799   5.559   5.809   1.369 -0.4229  1.2716 -0.0388
 1103TIP3    H124800   5.571   5.740   1.304  1.1180  2.9368 -1.6624
 1103TIP3    H224801   5.513   5.879   1.321 -0.0021  2.2149  0.8973
 1104TIP3   OH224802   3.703   3.560   0.972  0.5082  0.4105 -0.3893
 1104TIP3    H124803   3.714   3.471   1.007 -0.6635  0.4873  0.2153
 1104TIP3    H224804   3.621   3.556   0.923  1.1565  0.8115 -1.5406
 1105TIP3   OH224805   5.183   3.306  12.063 -0.4510 -0.5269 -0.5247
 1105TIP3    H124806   5.160   3.236  12.124 -1.6497  0.2274 -0.0719
 1105TIP3    H224807   5.183   3.386  12.117 -0.3520 -0.0035 -1.2796
 1106TIP3   OH224808   5.178   5.068  11.387 -0.0453  0.3305  0.3324
 1106TIP3    H124809   5.269   5.089  11.368 -0.1947  2.2571  1.4563
 1106TIP3    H224810   5.133   5.076  11.304  0.6075  0.5344 -0.0082
 1107TIP3   OH224811   3.275   4.335   0.925  0.1479 -0.0171 -0.3685
 1107TIP3    H124812   3.189   4.306   0.895  0.2983  0.7461 -1.6219
 1107TIP3    H224813   3.335   4.306   0.856  0.8513 -0.2555  0.3342
 1108TIP3   OH224814   3.011   1.237  14.437  0.3865 -0.3769  0.2283
 1108TIP3    H124815   3.022   1.170  14.370  0.4611  0.0338 -0.1735
 1108TIP3    H224816   3.072   1.212  14.507  1.2331 -0.1046 -0.4066
 1109TIP3   OH224817   0.682   0.170   1.308 -0.2605 -0.3796  0.8342
 1109TIP3    H124818   0.636   0.108   1.251 -1.6109  1.5548 -0.3144
 1109TIP3    H224819   0.773   0.167   1.280 -0.7520 -0.1024 -0.8684
 1110TIP3   OH224820   5.268   0.193  14.778  0.3051  0.0200 -0.0801
 1110TIP3    H124821   5.229   0.237  14.854 -0.6831 -1.3902  0.2759
 1110TIP3    H224822   5.293   0.265  14.719 -3.7116  1.1210 -0.7736
 1111TIP3   OH224823   3.431   0.008   0.211 -0.0200 -0.3425  0.5914
 1111TIP3    H124824   3.478  -0.076   0.204  0.0485 -0.3687  1.2818
 1111TIP3    H224825   3.499   0.074   0.201  0.1794 -0.3801  1.5794
 1112TIP3   OH224826   2.764   0.959   2.020 -0.4049 -0.1158  0.2244
 1112TIP3    H124827   2.854   0.990   2.009 -0.3228 -0.4881 -0.1881
 1112TIP3    H224828   2.711   1.018   1.966 -0.1932 -0.9520 -0.9418
 1113TIP3   OH224829   6.808   4.837  16.818  0.2270  0.3536 -0.1031
 1113TIP3    H124830   6.780   4.747  16.834 -0.4717  0.5266 -0.3432
 1113TIP3    H224831   6.766   4.888  16.887  1.4447  0.3687  0.6630
 1114TIP3   OH224832   3.245   4.137   1.955 -0.1145  0.3583 -0.2876
 1114TIP3    H124833   3.239   4.232   1.943  3.7034  0.5683 -1.8626
 1114TIP3    H224834   3.307   4.125   2.027  0.3788 -0.8981 -0.8766
 1115TIP3   OH224835   2.380   1.553   4.657 -0.2304 -0.0873 -0.3942
 1115TIP3    H124836   2.392   1.463   4.628  0.8074 -0.1441  0.1603
 1115TIP3    H224837   2.358   1.602   4.578  0.8810 -0.5264 -0.9826
 1116TIP3   OH224838   4.328   0.441  13.596  0.4433  0.3110 -0.2857
 1116TIP3    H124839   4.385   0.478  13.529 -1.0503  0.9223 -1.2719
 1116TIP3    H224840   4.309   0.515  13.654 -0.9928  0.6888 -1.1688
 1117TIP3   OH224841   6.260   3.968  15.619  0.4883 -0.3357 -0.0683
 1117TIP3    H124842   6.262   3.922  15.704  1.5727  1.1982  0.7797
 1117TIP3    H224843   6.334   3.931  15.570  2.5378  1.6404  1.3130
 1118TIP3   OH224844   0.080   1.794  11.262 -0.1195  0.2416  0.0889
 1118TIP3    H124845   0.083   1.705  11.297  0.2715  0.3812  0.4176
 1118TIP3    H224846   0.051   1.784  11.171 -1.8401 -0.0726  0.6420
 1119TIP3   OH224847   3.091   3.857  13.266 -0.4510 -0.2532 -0.2543
 1119TIP3    H124848   3.037   3.812  13.201  1.4025 -0.1530 -1.9387
 1119TIP3    H224849   3.174   3.809  13.266 -0.1606  0.1830  1.5459
 1120TIP3   OH224850   1.212   5.753   0.080 -0.3637 -0.0561  0.2444
 1120TIP3    H124851   1.180   5.670   0.113  0.5326 -0.9866 -1.0875
 1120TIP3    H224852   1.272   5.784   0.147 -0.2290 -0.8059  0.4836
 1121TIP3   OH224853   2.467   5.393  11.591  0.4699 -0.2400  0.0030
 1121TIP3    H124854   2.419   5.475  11.603 -0.2906 -0.4860 -1.1836
 1121TIP3    H224855   2.547   5.419  11.544  0.1929 -0.1872 -0.4422
 1122TIP3   OH224856   2.407   0.929   0.885 -0.2913  0.0071  0.1296
 1122TIP3    H124857   2.344   0.858   0.886  0.1354 -0.3737  0.6300
 1122TIP3    H224858   2.489   0.890   0.854 -0.4398  0.6311 -1.1082
 1123TIP3   OH224859   2.205   0.901   2.584 -0.1358 -0.2591 -0.3297
 1123TIP3    H124860   2.297   0.880   2.597  0.0048  0.1578 -0.6354
 1123TIP3    H224861   2.204   0.966   2.514 -0.7359 -1.0157 -1.0466
 1124TIP3   OH224862   4.327   1.992   6.259 -0.2627  0.0523  0.1925
 1124TIP3    H124863   4.395   2.040   6.307  1.2647  0.6187 -2.3268
 1124TIP3    H224864   4.360   1.902   6.255 -0.0251  0.1584 -0.3547
 1125TIP3   OH224865   4.708   2.037  14.242 -0.7955 -0.3323  0.2753
 1125TIP3    H124866   4.719   1.947  14.210 -0.5791 -0.5024  0.8127
 1125TIP3    H224867   4.791   2.057  14.286 -0.7649  0.2085 -0.0200
 1126TIP3   OH224868   6.200   0.948   2.313  0.2817 -0.4239  0.6741
 1126TIP3    H124869   6.180   1.003   2.237 -1.1899  0.2498  1.5072
 1126TIP3    H224870   6.171   1.000   2.388 -0.0563 -1.8588  1.5637
 1127TIP3   OH224871   3.831   0.260   0.015  0.2285 -0.0855 -0.0204
 1127TIP3    H124872   3.785   0.313  -0.051  1.2520  1.0946  0.1718
 1127TIP3    H224873   3.904   0.221  -0.033  0.1539 -0.3884  0.1093
 1128TIP3   OH224874   1.122   6.204   4.118 -0.0971  0.7529  0.5403
 1128TIP3    H124875   1.194   6.166   4.068 -0.4075 -2.5233  2.2983
 1128TIP3    H224876   1.049   6.208   4.056  0.2443 -0.6892 -0.0018
 1129TIP3   OH224877   2.888   0.906  15.201 -0.0892  0.4892 -0.3602
 1129TIP3    H124878   2.948   0.887  15.273  0.0099  0.4005 -0.4658
 1129TIP3    H224879   2.842   0.824  15.186 -0.7657  0.7592  0.2100
 1130TIP3   OH224880   6.267   5.136   5.051 -0.4595 -0.4605 -0.5342
 1130TIP3    H124881   6.181   5.094   5.050 -0.5620 -0.2429 -1.6557
 1130TIP3    H224882   6.256   5.215   4.997 -0.0377  0.5624  0.8028
 1131TIP3   OH224883   0.990   5.957   5.306  1.2306 -0.0497  0.9996
 1131TIP3    H124884   1.032   5.988   5.386 -0.7569  1.1054  1.6582
 1131TIP3    H224885   0.971   5.865   5.323  1.1234  0.1004  1.7370
 1132TIP3   OH224886   2.484   1.308   6.346  0.2784 -0.4416  0.4407
 1132TIP3    H124887   2.542   1.233   6.356  0.5671 -0.1689  0.8538
 1132TIP3    H224888   2.502   1.363   6.423  1.5165  1.0106 -0.8185
 1133TIP3   OH224889   1.938   0.418   6.034 -0.0527 -0.2811  0.5088
 1133TIP3    H124890   1.953   0.490   6.095 -0.4385 -0.5140  0.8899
 1133TIP3    H224891   1.961   0.340   6.085  0.1619 -0.4402  0.1691
 1134TIP3   OH224892   5.766   4.738   1.872 -0.2469 -0.1077  0.2901
 1134TIP3    H124893   5.804   4.738   1.960  0.3402 -0.3007  0.0421
 1134TIP3    H224894   5.672   4.745   1.887 -0.2196 -0.9245  0.9753
 1135TIP3   OH224895   4.404   0.079   2.634  0.1289 -0.0273  0.1583
 1135TIP3    H124896   4.464   0.126   2.692  0.0284 -0.3477  0.5223
 1135TIP3    H224897   4.442   0.090   2.547 -0.3485  1.4627  0.1108
 1136TIP3   OH224898   5.052   4.934  13.845  0.3535  0.2058 -0.0694
 1136TIP3    H124899   5.085   4.890  13.924 -1.7595  1.7971  1.8367
 1136TIP3    H224900   5.113   5.006  13.829 -1.1513  2.2404  2.5472
 1137TIP3   OH224901   5.544   0.380   5.114  0.3491 -0.0435  0.0770
 1137TIP3    H124902   5.550   0.299   5.063  2.3975 -0.3704  0.7607
 1137TIP3    H224903   5.455   0.380   5.148 -0.4732 -0.7648 -1.9080
 1138TIP3   OH224904   1.565   1.047  14.099 -0.1639 -0.0920  0.1466
 1138TIP3    H124905   1.524   1.123  14.060 -0.4329 -0.5601 -0.4959
 1138TIP3    H224906   1.614   1.082  14.174  0.6685  0.8680 -0.8146
 1139TIP3   OH224907   1.614   6.764  13.996  0.1235  0.2124  0.0200
 1139TIP3    H124908   1.580   6.827  14.061  3.1272  1.5315  0.5009
 1139TIP3    H224909   1.661   6.818  13.933  1.5919 -1.4189 -0.3666
 1140TIP3   OH224910   2.370   6.047   1.580 -0.7482  0.0802 -0.6334
 1140TIP3    H124911   2.381   5.976   1.643 -0.0705 -0.3225 -1.1885
 1140TIP3    H224912   2.285   6.031   1.540 -0.8190 -0.1293 -0.3993
 1141TIP3   OH224913   1.899   2.388   1.802  0.2779  0.3980 -0.2033
 1141TIP3    H124914   1.909   2.340   1.884 -0.3467 -0.6813 -0.7439
 1141TIP3    H224915   1.954   2.340   1.739  0.1260  0.7493 -0.6103
 1142TIP3   OH224916   2.606   1.983  11.719 -0.1947  0.3775 -0.3702
 1142TIP3    H124917   2.565   2.034  11.789 -0.6673  0.0209 -0.3826
 1142TIP3    H224918   2.620   2.047  11.649  1.8524  1.1273  0.6529
 1143TIP3   OH224919   6.085   5.596   0.584  0.4953  0.2418 -0.5470
 1143TIP3    H124920   6.166   5.619   0.538  1.0742  1.4124  0.9485
 1143TIP3    H224921   6.073   5.502   0.568  1.8819  0.1615 -1.2126
 1144TIP3   OH224922   1.174   0.315   1.035 -0.4441 -0.5149  0.2567
 1144TIP3    H124923   1.236   0.371   0.988 -0.7840 -0.4979 -0.1761
 1144TIP3    H224924   1.190   0.228   1.000 -1.2648 -0.3725 -0.4986
 1145TIP3   OH224925   6.712   3.157   4.568 -0.1719  0.0355 -0.1873
 1145TIP3    H124926   6.716   3.062   4.582 -1.5977 -0.1222 -0.6656
 1145TIP3    H224927   6.763   3.171   4.488  1.3125 -0.0936  0.6888
 1146TIP3   OH224928   6.334   1.152   4.698 -0.0521 -0.1072 -0.1951
 1146TIP3    H124929   6.388   1.077   4.721 -2.1300 -1.3380  1.0678
 1146TIP3    H224930   6.330   1.151   4.603  1.1238 -0.7069 -0.2548
 1147TIP3   OH224931   4.901   6.447   0.280 -0.8569  0.2229  0.4004
 1147TIP3    H124932   4.995   6.435   0.285 -0.8300  0.2035 -0.0901
 1147TIP3    H224933   4.887   6.538   0.308 -0.8585 -0.2582  2.0515
 1148TIP3   OH224934   5.715   3.697   2.817 -0.6202 -0.4215  0.7495
 1148TIP3    H124935   5.801   3.734   2.800 -0.3483 -0.6137  1.6242
 1148TIP3    H224936   5.656   3.772   2.816 -0.5779 -0.3896 -0.6361
 1149TIP3   OH224937   3.665   3.338  10.698  0.0467  0.0732 -0.1202
 1149TIP3    H124938   3.729   3.409  10.703 -0.3114  0.5607 -1.6704
 1149TIP3    H224939   3.669   3.309  10.606 -3.0437  1.2405 -0.7459
 1150TIP3   OH224940   3.122   6.300   5.390  0.0733 -0.1949 -1.0648
 1150TIP3    H124941   3.179   6.359   5.439  0.9117 -1.7785 -0.0615
 1150TIP3    H224942   3.156   6.304   5.300  1.3006 -0.5439 -0.6359
 1151TIP3   OH224943   3.809   5.153  14.860  0.3141  0.0829  0.1486
 1151TIP3    H124944   3.768   5.072  14.831  1.5995 -0.6532  0.3299
 1151TIP3    H224945   3.772   5.221  14.803  1.4653 -1.0497 -2.0779
 1152TIP3   OH224946   1.774   0.562  14.937  0.3403  0.0519  0.1587
 1152TIP3    H124947   1.794   0.535  15.026 -0.7472 -0.3333  0.2927
 1152TIP3    H224948   1.758   0.480  14.890 -1.9203  0.3417  0.3151
 1153TIP3   OH224949   5.852   3.399   3.886 -0.5049 -0.0234  0.2463
 1153TIP3    H124950   5.891   3.357   3.962 -3.3749 -1.7959  0.9239
 1153TIP3    H224951   5.810   3.327   3.838 -0.7910  1.3641 -1.7321
 1154TIP3   OH224952   5.223   3.702  13.192  0.1057  0.2505  0.4885
 1154TIP3    H124953   5.219   3.779  13.135  2.3482  1.0921  1.3549
 1154TIP3    H224954   5.206   3.736  13.279 -0.7475 -0.5875  0.6650
 1155TIP3   OH224955   0.726   3.864   0.981  0.2460 -0.2651 -0.1417
 1155TIP3    H124956   0.637   3.900   0.993  0.4119 -0.0625  0.5315
 1155TIP3    H224957   0.716   3.770   0.995 -0.0300 -0.3714 -1.0127
 1156TIP3   OH224958   3.531   4.007  13.357 -0.3344  0.4826  0.3351
 1156TIP3    H124959   3.613   4.053  13.374 -0.8846  1.2463  1.0315
 1156TIP3    H224960   3.537   3.979  13.265  0.3747  1.2159  0.1482
 1157TIP3   OH224961   6.671   4.373   1.481 -0.0202  0.3208  0.0016
 1157TIP3    H124962   6.650   4.377   1.388  0.0659 -0.4459 -0.0625
 1157TIP3    H224963   6.590   4.344   1.523  0.4786 -1.3131 -0.0877
 1158TIP3   OH224964   4.200   6.252   1.580  0.0604 -0.2070 -0.3472
 1158TIP3    H124965   4.154   6.318   1.527 -0.1654 -0.3408 -0.3223
 1158TIP3    H224966   4.172   6.270   1.670 -0.1348 -0.4393 -0.3591
 1159TIP3   OH224967   4.278   0.028  14.776  0.1008 -0.2697  0.1897
 1159TIP3    H124968   4.223   0.039  14.699 -0.4704  0.2872  0.6694
 1159TIP3    H224969   4.367   0.043  14.744 -0.1150 -0.1749 -0.3839
 1160TIP3   OH224970   1.199   2.280  11.956 -0.1950 -0.0074  0.3176
 1160TIP3    H124971   1.261   2.213  11.983 -0.6820 -0.3383  0.6152
 1160TIP3    H224972   1.252   2.360  11.948  0.2032 -0.2126  0.8898
 1161TIP3   OH224973   2.227   5.779  12.099 -0.1614  0.6312 -0.2219
 1161TIP3    H124974   2.252   5.792  12.190 -1.0576  2.1055 -0.1475
 1161TIP3    H224975   2.132   5.793  12.098 -0.2695 -0.0964 -1.2577
 1162TIP3   OH224976   0.858   0.043   1.014 -0.0295  0.4232  0.5650
 1162TIP3    H124977   0.892   0.049   0.925  3.4075 -0.0281  1.7216
 1162TIP3    H224978   0.848  -0.051   1.029 -0.0057  0.4689  0.8635
 1163TIP3   OH224979   4.405   0.622   1.975  0.1203 -0.1530 -0.3591
 1163TIP3    H124980   4.419   0.644   2.068  2.0242  0.7439 -0.7936
 1163TIP3    H224981   4.466   0.550   1.958 -0.3437 -0.4302 -0.8808
 1164TIP3   OH224982   0.686   0.686   5.739 -0.2712 -0.0991 -0.0668
 1164TIP3    H124983   0.782   0.678   5.739 -0.1940  0.7073 -0.5750
 1164TIP3    H224984   0.657   0.620   5.675  0.1159  1.1735 -1.6170
 1165TIP3   OH224985   6.691   0.436   4.167 -0.2211  0.2082 -0.3605
 1165TIP3    H124986   6.765   0.429   4.227 -0.0045 -1.4900 -0.7796
 1165TIP3    H224987   6.643   0.354   4.179 -0.8252  0.3552 -1.6612
 1166TIP3   OH224988   3.672   3.409  12.491  0.0918 -0.6081 -0.0063
 1166TIP3    H124989   3.650   3.434  12.580  0.4805  0.1331 -0.1110
 1166TIP3    H224990   3.627   3.473  12.436  0.8101 -0.3234 -0.2900
 1167TIP3   OH224991   5.490   6.033  15.593 -0.2447  0.0356 -0.4225
 1167TIP3    H124992   5.585   6.032  15.589 -0.2902  0.2991 -2.1852
 1167TIP3    H224993   5.467   6.126  15.591 -0.5240  0.1374  2.5175
 1168TIP3   OH224994   4.189   3.102  14.943 -0.8835  0.1767 -0.2902
 1168TIP3    H124995   4.154   3.066  15.024  2.6668  0.6053  1.6354
 1168TIP3    H224996   4.217   3.026  14.892  0.9723 -0.0759  1.0028
 1169TIP3   OH224997   2.548   0.434  15.086  0.3989  0.4372 -0.0853
 1169TIP3    H124998   2.477   0.383  15.125  0.5545 -0.3238 -0.7742
 1169TIP3    H224999   2.626   0.406  15.134  0.8916 -1.8573 -2.0600
 1170TIP3   OH225000   3.707   6.126   3.502 -0.8282  0.2262 -0.3968
 1170TIP3    H125001   3.726   6.040   3.539 -0.6478  1.2469  2.0491
 1170TIP3    H225002   3.622   6.150   3.539  0.1358  2.0097  0.8254
 1171TIP3   OH225003   2.034   5.520   1.722 -0.0570  0.6545  0.0329
 1171TIP3    H125004   2.099   5.514   1.792  1.7214  1.0602 -1.4954
 1171TIP3    H225005   1.951   5.498   1.764  0.7468  1.9105  2.4965
 1172TIP3   OH225006   2.183   5.365  11.490 -0.1952  0.5668  0.1489
 1172TIP3    H125007   2.227   5.398  11.569  1.5676 -0.4718 -0.3363
 1172TIP3    H225008   2.250   5.372  11.421 -1.5019  0.8814 -1.1341
 1173TIP3   OH225009   3.338   4.466  11.786  1.0288  0.2858 -0.0476
 1173TIP3    H125010   3.252   4.499  11.811  0.1478 -0.3793 -1.9711
 1173TIP3    H225011   3.362   4.405  11.855 -0.4876 -0.2180  0.0683
 1174TIP3   OH225012   0.934   0.357   2.248 -0.4203  0.6999 -0.2620
 1174TIP3    H125013   0.913   0.449   2.264 -2.3217  0.4033 -0.8929
 1174TIP3    H225014   0.855   0.309   2.271 -0.3712 -0.5294 -2.3734
 1175TIP3   OH225015   4.814   2.289  15.550 -0.6381 -0.5057 -0.7682
 1175TIP3    H125016   4.870   2.331  15.485 -0.0136  0.1031  0.1305
 1175TIP3    H225017   4.764   2.224  15.501  0.4130 -0.6426 -1.6949
 1176TIP3   OH225018   2.970   4.744  12.353 -0.2464  0.1599 -0.3081
 1176TIP3    H125019   3.033   4.816  12.358  0.3872 -0.4189  0.3276
 1176TIP3    H225020   3.023   4.667  12.330 -0.9090 -0.1146 -0.9693
 1177TIP3   OH225021   0.027   0.377   0.415 -0.1181  0.2239  0.1366
 1177TIP3    H125022  -0.035   0.319   0.459  0.3946  0.6724  1.4972
 1177TIP3    H225023   0.007   0.366   0.322 -1.5158 -0.4421  0.4776
 1178TIP3   OH225024   3.852   2.435   1.377  0.3596  0.4173  0.4178
 1178TIP3    H125025   3.921   2.381   1.340 -3.0217 -3.6013 -0.7041
 1178TIP3    H225026   3.859   2.421   1.472  1.8004  1.1466  0.4440
 1179TIP3   OH225027   6.460   1.926   4.346  1.1165  0.1578  0.6480
 1179TIP3    H125028   6.470   1.831   4.332  0.3772  0.0163  0.9884
 1179TIP3    H225029   6.546   1.955   4.376  1.9835 -0.0024 -1.5262
 1180TIP3   OH225030   5.214   5.165   3.007 -0.4501 -0.7422 -0.1032
 1180TIP3    H125031   5.173   5.236   2.958  0.8837  0.0115 -0.2005
 1180TIP3    H225032   5.203   5.189   3.099 -1.1473 -1.0937 -0.0915
 1181TIP3   OH225033   5.681   0.991   3.847 -0.0863 -0.1445  0.4648
 1181TIP3    H125034   5.634   1.041   3.780  0.5227  0.3954  0.4261
 1181TIP3    H225035   5.768   1.030   3.849  1.2428 -2.8057 -1.3025
 1182TIP3   OH225036   1.812   3.772  12.273  0.7763  0.2773  0.0005
 1182TIP3    H125037   1.781   3.752  12.361 -0.1238 -1.0716 -0.5957
 1182TIP3    H225038   1.830   3.687  12.233  1.6654  0.8844 -0.9616
 1183TIP3   OH225039   1.920   1.388   6.486  0.7888  0.2345  0.0251
 1183TIP3    H125040   2.009   1.363   6.514  0.6550 -0.5310 -0.2085
 1183TIP3    H225041   1.934   1.440   6.408  1.0473  0.3519  0.1460
 1184TIP3   OH225042   0.781   4.637  16.540 -0.3293 -0.4694 -0.6285
 1184TIP3    H125043   0.717   4.647  16.610 -0.1744  0.9576 -0.6469
 1184TIP3    H225044   0.728   4.623  16.461 -0.5761 -0.2946 -0.4941
 1185TIP3   OH225045   6.395   4.362   1.993 -0.0464 -0.2632 -0.6521
 1185TIP3    H125046   6.421   4.447   2.029  0.3762 -1.0302  0.9332
 1185TIP3    H225047   6.400   4.302   2.067  1.5354 -2.0813 -2.1283
 1186TIP3   OH225048   5.049   0.857  13.414  0.1562  0.1061 -0.3171
 1186TIP3    H125049   5.079   0.781  13.463  2.9677  1.0769 -0.3784
 1186TIP3    H225050   5.030   0.824  13.326 -2.8759 -1.2345  0.6888
 1187TIP3   OH225051   4.170   2.647   0.689 -0.1052  0.2193 -0.0366
 1187TIP3    H125052   4.124   2.638   0.773  1.0113  0.9764  0.6815
 1187TIP3    H225053   4.157   2.738   0.664  1.5388  0.6441  0.5309
 1188TIP3   OH225054   0.542   3.152   1.003 -0.0724  0.2014  0.0637
 1188TIP3    H125055   0.569   3.224   0.946  1.1338  0.9108  1.4790
 1188TIP3    H225056   0.466   3.186   1.050 -2.0417 -0.9031 -2.0686
 1189TIP3   OH225057   6.253   2.337  16.268 -0.7165  0.4764  0.1958
 1189TIP3    H125058   6.198   2.304  16.197  0.2104  2.0035 -1.3168
 1189TIP3    H225059   6.273   2.260  16.321 -2.4018 -0.5053 -0.5179
 1190TIP3   OH225060   5.969   6.580  14.892  0.2419 -0.0159 -0.5673
 1190TIP3    H125061   5.901   6.515  14.910  1.5513 -1.3163 -0.1034
 1190TIP3    H225062   5.941   6.658  14.941 -0.9127 -0.5035 -0.4102
 1191TIP3   OH225063   2.590   3.518   1.314  0.9457 -0.4524 -0.9948
 1191TIP3    H125064   2.640   3.470   1.379  1.1721  1.4958  0.3531
 1191TIP3    H225065   2.502   3.524   1.350  0.6021 -0.8758 -1.7299
 1192TIP3   OH225066   3.130   3.812   4.246 -0.5513 -0.3910 -0.1419
 1192TIP3    H125067   3.095   3.898   4.271  0.1810 -0.7457  2.3850
 1192TIP3    H225068   3.079   3.787   4.169 -0.0881  2.7182 -1.6199
 1193TIP3   OH225069   0.114   4.223   3.050  0.0341  0.0458 -0.4294
 1193TIP3    H125070   0.078   4.292   2.994  0.0097 -0.5748 -1.2037
 1193TIP3    H225071   0.081   4.142   3.012  3.8685 -0.7685 -2.5884
 1194TIP3   OH225072   3.904   6.614   4.613 -0.2838 -0.0786  0.2260
 1194TIP3    H125073   3.850   6.690   4.637  1.2839  1.3666 -0.6248
 1194TIP3    H225074   3.851   6.538   4.638 -1.7121  1.2826  1.5580
 1195TIP3   OH225075   6.704   2.248  16.673 -0.3411 -0.7476 -0.1039
 1195TIP3    H125076   6.786   2.220  16.634  0.0352 -2.3752  1.6640
 1195TIP3    H225077   6.729   2.293  16.754 -1.1280  1.3042 -0.9279
 1196TIP3   OH225078   3.736   2.829  11.655 -0.2363  0.5659  0.2882
 1196TIP3    H125079   3.662   2.776  11.624  1.2703 -1.4341 -0.0599
 1196TIP3    H225080   3.751   2.799  11.744  0.4975  0.5456  0.1644
 1197TIP3   OH225081   2.615   4.281  12.398 -0.3311 -0.4007 -0.4683
 1197TIP3    H125082   2.551   4.303  12.467 -0.0966 -2.2635  0.3925
 1197TIP3    H225083   2.698   4.318  12.430 -0.6252  0.6126 -0.8198
 1198TIP3   OH225084   1.739   0.430   1.406 -0.0271  0.2233 -0.2889
 1198TIP3    H125085   1.717   0.438   1.499  4.3377 -0.6300  1.0516
 1198TIP3    H225086   1.826   0.468   1.398 -0.5446  1.0689 -4.3273
 1199TIP3   OH225087   2.202   3.417  12.767 -0.3960 -0.4098 -0.0237
 1199TIP3    H125088   2.224   3.453  12.853  0.0051 -1.6610  0.4148
 1199TIP3    H225089   2.285   3.388  12.731 -0.7834 -1.4665 -0.0917
 1200TIP3   OH225090   0.674   5.066  16.324  0.1358 -0.0656  0.2192
 1200TIP3    H125091   0.690   5.154  16.357  1.7460  0.4330 -1.7027
 1200TIP3    H225092   0.687   5.009  16.400  0.5489  1.2323  1.1510
 1201TIP3   OH225093   4.152   3.768  11.815  0.1567  0.5916 -0.1473
 1201TIP3    H125094   4.208   3.749  11.740  0.2009  0.5339 -0.1006
 1201TIP3    H225095   4.140   3.683  11.858 -1.6011  0.2374 -1.2657
 1202TIP3   OH225096   0.409   5.136   4.007  0.3455 -0.1908 -0.1838
 1202TIP3    H125097   0.401   5.057   3.952 -2.8828 -0.0025 -0.1707
 1202TIP3    H225098   0.349   5.198   3.968  0.2215  1.0420  1.8396
 1203TIP3   OH225099   6.796   6.455   5.123  0.0316  0.0048  0.1616
 1203TIP3    H125100   6.886   6.482   5.139 -0.1993 -0.1550  1.9739
 1203TIP3    H225101   6.747   6.537   5.119 -0.1624  0.0517  2.2803
 1204TIP3   OH225102   4.936   1.838  15.021  0.7992 -0.2174  0.0203
 1204TIP3    H125103   4.963   1.927  15.044 -0.8150  0.2846  0.1286
 1204TIP3    H225104   4.981   1.819  14.939  1.6215  0.4721  0.3000
 1205TIP3   OH225105   0.293   3.539   0.577  0.6609 -0.2300 -0.2722
 1205TIP3    H125106   0.323   3.558   0.666  1.4582  0.1094 -0.6038
 1205TIP3    H225107   0.220   3.601   0.562 -0.2658 -1.0919  0.5532
 1206TIP3   OH225108   2.422   4.985  16.336 -0.3071  0.3598 -0.5475
 1206TIP3    H125109   2.436   5.078  16.356 -2.0942  0.7135 -0.8078
 1206TIP3    H225110   2.377   4.950  16.413 -0.0393 -0.1924 -0.6357
 1207TIP3   OH225111   6.450   1.020   3.694 -0.0719  0.1144 -0.1510
 1207TIP3    H125112   6.382   1.086   3.680 -0.0816  0.2990  0.7174
 1207TIP3    H225113   6.508   1.059   3.759 -0.4013 -0.9656  0.8353
 1208TIP3   OH225114   5.727   5.770  11.383 -0.4952 -0.5047  0.4247
 1208TIP3    H125115   5.638   5.804  11.382  0.0010  0.8786  0.7818
 1208TIP3    H225116   5.757   5.776  11.293  0.2345  1.9214  0.7526
 1209TIP3   OH225117   4.123   5.478   6.613  0.1378  0.1025 -0.1020
 1209TIP3    H125118   4.114   5.556   6.559 -1.1588  2.5770  3.2954
 1209TIP3    H225119   4.211   5.483   6.649 -1.0414  2.2616  2.9175
 1210TIP3   OH225120   2.713   5.808   3.751 -0.2375 -0.6114 -0.9668
 1210TIP3    H125121   2.691   5.828   3.660 -0.8431  0.1542 -0.6574
 1210TIP3    H225122   2.701   5.713   3.758 -1.5887 -0.4794 -1.3139
 1211TIP3   OH225123   6.090   6.013   6.381 -0.6117  0.5597  0.4780
 1211TIP3    H125124   6.179   6.043   6.395 -0.8268  0.2601  3.0082
 1211TIP3    H225125   6.097   5.918   6.371 -0.7345  0.3066  2.4271
 1212TIP3   OH225126   5.030   5.074  15.486  0.2104 -0.0786 -0.4925
 1212TIP3    H125127   5.074   5.158  15.491 -0.7194  0.3486  2.7543
 1212TIP3    H225128   5.090   5.012  15.528 -0.8373 -0.1310  1.0080
 1213TIP3   OH225129   6.050   3.277   4.082  0.2390 -0.3246 -0.4560
 1213TIP3    H125130   6.130   3.226   4.085  0.6018  0.2550 -0.0016
 1213TIP3    H225131   5.980   3.212   4.080  0.6634 -0.8579  0.7851
 1214TIP3   OH225132   3.468   5.244  14.422 -0.6225  0.4716 -0.0516
 1214TIP3    H125133   3.423   5.269  14.341  0.7711  0.0529 -0.9994
 1214TIP3    H225134   3.472   5.324  14.473  0.4116  1.3177 -1.3828
 1215TIP3   OH225135   1.527   5.770   4.874  0.2391 -0.0910  0.8318
 1215TIP3    H125136   1.555   5.680   4.888 -1.7842 -1.4034 -2.4779
 1215TIP3    H225137   1.468   5.789   4.947  0.9025 -1.2926  1.7212
 1216TIP3   OH225138   2.665   1.934   3.065 -0.2044 -0.5862 -0.1004
 1216TIP3    H125139   2.653   2.023   3.032  0.4382 -0.3147  0.3670
 1216TIP3    H225140   2.579   1.893   3.056 -0.5319  0.1163 -0.2269
 1217TIP3   OH225141   6.020   1.468   2.397  0.1354  0.0895  0.0036
 1217TIP3    H125142   6.012   1.429   2.310  0.9762  0.9494 -0.4844
 1217TIP3    H225143   6.051   1.557   2.380 -0.1209  0.4132  1.1660
 1218TIP3   OH225144   2.311   4.514   0.927  0.2247  0.1982  0.1420
 1218TIP3    H125145   2.336   4.440   0.982  2.1451  2.3423  2.4135
 1218TIP3    H225146   2.352   4.495   0.842 -1.0973 -2.2451 -0.0280
 1219TIP3   OH225147   5.104   1.303  17.031 -0.4361  0.3652  0.3301
 1219TIP3    H125148   5.098   1.259  17.116  0.9121 -1.6965 -0.5739
 1219TIP3    H225149   5.051   1.250  16.972  0.2258  0.6394 -0.5354
 1220TIP3   OH225150   5.572   2.593   3.355  0.7853 -0.0056  0.0516
 1220TIP3    H125151   5.555   2.505   3.387  0.4681  0.1119  0.2109
 1220TIP3    H225152   5.652   2.585   3.304 -0.2424 -0.7655 -1.5160
 1221TIP3   OH225153   2.626   0.692   1.931 -0.1770 -0.4465 -0.1276
 1221TIP3    H125154   2.619   0.787   1.940  0.5598 -0.5114  1.4777
 1221TIP3    H225155   2.692   0.679   1.863  0.9400  0.2212  0.7891
 1222TIP3   OH225156   4.600   3.858  11.957  0.5547  0.5331 -0.1444
 1222TIP3    H125157   4.571   3.766  11.955  1.3871  0.2309  0.9138
 1222TIP3    H225158   4.677   3.860  11.901 -0.1922  0.8779 -1.1968
 1223TIP3   OH225159   5.995   6.096  14.929  0.3955  0.3180  0.0189
 1223TIP3    H125160   6.061   6.033  14.958 -1.8875 -1.3236  2.0813
 1223TIP3    H225161   6.032   6.181  14.951  2.4028 -0.4241 -0.2350
 1224TIP3   OH225162   0.474   4.043   1.847  0.6268 -0.3252 -0.0479
 1224TIP3    H125163   0.398   4.007   1.803  0.6395  0.1575 -0.4721
 1224TIP3    H225164   0.544   3.980   1.831  0.0311 -1.4368  1.4265
 1225TIP3   OH225165   2.579   2.389   1.782  0.1109  0.0230 -0.0182
 1225TIP3    H125166   2.619   2.388   1.869 -0.9595  0.5824  0.4990
 1225TIP3    H225167   2.566   2.297   1.761  0.6803 -0.1287  0.2702
 1226TIP3   OH225168   3.335   1.928   6.426  0.2404 -0.4261 -0.0076
 1226TIP3    H125169   3.324   1.962   6.338 -0.2149  0.0284  0.2198
 1226TIP3    H225170   3.425   1.895   6.428  1.0506  1.6452  0.0322
 1227TIP3   OH225171   2.232   0.279   5.177  0.6609  0.2783 -0.4711
 1227TIP3    H125172   2.284   0.359   5.177  0.5956  0.3215 -0.3606
 1227TIP3    H225173   2.296   0.208   5.168  0.7578  0.3191 -0.1232
 1228TIP3   OH225174   3.957   6.737   5.929  0.8253 -0.7615  0.1690
 1228TIP3    H125175   4.012   6.800   5.975  1.7073 -1.7233  0.4677
 1228TIP3    H225176   3.949   6.772   5.840  2.2411 -0.7941  0.0178
 1229TIP3   OH225177   1.532   1.580  16.348  0.1035 -0.0391 -0.3744
 1229TIP3    H125178   1.448   1.624  16.335 -0.5025  0.1083  3.1196
 1229TIP3    H225179   1.565   1.566  16.259 -2.1599  2.6076 -1.8129
 1230TIP3   OH225180   6.778   4.695   1.121  0.3580 -0.3522 -0.3009
 1230TIP3    H125181   6.849   4.661   1.068  0.4725  0.4316 -0.6610
 1230TIP3    H225182   6.819   4.717   1.205  0.1784 -1.5778  0.1272
 1231TIP3   OH225183   1.930   0.475  11.336  0.5094 -0.1624  0.5242
 1231TIP3    H125184   2.022   0.465  11.360  1.5607  0.5121 -2.6721
 1231TIP3    H225185   1.911   0.567  11.350  0.4056 -0.2413  0.9076
 1232TIP3   OH225186   1.757   6.062  10.581  0.0218  0.0865 -0.3679
 1232TIP3    H125187   1.738   6.154  10.560  1.0977  0.2498 -0.6735
 1232TIP3    H225188   1.766   6.020  10.496  0.4250 -0.1062 -0.2333
 1233TIP3   OH225189   2.199   0.897  10.826 -0.2178 -0.1271 -0.2708
 1233TIP3    H125190   2.233   0.812  10.800 -1.2374 -0.4275 -0.6724
 1233TIP3    H225191   2.275   0.955  10.823  1.1345 -1.5305  2.6634
 1234TIP3   OH225192   2.221   4.427  17.021 -0.2479 -0.5844  0.3078
 1234TIP3    H125193   2.170   4.426  16.940 -0.3124  0.2315  0.3308
 1234TIP3    H225194   2.287   4.359  17.008 -0.3547 -0.5659 -0.3686
 1235TIP3   OH225195   4.924   2.477  14.697 -0.9785 -0.5746  0.3707
 1235TIP3    H125196   5.011   2.444  14.719  0.1593  0.7472 -1.8716
 1235TIP3    H225197   4.877   2.479  14.781  0.3027 -3.5380  1.3060
 1236TIP3   OH225198   1.998   5.148  16.914 -0.0818 -0.0441 -0.5443
 1236TIP3    H125199   1.939   5.223  16.906 -0.1201  0.2304  1.6314
 1236TIP3    H225200   1.959   5.081  16.859 -0.6427  1.1725 -1.6858
 1237TIP3   OH225201   4.375   6.610  10.694 -0.6037 -0.2610  0.4410
 1237TIP3    H125202   4.446   6.564  10.650 -0.2983  0.6961 -0.0968
 1237TIP3    H225203   4.341   6.546  10.757 -0.5177 -1.3825 -0.6000
 1238TIP3   OH225204   2.429   4.625  15.639 -0.4433 -0.1396 -0.7010
 1238TIP3    H125205   2.364   4.554  15.643 -0.0625 -0.4591  0.2427
 1238TIP3    H225206   2.429   4.662  15.728 -0.5682  0.9902 -1.1590
 1239TIP3   OH225207   4.815   1.867   4.400 -0.2408  0.3325 -0.1241
 1239TIP3    H125208   4.873   1.896   4.329  0.4591  1.0801  0.7345
 1239TIP3    H225209   4.814   1.940   4.462 -4.0114  1.4023 -1.1715
 1240TIP3   OH225210   0.594   1.258  14.109  0.2512  0.0439  0.5497
 1240TIP3    H125211   0.603   1.220  14.021 -0.3559 -1.0739  0.9403
 1240TIP3    H225212   0.645   1.338  14.107  1.4302 -0.7054 -0.4020
 1241TIP3   OH225213   0.034   1.054  15.648  0.0878 -0.0583  0.6627
 1241TIP3    H125214   0.050   1.034  15.555  1.2941 -0.2971  0.9034
 1241TIP3    H225215   0.068   0.978  15.695 -0.5834  0.0324  1.3041
 1242TIP3   OH225216   0.763   2.655  14.547 -0.0536 -0.5304  0.6497
 1242TIP3    H125217   0.685   2.685  14.593  1.0583  0.1796  2.1940
 1242TIP3    H225218   0.757   2.694  14.460 -0.8615  0.4719  1.1342
 1243TIP3   OH225219   2.442   2.122   5.487  0.2615 -0.5909  0.0959
 1243TIP3    H125220   2.524   2.165   5.464  1.2607 -1.5961  1.5586
 1243TIP3    H225221   2.401   2.180   5.551 -1.2558  0.9425 -2.1549
 1244TIP3   OH225222   4.958   0.946  15.045 -0.1528 -0.1298  0.6704
 1244TIP3    H125223   5.006   1.029  15.051 -0.1209 -0.1815  1.1593
 1244TIP3    H225224   4.982   0.911  14.959 -0.1692  0.3676  0.4563
 1245TIP3   OH225225   5.830   5.936  11.604 -0.2437  0.2232  0.3532
 1245TIP3    H125226   5.745   5.956  11.643 -0.3204 -2.4192  1.7316
 1245TIP3    H225227   5.811   5.878  11.531  0.3241  0.3514  0.0940
 1246TIP3   OH225228   3.758   4.547  14.531  0.0342 -0.0974 -0.8865
 1246TIP3    H125229   3.671   4.564  14.566 -0.2697  0.2498 -1.8000
 1246TIP3    H225230   3.749   4.464  14.483 -0.6394  1.4727 -3.7048
 1247TIP3   OH225231   2.841   2.125  15.209 -0.1192  0.3269  0.1321
 1247TIP3    H125232   2.882   2.069  15.275  1.6720  2.5420  1.0228
 1247TIP3    H225233   2.901   2.121  15.134  0.2015  1.2860  0.3290
 1248TIP3   OH225234   2.417   6.178   2.177  0.1736 -0.0095  0.1359
 1248TIP3    H125235   2.483   6.123   2.134 -0.1124 -0.8864  0.7951
 1248TIP3    H225236   2.419   6.261   2.129  1.8556  0.0318  0.2227
 1249TIP3   OH225237   5.909   5.004  11.786 -0.0353 -0.1329  0.2075
 1249TIP3    H125238   5.871   5.013  11.698  0.6923  0.6602 -0.0336
 1249TIP3    H225239   5.843   5.042  11.844 -0.0430  0.3516 -0.1129
 1250TIP3   OH225240   3.187   1.052   5.888 -1.0590 -0.0163 -0.2146
 1250TIP3    H125241   3.206   0.959   5.898 -2.8077 -0.3666  0.3215
 1250TIP3    H225242   3.149   1.078   5.972 -1.1816  1.0210 -0.5740
 1251TIP3   OH225243   1.627   2.378  11.690 -0.2870 -0.1059  0.1121
 1251TIP3    H125244   1.657   2.297  11.732  0.1400 -1.0220 -1.8561
 1251TIP3    H225245   1.664   2.374  11.602 -1.3144  1.6454 -0.4334
 1252TIP3   OH225246   5.729   0.253  16.722  0.1891  0.0535  0.4262
 1252TIP3    H125247   5.773   0.337  16.705 -0.2211 -0.2692 -2.6799
 1252TIP3    H225248   5.797   0.187  16.709 -0.6353 -0.3301 -2.4985
 1253TIP3   OH225249   0.461   1.394   0.795  0.1361  0.0500  0.3200
 1253TIP3    H125250   0.382   1.340   0.787  1.3050 -1.4557 -1.7496
 1253TIP3    H225251   0.428   1.484   0.792 -1.4607 -0.5206 -1.7375
 1254TIP3   OH225252   0.414   2.920  14.455 -0.0356 -0.3018  0.3886
 1254TIP3    H125253   0.336   2.865  14.447 -0.3820  0.2446 -0.0981
 1254TIP3    H225254   0.401   2.989  14.389 -0.1186  0.9528  1.6720
 1255TIP3   OH225255   2.634   5.989   4.431  0.0320 -0.3705 -0.1988
 1255TIP3    H125256   2.646   6.080   4.403  0.7468 -0.5571 -0.5151
 1255TIP3    H225257   2.586   5.948   4.359  1.1608 -0.6496 -0.8080
 1256TIP3   OH225258   3.460   6.672   5.287  0.0485  0.1114  0.2745
 1256TIP3    H125259   3.548   6.674   5.325 -0.2818 -0.5891  1.0988
 1256TIP3    H225260   3.455   6.587   5.243 -0.1701  0.2107  0.1075
 1257TIP3   OH225261   3.280   4.918  10.364 -0.3431  0.0784 -0.5755
 1257TIP3    H125262   3.230   4.946  10.287 -0.4756  1.1128 -0.1346
 1257TIP3    H225263   3.240   4.965  10.437  0.6345  0.1637 -0.0706
 1258TIP3   OH225264   6.118   5.112  14.601 -0.2963  0.1040 -0.5569
 1258TIP3    H125265   6.052   5.050  14.632  0.2393 -1.5418 -2.4572
 1258TIP3    H225266   6.075   5.159  14.530 -0.2205  0.8885 -0.0962
 1259TIP3   OH225267   2.232   1.352  15.238 -0.7265 -0.0409 -0.4139
 1259TIP3    H125268   2.150   1.369  15.283 -0.1454 -0.4156  0.8258
 1259TIP3    H225269   2.268   1.275  15.281 -1.1076 -1.7148 -2.8721
 1260TIP3   OH225270   2.149   5.970  16.709  0.2054 -0.1625 -0.5833
 1260TIP3    H125271   2.207   6.036  16.671 -1.1968  1.2804 -0.2978
 1260TIP3    H225272   2.079   5.959  16.645  0.0188 -0.8279 -0.2787
 1261TIP3   OH225273   6.512   5.052   4.811  0.1929  0.2105 -1.2555
 1261TIP3    H125274   6.445   5.023   4.873  0.7228 -0.4732 -0.9896
 1261TIP3    H225275   6.463   5.084   4.735 -0.4231 -1.8386 -1.7687
 1262TIP3   OH225276   2.388   3.528   2.961 -0.0120  0.6706 -0.2258
 1262TIP3    H125277   2.444   3.491   3.030 -0.1473  0.1916 -0.3695
 1262TIP3    H225278   2.302   3.488   2.977 -0.2605  1.2336 -0.1405
 1263TIP3   OH225279   0.750   2.282   3.803  0.1364  0.3460 -0.2935
 1263TIP3    H125280   0.682   2.341   3.770  0.7469  0.8452 -0.6930
 1263TIP3    H225281   0.704   2.201   3.823 -0.5422  0.6166 -0.7247
 1264TIP3   OH225282   0.530   1.356   1.797 -0.4430  0.5181 -0.3410
 1264TIP3    H125283   0.522   1.339   1.891 -0.1072 -0.5482 -0.4974
 1264TIP3    H225284   0.614   1.318   1.772 -1.4556 -1.1263 -1.4653
 1265TIP3   OH225285   0.029   0.711  14.859 -0.5485  0.1011  0.0728
 1265TIP3    H125286  -0.051   0.658  14.869 -1.1392  0.6745 -1.4090
 1265TIP3    H225287   0.100   0.649  14.871 -1.2245 -0.8792 -0.8496
 1266TIP3   OH225288   0.007   2.373  15.439 -0.1219  0.2707  0.0487
 1266TIP3    H125289   0.095   2.364  15.474 -0.6108  1.4796  1.7211
 1266TIP3    H225290  -0.038   2.430  15.501 -2.0923 -0.3222 -0.7467
 1267TIP3   OH225291   3.167   0.388   2.478 -0.1678 -0.3081 -0.3096
 1267TIP3    H125292   3.217   0.461   2.443  2.2615 -1.6057  0.2016
 1267TIP3    H225293   3.156   0.408   2.571 -0.0163 -0.3061 -0.2915
 1268TIP3   OH225294   4.719   3.692   3.646  0.2448  0.6382 -0.1059
 1268TIP3    H125295   4.740   3.688   3.740 -1.9568 -0.7008  0.3974
 1268TIP3    H225296   4.689   3.781   3.631  0.8418  0.9293  0.4067
 1269TIP3   OH225297   0.584   2.467   1.302 -0.6953  0.1556  0.3489
 1269TIP3    H125298   0.553   2.422   1.223 -1.4924 -0.4985  1.0203
 1269TIP3    H225299   0.619   2.397   1.357 -2.7485  0.1600  1.7882
 1270TIP3   OH225300   6.275   2.338   1.117  0.0095  0.3317 -0.0769
 1270TIP3    H125301   6.281   2.415   1.061  0.3751 -0.0482 -0.5626
 1270TIP3    H225302   6.256   2.266   1.057 -1.8432  0.2489  0.5286
 1271TIP3   OH225303   4.455   0.794   1.742 -0.2658 -0.0981  0.5906
 1271TIP3    H125304   4.418   0.770   1.827  0.1145 -0.7040  0.5971
 1271TIP3    H225305   4.446   0.714   1.689 -0.9679  0.4240 -0.1094
 1272TIP3   OH225306   5.892   0.526  15.916  0.1055 -0.0982 -0.4499
 1272TIP3    H125307   5.867   0.434  15.905 -0.6958 -0.0309  0.6022
 1272TIP3    H225308   5.893   0.561  15.827  2.1085 -1.5142 -1.0587
 1273TIP3   OH225309   0.790   2.778  15.556 -0.1803  0.0671  0.5888
 1273TIP3    H125310   0.755   2.704  15.606 -0.7894  0.0146  0.0906
 1273TIP3    H225311   0.819   2.840  15.623 -0.9845 -0.0069  1.0181
 1274TIP3   OH225312   6.645   0.269   2.443  0.4411 -0.2402 -0.0688
 1274TIP3    H125313   6.674   0.301   2.358 -1.3270  0.8045 -0.3205
 1274TIP3    H225314   6.711   0.204   2.468  0.4723 -1.2898 -2.6585
 1275TIP3   OH225315   3.937   1.298  12.038  0.2443 -0.1085 -0.5547
 1275TIP3    H125316   3.904   1.388  12.039 -1.2349 -0.5556 -2.5341
 1275TIP3    H225317   3.883   1.253  12.103  0.6364  0.2984  0.0674
 1276TIP3   OH225318   4.017   6.566  10.857 -0.4342 -0.5189  0.0008
 1276TIP3    H125319   4.078   6.494  10.875 -0.9021 -0.6843  0.9966
 1276TIP3    H225320   3.940   6.545  10.910 -0.7759  0.4488 -0.0994
 1277TIP3   OH225321   5.297   3.567  12.063  0.0021  0.0215 -0.2066
 1277TIP3    H125322   5.281   3.562  12.157  0.8542 -0.7123 -0.0900
 1277TIP3    H225323   5.390   3.589  12.056  0.2885 -1.3365 -0.8805
 1278TIP3   OH225324   0.919   2.764   1.298  0.3148 -0.0681 -0.1667
 1278TIP3    H125325   0.974   2.815   1.358  0.0882 -0.1992  0.1569
 1278TIP3    H225326   0.832   2.802   1.307  0.5908  1.0367 -1.6906
 1279TIP3   OH225327   6.070   2.122   3.471  0.3676 -0.1643 -0.2158
 1279TIP3    H125328   6.102   2.106   3.560 -0.1210  0.4114  0.0711
 1279TIP3    H225329   6.089   2.215   3.455  0.5375 -0.2840 -0.7548
 1280TIP3   OH225330   5.309   6.085  11.602 -0.3348 -0.6566 -0.0499
 1280TIP3    H125331   5.393   6.120  11.572 -0.5106  0.3285  0.5515
 1280TIP3    H225332   5.308   6.101  11.696 -1.8277  0.8110 -0.2505
 1281TIP3   OH225333   6.571   6.631   1.795 -0.4004  0.1346  0.3989
 1281TIP3    H125334   6.529   6.587   1.721 -0.9545  1.5087 -0.1298
 1281TIP3    H225335   6.499   6.675   1.840 -0.0822 -0.7521  1.8315
 1282TIP3   OH225336   5.406   3.513   2.487  0.5056 -0.0698 -0.1140
 1282TIP3    H125337   5.416   3.608   2.483 -1.4199  0.1439 -1.3219
 1282TIP3    H225338   5.495   3.480   2.496  1.4713  1.7678 -1.9657
 1283TIP3   OH225339   0.889   1.808   6.043 -0.2833  0.1309  0.3070
 1283TIP3    H125340   0.948   1.796   6.117  0.1963 -0.4002 -0.1503
 1283TIP3    H225341   0.806   1.769   6.072  0.4455 -1.8496 -0.1136
 1284TIP3   OH225342   3.872   3.411   5.233 -0.0722  0.1117 -0.0586
 1284TIP3    H125343   3.838   3.391   5.320 -1.8988  0.1068 -0.7297
 1284TIP3    H225344   3.879   3.326   5.190  1.3289  0.0602  0.2215
 1285TIP3   OH225345   2.859   6.235   1.269  0.1106 -0.0772 -0.3121
 1285TIP3    H125346   2.765   6.248   1.255  0.4847  0.2810 -2.7952
 1285TIP3    H225347   2.897   6.232   1.182  2.5524  0.6094  0.6419
 1286TIP3   OH225348   3.733   4.489   4.031 -0.3448  0.4948 -0.2781
 1286TIP3    H125349   3.774   4.573   4.053  1.2060 -0.7354  1.8859
 1286TIP3    H225350   3.749   4.433   4.107 -1.6089 -1.6974 -1.5065
 1287TIP3   OH225351   5.960   6.460  12.434  0.5949 -0.0294  0.0458
 1287TIP3    H125352   5.927   6.515  12.363  0.5292  1.2538  1.0217
 1287TIP3    H225353   6.014   6.394  12.391 -0.2409  0.1224 -1.2617
 1288TIP3   OH225354   1.430   1.573   5.674  0.1735 -0.8553 -0.5637
 1288TIP3    H125355   1.506   1.514   5.671  1.2298  0.4458 -0.5264
 1288TIP3    H225356   1.446   1.635   5.603 -0.2265  0.1707  0.2234
 1289TIP3   OH225357   3.893   2.720  15.183  0.2364  0.3807  0.5396
 1289TIP3    H125358   3.870   2.747  15.272  1.0498 -0.9838  1.1961
 1289TIP3    H225359   3.978   2.760  15.166  0.9211 -0.7952  1.0871
 1290TIP3   OH225360   0.247   2.623   3.952 -0.4068  0.5655  0.1852
 1290TIP3    H125361   0.186   2.558   3.916 -1.4431  1.1383  0.8281
 1290TIP3    H225362   0.304   2.646   3.879  0.2296 -1.3023  0.0265
 1291TIP3   OH225363   4.812   3.316  16.643 -0.3784 -0.1510  0.2491
 1291TIP3    H125364   4.842   3.244  16.587 -2.1198 -0.5152 -0.2773
 1291TIP3    H225365   4.827   3.285  16.732 -0.8645 -1.0903  0.0253
 1292TIP3   OH225366   1.698   0.902  15.792  0.0892 -0.0207  0.4943
 1292TIP3    H125367   1.613   0.875  15.758  0.6140 -1.9489  0.5937
 1292TIP3    H225368   1.678   0.942  15.877 -0.7890  0.3709  0.1096
 1293TIP3   OH225369   3.060   2.362  10.613  0.2609  0.0082  0.6268
 1293TIP3    H125370   3.127   2.375  10.680 -0.6514  0.7258  1.4344
 1293TIP3    H225371   3.016   2.447  10.606 -1.2572 -0.7087  0.9124
 1294TIP3   OH225372   0.707   5.140   4.758 -0.2078 -0.2338  0.4054
 1294TIP3    H125373   0.694   5.060   4.809 -0.1596 -0.3295  0.2666
 1294TIP3    H225374   0.637   5.139   4.693  0.2232 -0.5240 -0.0561
 1295TIP3   OH225375   5.324   6.290   6.106 -0.2163  0.0904 -0.1765
 1295TIP3    H125376   5.245   6.342   6.095 -1.2070 -1.5651 -1.2397
 1295TIP3    H225377   5.296   6.200   6.090  1.7132 -0.6323  0.2776
 1296TIP3   OH225378   3.086   5.928  12.384  0.1407 -0.1834  0.1722
 1296TIP3    H125379   3.069   5.914  12.291  1.1547 -1.1184  0.1042
 1296TIP3    H225380   3.065   5.844  12.425  0.3205  0.0249  0.6972
 1297TIP3   OH225381   1.357   2.505   5.495  0.1960  0.3637  0.6030
 1297TIP3    H125382   1.344   2.411   5.507  2.3773 -0.2163 -0.8861
 1297TIP3    H225383   1.381   2.537   5.582  1.9394 -0.9980  0.6849
 1298TIP3   OH225384   0.303   3.902  13.404  0.0363 -0.0855  0.6114
 1298TIP3    H125385   0.358   3.855  13.342 -0.0720  0.1858  0.3093
 1298TIP3    H225386   0.358   3.914  13.481 -0.4406 -2.1446  1.3498
 1299TIP3   OH225387   0.522   0.280  14.713  0.2015 -0.0968 -0.4535
 1299TIP3    H125388   0.497   0.324  14.632  0.5976 -1.8187 -1.5510
 1299TIP3    H225389   0.466   0.321  14.780 -0.7768  0.7438 -1.7249
 1300TIP3   OH225390   2.589   3.335   4.140 -0.3976  0.0995 -0.1472
 1300TIP3    H125391   2.555   3.424   4.145 -0.5075  0.0168  0.8331
 1300TIP3    H225392   2.536   3.285   4.203  0.8114 -0.2626  0.6276
 1301TIP3   OH225393   4.482   6.661   4.658 -0.3345 -0.2049 -0.2423
 1301TIP3    H125394   4.428   6.722   4.607 -0.1349  1.3423  1.2807
 1301TIP3    H225395   4.421   6.620   4.719  0.2518  3.4141  3.2777
 1302TIP3   OH225396   1.847   4.095  14.136 -0.6777  0.1505  0.3222
 1302TIP3    H125397   1.791   4.042  14.193  1.1737 -0.8126  1.3607
 1302TIP3    H225398   1.836   4.056  14.049 -0.1769 -1.3148  0.8744
 1303TIP3   OH225399   6.000   3.737  13.595 -0.5010  0.3852 -0.9607
 1303TIP3    H125400   6.085   3.734  13.640  0.0349  1.1802 -1.8689
 1303TIP3    H225401   5.941   3.777  13.658  0.0596  0.7958 -0.6822
 1304TIP3   OH225402   1.948   6.111   0.457 -0.1975 -0.3608  0.0294
 1304TIP3    H125403   1.996   6.046   0.509 -1.4455 -3.4932 -2.4234
 1304TIP3    H225404   1.996   6.115   0.374 -1.6107 -0.0957 -0.8017
 1305TIP3   OH225405   2.274   5.172   2.809 -0.5466  0.0974  0.1899
 1305TIP3    H125406   2.199   5.229   2.820 -1.0901 -0.5890  0.1337
 1305TIP3    H225407   2.349   5.231   2.806 -1.2467  0.9863 -1.8399
 1306TIP3   OH225408   4.921   3.655   4.313  0.3080  0.1061  0.0729
 1306TIP3    H125409   4.881   3.577   4.275 -0.0146  1.2347 -2.0281
 1306TIP3    H225410   4.854   3.723   4.304  0.9384  0.8741  0.9700
 1307TIP3   OH225411   1.029   2.774  13.834 -0.1187 -0.1802  0.0249
 1307TIP3    H125412   1.042   2.726  13.752 -0.9588  1.3168 -1.0244
 1307TIP3    H225413   1.115   2.773  13.876  0.7219  0.2871 -1.5962
 1308TIP3   OH225414   4.196   6.087  13.814 -0.1738  0.1567  0.0646
 1308TIP3    H125415   4.148   6.153  13.764  0.3860  1.3537  1.0233
 1308TIP3    H225416   4.251   6.043  13.749  1.1721  2.2411 -0.3461
 1309TIP3   OH225417   6.133   3.223   1.028  0.0260  0.2344  0.0037
 1309TIP3    H125418   6.209   3.264   1.070  0.2957  0.2062 -0.4426
 1309TIP3    H225419   6.087   3.297   0.988 -0.5494  0.3342  0.8306
 1310TIP3   OH225420   3.594   5.558   3.610  0.6584  0.6761  0.2225
 1310TIP3    H125421   3.544   5.498   3.666  0.8655 -1.2217 -1.5260
 1310TIP3    H225422   3.531   5.625   3.584 -0.1310  0.0814  0.5772
 1311TIP3   OH225423   2.349   2.525  13.255  0.4015 -1.1081  0.6807
 1311TIP3    H125424   2.386   2.612  13.270  0.8322 -1.1957  0.1575
 1311TIP3    H225425   2.402   2.467  13.309  0.8265 -1.1892  0.1837
 1312TIP3   OH225426   4.278   4.186  14.334 -0.0131  0.7927  0.1035
 1312TIP3    H125427   4.189   4.201  14.367  0.2722  0.7848  0.8961
 1312TIP3    H225428   4.288   4.091  14.337 -0.4161  0.6983 -1.1750
 1313TIP3   OH225429   2.228   4.792   3.345 -0.2900 -0.3135  0.0991
 1313TIP3    H125430   2.274   4.714   3.378  0.8430  0.4360  0.3485
 1313TIP3    H225431   2.298   4.855   3.328 -1.0884  0.2694 -1.1850
 1314TIP3   OH225432   1.683   2.930  16.619 -0.3198 -0.3303  0.1375
 1314TIP3    H125433   1.743   2.985  16.570  0.0868 -2.0819 -1.4185
 1314TIP3    H225434   1.731   2.849  16.635 -1.2225 -0.6367  1.5560
 1315TIP3   OH225435   5.218   6.657  13.559  0.1100  0.7990 -0.6705
 1315TIP3    H125436   5.311   6.635  13.565 -0.1790 -0.3487 -0.0670
 1315TIP3    H225437   5.210   6.738  13.611  0.4209 -0.2837  1.1495
 1316TIP3   OH225438   5.887   1.271  16.459 -0.3672  0.2626  0.7067
 1316TIP3    H125439   5.814   1.229  16.506 -0.5899  1.3695  1.3747
 1316TIP3    H225440   5.875   1.243  16.368 -0.7868 -0.7214  1.0441
 1317TIP3   OH225441   1.139   2.722   3.050 -0.2295  0.0424 -0.0395
 1317TIP3    H125442   1.091   2.760   3.123  0.6146  0.4426  0.3243
 1317TIP3    H225443   1.231   2.726   3.077 -0.0593 -1.6457 -0.2831
 1318TIP3   OH225444   1.382   6.311  14.823  0.5404 -0.2603 -0.7191
 1318TIP3    H125445   1.430   6.373  14.768  0.6672 -0.2843 -0.6338
 1318TIP3    H225446   1.390   6.227  14.777 -1.3604  0.1563 -1.9350
 1319TIP3   OH225447   0.139   4.794  13.335 -0.0279 -0.1311 -0.5487
 1319TIP3    H125448   0.131   4.882  13.372 -0.6008 -0.5903  0.4634
 1319TIP3    H225449   0.212   4.755  13.382 -2.1717 -1.5252  1.9082
 1320TIP3   OH225450   0.576   4.941   3.696 -0.0427  0.1359 -0.4378
 1320TIP3    H125451   0.588   4.987   3.779 -2.9634 -1.4998  1.0632
 1320TIP3    H225452   0.481   4.937   3.684  0.0870 -3.5042 -1.5180
 1321TIP3   OH225453   0.827   1.926  15.740  0.2126 -0.3097  0.0870
 1321TIP3    H125454   0.863   1.972  15.665  0.4479 -0.9404 -0.1969
 1321TIP3    H225455   0.771   1.858  15.701 -1.6293  0.8977  0.5052
 1322TIP3   OH225456   0.316   4.306   5.096 -0.8230 -0.1641 -0.4220
 1322TIP3    H125457   0.397   4.254   5.098 -0.3018  0.6353 -0.3667
 1322TIP3    H225458   0.277   4.294   5.183  1.0073  2.1574  0.8397
 1323TIP3   OH225459   6.114   1.506  14.524  0.1144 -0.8500  0.0214
 1323TIP3    H125460   6.040   1.469  14.571 -0.2689  1.0901  1.0740
 1323TIP3    H225461   6.085   1.593  14.498  1.2890 -0.8643 -1.4625
 1324TIP3   OH225462   0.580   4.773  12.308 -0.1086  0.1522  0.2465
 1324TIP3    H125463   0.629   4.843  12.351  0.0278  0.9481 -1.1310
 1324TIP3    H225464   0.641   4.737  12.244 -0.3201 -0.9631  0.6541
 1325TIP3   OH225465   3.804   3.582  17.083  0.4369  0.1105 -0.4295
 1325TIP3    H125466   3.853   3.572  17.165  1.0572  2.2336 -0.4730
 1325TIP3    H225467   3.858   3.539  17.017 -0.1631 -1.8005  0.2484
 1326TIP3   OH225468   5.114   2.393   4.238 -0.1825  0.3556  0.2706
 1326TIP3    H125469   5.108   2.348   4.154  0.6121  1.3611 -0.3445
 1326TIP3    H225470   5.027   2.430   4.251 -0.5857 -0.5916  0.3627
 1327TIP3   OH225471   3.308   5.797  14.641 -0.4929  0.0542 -0.3451
 1327TIP3    H125472   3.264   5.753  14.714 -2.0357  0.0576 -1.2319
 1327TIP3    H225473   3.300   5.890  14.661 -0.3802  0.0409 -0.2332
 1328TIP3   OH225474   3.458   4.961   0.653  0.5961  0.0906  0.3795
 1328TIP3    H125475   3.417   5.047   0.656  1.5281  0.5266  1.0340
 1328TIP3    H225476   3.448   4.933   0.562 -0.2302  0.6284  0.2995
 1329TIP3   OH225477   5.421   2.203   5.553  0.5293 -0.6918 -0.0549
 1329TIP3    H125478   5.328   2.185   5.540  0.8945 -1.4094 -1.9541
 1329TIP3    H225479   5.437   2.178   5.644 -0.8717 -1.7957 -0.0716
 1330TIP3   OH225480   5.604   6.156  15.028  0.2449 -0.2940 -0.0370
 1330TIP3    H125481   5.655   6.164  14.948  1.7265 -2.6832  0.5711
 1330TIP3    H225482   5.513   6.170  15.000  0.9832  2.4221 -1.4333
 1331TIP3   OH225483   1.138   1.996   2.337  0.5987  0.3149  0.3475
 1331TIP3    H125484   1.199   1.994   2.411  1.1015 -1.5797 -0.0648
 1331TIP3    H225485   1.194   1.992   2.259  0.0116  0.3846 -0.0895
 1332TIP3   OH225486   6.462   3.196  14.666  0.1327  0.3689  0.1758
 1332TIP3    H125487   6.439   3.267  14.606 -1.0575  0.0166  0.1902
 1332TIP3    H225488   6.385   3.140  14.667  0.7425 -0.4828  0.8178
 1333TIP3   OH225489   6.353   3.235  12.104 -0.1263  0.1657  0.5530
 1333TIP3    H125490   6.336   3.141  12.096  0.5203  0.1854 -1.5862
 1333TIP3    H225491   6.405   3.256  12.027 -0.4844  2.3436  0.8651
 1334TIP3   OH225492   4.576   2.565  13.629 -0.2346 -0.1965  0.2711
 1334TIP3    H125493   4.502   2.551  13.689 -0.4684  0.4944  0.1587
 1334TIP3    H225494   4.576   2.659  13.613  0.6674 -0.1919  0.2505
 1335TIP3   OH225495   4.351   5.230   4.821 -0.2027  0.5403 -0.7194
 1335TIP3    H125496   4.357   5.209   4.728 -0.7737  1.3721 -0.9637
 1335TIP3    H225497   4.259   5.254   4.834  0.1765  1.8791 -0.2788
 1336TIP3   OH225498   5.026   0.540   1.712  0.1962  0.4614  0.3090
 1336TIP3    H125499   4.956   0.506   1.657 -0.4117 -0.8474  1.8345
 1336TIP3    H225500   5.086   0.582   1.650 -1.0996  0.1942 -1.1986
 1337TIP3   OH225501   1.481   0.007   6.043 -0.4937 -0.4839  0.0532
 1337TIP3    H125502   1.429  -0.073   6.051 -0.0152 -0.7018  1.2792
 1337TIP3    H225503   1.536   0.008   6.122 -1.0402  1.4506  0.4692
 1338TIP3   OH225504   5.959   4.237  12.547 -0.0724 -0.5387 -0.1812
 1338TIP3    H125505   5.991   4.302  12.484  1.6731 -1.4846 -0.3388
 1338TIP3    H225506   5.935   4.161  12.493 -1.0786 -0.4209  0.0884
 1339TIP3   OH225507   4.994   3.333   2.001  0.4758  0.2986  0.4301
 1339TIP3    H125508   4.975   3.389   2.076 -1.7863  2.6733 -1.7160
 1339TIP3    H225509   5.071   3.373   1.960  1.8043 -1.0851  1.4877
 1340TIP3   OH225510   4.479   2.088  14.679  0.1903  0.1668 -0.2203
 1340TIP3    H125511   4.456   2.176  14.651  1.3427 -0.0360 -1.9595
 1340TIP3    H225512   4.405   2.059  14.733 -0.6021  1.8392 -0.3758
 1341TIP3   OH225513   5.727   5.418   4.330  0.2340  0.2369  0.5517
 1341TIP3    H125514   5.764   5.505   4.319  1.5439 -0.2779  0.7058
 1341TIP3    H225515   5.653   5.430   4.389  1.6894  0.9499  2.3073
 1342TIP3   OH225516   5.148   3.558   3.713 -0.4313 -0.0299  0.3139
 1342TIP3    H125517   5.177   3.513   3.792  0.8879 -1.7444 -1.0890
 1342TIP3    H225518   5.134   3.489   3.648 -3.5133  1.1080 -0.4318
 1343TIP3   OH225519   3.150   4.915  11.823 -1.1613 -0.4471  0.0518
 1343TIP3    H125520   3.182   4.947  11.738 -0.7500  0.5110  0.5547
 1343TIP3    H225521   3.059   4.943  11.827 -0.7301  0.9460  0.6047
 1344TIP3   OH225522   1.180   1.724   1.359 -0.6451  0.1802  0.2657
 1344TIP3    H125523   1.250   1.780   1.325  0.3716 -1.0582  0.2472
 1344TIP3    H225524   1.130   1.699   1.282 -0.9206  0.8163  0.2365
 1345TIP3   OH225525   6.435   6.167   4.725  0.6294 -0.0378 -0.1375
 1345TIP3    H125526   6.473   6.234   4.669  0.4937  1.2761  1.2498
 1345TIP3    H225527   6.503   6.150   4.791  0.1114 -0.1776  0.3703
 1346TIP3   OH225528   1.293   3.443  14.868  0.0577  0.4505 -0.4018
 1346TIP3    H125529   1.212   3.427  14.916 -0.5382  0.9373 -1.2169
 1346TIP3    H225530   1.351   3.371  14.893 -0.4334  0.3914  0.6057
 1347TIP3   OH225531   5.881   0.274   0.064 -0.8290 -0.2972 -0.0297
 1347TIP3    H125532   5.787   0.252   0.066 -0.7635 -0.7809 -1.3391
 1347TIP3    H225533   5.886   0.353   0.010 -0.4186 -0.7321 -0.6489
 1348TIP3   OH225534   2.400   3.267   4.328  0.2167  0.2494 -0.0696
 1348TIP3    H125535   2.406   3.198   4.394 -0.6646  0.7323  0.5397
 1348TIP3    H225536   2.307   3.268   4.304 -0.4290  3.0935  2.0372
 1349TIP3   OH225537   2.513   4.373  13.118  0.1219  0.3106  0.1299
 1349TIP3    H125538   2.539   4.340  13.032 -0.8010  0.6259 -0.2923
 1349TIP3    H225539   2.463   4.301  13.156 -1.2916  0.9109 -0.5020
 1350TIP3   OH225540   5.836   2.916   3.414 -0.0316 -0.6011 -0.0025
 1350TIP3    H125541   5.799   2.905   3.501 -0.4401 -0.6443 -0.1800
 1350TIP3    H225542   5.889   2.995   3.420  3.5442 -2.8637  1.4986
 1351TIP3   OH225543   5.628   6.605   3.930  0.1970 -0.1685  0.1136
 1351TIP3    H125544   5.653   6.632   4.019 -1.1473 -2.7648  1.4107
 1351TIP3    H225545   5.539   6.638   3.919 -0.7321 -2.1741  0.9674
 1352TIP3   OH225546   4.174   5.165  16.325 -0.2170 -0.4543  0.1612
 1352TIP3    H125547   4.142   5.109  16.255 -0.6798  0.5016 -0.4110
 1352TIP3    H225548   4.120   5.244  16.320 -0.7480 -0.6301  2.0357
 1353TIP3   OH225549   2.151   2.247   3.234 -0.0282  0.5276 -1.0065
 1353TIP3    H125550   2.182   2.337   3.243  0.7429  0.2209 -0.5030
 1353TIP3    H225551   2.105   2.229   3.317 -1.1269  0.8033 -1.5361
 1354TIP3   OH225552   3.722   3.384   1.397 -0.0484 -0.0889 -0.2687
 1354TIP3    H125553   3.679   3.416   1.476  0.9946  0.4710  0.0865
 1354TIP3    H225554   3.672   3.306   1.372 -0.8119  0.1346  0.5405
 1355TIP3   OH225555   5.683   5.911   2.586 -0.0094  0.1748 -0.2602
 1355TIP3    H125556   5.682   5.850   2.660  0.3333  1.3477  0.7535
 1355TIP3    H225557   5.744   5.870   2.523  1.2126  0.0550  0.9379
 1356TIP3   OH225558   1.692   5.523  11.076  0.1855  0.1749 -0.3895
 1356TIP3    H125559   1.785   5.506  11.092 -0.5438 -1.8682  2.5762
 1356TIP3    H225560   1.675   5.485  10.990  1.3393 -3.4825  0.7885
 1357TIP3   OH225561   0.790   6.218   0.316  0.1373 -0.2389  0.3517
 1357TIP3    H125562   0.782   6.197   0.409 -1.2615 -1.4223 -0.0047
 1357TIP3    H225563   0.787   6.133   0.272 -0.1732  0.3706 -0.8300
 1358TIP3   OH225564   5.659   4.357  12.057  0.7055  0.6121  0.2444
 1358TIP3    H125565   5.570   4.388  12.072  0.1001 -0.6298 -0.6661
 1358TIP3    H225566   5.713   4.437  12.060 -0.4524  1.4013  0.5942
 1359TIP3   OH225567   5.052   3.870  12.390  0.0028 -0.1753 -0.2125
 1359TIP3    H125568   4.974   3.887  12.337  0.2065  1.1869 -0.1332
 1359TIP3    H225569   5.028   3.799  12.448 -0.9980 -0.1260 -0.5500
 1360TIP3   OH225570   5.955   2.644   3.516 -0.4727  0.6320 -0.1425
 1360TIP3    H125571   5.863   2.669   3.504 -0.5882 -0.6653 -2.5091
 1360TIP3    H225572   6.000   2.726   3.535 -1.9665  1.4395  0.0502
 1361TIP3   OH225573   3.001   6.445  15.582  0.8169  0.1727  0.0060
 1361TIP3    H125574   3.028   6.384  15.651 -0.6130 -0.4938  0.0024
 1361TIP3    H225575   3.044   6.412  15.503 -0.2621 -1.1153 -0.0812
 1362TIP3   OH225576   4.332   4.186  11.014  0.3009 -0.4664 -0.2124
 1362TIP3    H125577   4.278   4.252  10.972  0.7439 -0.4779 -0.8113
 1362TIP3    H225578   4.303   4.185  11.105 -0.0130  0.2350 -0.3013
 1363TIP3   OH225579   2.297   2.312  11.847  0.1721  0.5402 -0.3148
 1363TIP3    H125580   2.311   2.407  11.853  0.3843  0.5445 -0.8028
 1363TIP3    H225581   2.337   2.288  11.763  0.1857  0.0063 -0.1538
 1364TIP3   OH225582   1.703   1.213   1.749 -0.7857 -0.3670 -0.0752
 1364TIP3    H125583   1.696   1.145   1.682 -1.0498  0.0518 -0.4789
 1364TIP3    H225584   1.672   1.293   1.706  0.6382  0.2694  0.0197
 1365TIP3   OH225585   4.558   3.637  11.074  0.2446  0.3765 -0.1214
 1365TIP3    H125586   4.483   3.671  11.026 -0.0131  2.4757  1.6548
 1365TIP3    H225587   4.631   3.643  11.011 -0.7327 -0.3269 -1.3801
 1366TIP3   OH225588   2.226   1.424  10.621 -0.6079  0.4606  0.5780
 1366TIP3    H125589   2.173   1.344  10.610 -0.6269  0.5599 -0.1204
 1366TIP3    H225590   2.283   1.405  10.694 -1.1157  0.0733  0.8831
 1367TIP3   OH225591   4.957   5.743  16.468 -0.2627 -0.2395  0.4644
 1367TIP3    H125592   4.881   5.793  16.435 -0.2541  0.0413  0.8655
 1367TIP3    H225593   4.946   5.743  16.563 -1.4630 -2.9118  0.4111
 1368TIP3   OH225594   5.634   6.026   3.494  0.5667 -0.4685  0.4799
 1368TIP3    H125595   5.595   6.112   3.475 -0.4758 -0.4692  2.3986
 1368TIP3    H225596   5.723   6.046   3.523  0.8593 -0.1883 -0.5588
 1369TIP3   OH225597   1.658   2.902  10.310  0.0485  0.3272  0.0194
 1369TIP3    H125598   1.669   2.863  10.223  1.2243  0.6543  0.0075
 1369TIP3    H225599   1.673   2.829  10.371  0.5036  0.3674 -0.0381
 1370TIP3   OH225600   4.345   2.161  11.673 -0.5506  0.1204  0.0652
 1370TIP3    H125601   4.281   2.158  11.745  0.2673 -0.8356  0.7815
 1370TIP3    H225602   4.320   2.239  11.622 -1.0417  0.9358  1.4846
 1371TIP3   OH225603   3.235   0.515   2.750 -0.4537  0.1927 -0.9084
 1371TIP3    H125604   3.238   0.591   2.808  1.4787 -1.6147  1.6368
 1371TIP3    H225605   3.319   0.517   2.704  0.3279 -1.1885  0.3899
 1372TIP3   OH225606   0.727   1.920  14.454  0.1005  0.3029  0.7492
 1372TIP3    H125607   0.680   1.880  14.527 -0.2178  1.0919  0.9857
 1372TIP3    H225608   0.784   1.986  14.494 -1.9564  2.5837  0.1598
 1373TIP3   OH225609   3.499   5.658   5.731  0.7977 -0.2671 -0.2797
 1373TIP3    H125610   3.561   5.607   5.783 -0.0989 -0.7600  0.3342
 1373TIP3    H225611   3.532   5.747   5.735  0.4595 -0.1950  1.6180
 1374TIP3   OH225612   0.475   5.444   0.792  0.6591 -0.2163  0.2517
 1374TIP3    H125613   0.453   5.537   0.804  0.2364 -0.3617  0.6169
 1374TIP3    H225614   0.535   5.424   0.864  2.5508  0.3433 -1.0980
 1375TIP3   OH225615   0.758   0.909  16.295  0.6896 -0.4202 -0.1353
 1375TIP3    H125616   0.676   0.880  16.336 -0.7432  0.8075 -1.9315
 1375TIP3    H225617   0.805   0.829  16.274 -0.0095 -1.1508  1.0135
 1376TIP3   OH225618   6.649   3.601  12.391 -0.1015  0.5621 -0.3412
 1376TIP3    H125619   6.711   3.655  12.439 -0.2847  1.5587 -1.1859
 1376TIP3    H225620   6.570   3.602  12.444 -0.3456  1.7590 -0.6966
 1377TIP3   OH225621   6.340   1.079  11.971  0.1723  0.7978  0.4948
 1377TIP3    H125622   6.348   1.071  12.067 -0.9556  1.4163  0.6585
 1377TIP3    H225623   6.278   1.011  11.947  0.4935  0.6121  0.1845
 1378TIP3   OH225624   0.959   4.399   3.002  0.0865  0.1930  0.6393
 1378TIP3    H125625   0.936   4.313   2.965  0.8108  0.4850 -0.5211
 1378TIP3    H225626   0.989   4.379   3.091  0.1534 -0.7490  0.4208
 1379TIP3   OH225627   6.766   5.526  15.738 -0.9953 -0.0177  0.2639
 1379TIP3    H125628   6.779   5.616  15.708  0.2092 -0.5821 -1.0501
 1379TIP3    H225629   6.763   5.474  15.658 -0.9244 -1.2277  1.0148
 1380TIP3   OH225630   2.689   6.539   0.480  0.3387 -0.0418 -0.3521
 1380TIP3    H125631   2.613   6.500   0.523 -0.8937 -0.0267 -2.3730
 1380TIP3    H225632   2.756   6.471   0.483  0.7568  0.3416  2.4825
 1381TIP3   OH225633   2.560   0.271  13.980  0.4116 -0.7094 -0.5568
 1381TIP3    H125634   2.522   0.343  14.029  0.9715  1.1746 -2.7032
 1381TIP3    H225635   2.597   0.213  14.046 -0.6068  0.6348  1.2754
 1382TIP3   OH225636   2.691   1.211  13.524  0.6773  0.2816 -0.1770
 1382TIP3    H125637   2.720   1.279  13.585 -0.1008 -0.4651  1.0693
 1382TIP3    H225638   2.663   1.139  13.580 -0.4353 -0.2943 -1.4115
 1383TIP3   OH225639   1.208   5.361  13.292 -0.3616 -0.3219  0.2668
 1383TIP3    H125640   1.123   5.365  13.336 -0.9382  1.6465 -0.8845
 1383TIP3    H225641   1.199   5.289  13.230 -0.3659 -1.5695  1.6596
 1384TIP3   OH225642   3.282   1.845   4.477 -0.6565  0.1736  0.0266
 1384TIP3    H125643   3.295   1.772   4.538 -1.4935 -1.2656 -1.4231
 1384TIP3    H225644   3.370   1.866   4.446 -0.3911 -0.1836  0.5253
 1385TIP3   OH225645   5.324   1.280   4.087 -0.4758 -0.7471  0.3582
 1385TIP3    H125646   5.363   1.200   4.051 -0.4959 -0.2912 -0.7381
 1385TIP3    H225647   5.297   1.256   4.175 -1.4965 -2.2835 -0.3298
 1386TIP3   OH225648   4.583   2.355  14.435 -0.1125 -0.4341 -0.0331
 1386TIP3    H125649   4.534   2.298  14.376  0.0138 -0.3087 -0.2633
 1386TIP3    H225650   4.660   2.382  14.384 -2.0916  3.1681 -1.4756
 1387TIP3   OH225651   2.816   0.976   2.539  0.3741 -0.6484  0.6236
 1387TIP3    H125652   2.852   1.065   2.544  0.0773 -0.4065 -1.0733
 1387TIP3    H225653   2.771   0.973   2.455  0.5019 -2.4697  0.5879
 1388TIP3   OH225654   1.835   6.658   3.466 -0.4848 -0.4209  0.4145
 1388TIP3    H125655   1.764   6.660   3.403 -0.4092 -1.0094  0.3057
 1388TIP3    H225656   1.910   6.626   3.417  0.3486  1.8266  0.0691
 1389TIP3   OH225657   4.204   3.429  13.134  0.3961 -0.1820 -0.2707
 1389TIP3    H125658   4.225   3.514  13.095 -1.6100 -0.2479 -1.6330
 1389TIP3    H225659   4.138   3.448  13.201 -0.2806 -0.6798 -0.7811
 1390TIP3   OH225660   3.755   6.084  16.791 -0.3616  0.5008 -0.5953
 1390TIP3    H125661   3.683   6.096  16.729  0.6022 -0.7527 -2.0336
 1390TIP3    H225662   3.809   6.163  16.780 -1.0622  1.0684 -0.0918
 1391TIP3   OH225663   3.338   2.176  15.472  0.3035 -0.5265 -0.2299
 1391TIP3    H125664   3.391   2.140  15.401 -0.6799 -0.7111 -0.8868
 1391TIP3    H225665   3.299   2.255  15.434 -1.3636 -1.3921 -0.3936
 1392TIP3   OH225666   4.463   6.386  14.804  0.1130  0.2947  0.3212
 1392TIP3    H125667   4.540   6.394  14.860  0.6778  2.9697 -0.6449
 1392TIP3    H225668   4.496   6.350  14.722 -0.8087 -4.1721  1.6608
 1393TIP3   OH225669   5.506   4.646  11.962 -0.4008  0.6177 -0.3947
 1393TIP3    H125670   5.418   4.612  11.973  0.0600 -0.0329  1.6211
 1393TIP3    H225671   5.526   4.630  11.869 -1.3949 -1.7675 -0.2718
 1394TIP3   OH225672   5.255   1.179  14.254 -0.9046  0.1463 -0.2024
 1394TIP3    H125673   5.295   1.234  14.321 -0.2987 -1.6381  0.9802
 1394TIP3    H225674   5.324   1.118  14.228 -1.7663 -0.5520 -0.9192
 1395TIP3   OH225675   1.459   0.107  15.617  0.1658  0.0295 -0.1973
 1395TIP3    H125676   1.398   0.132  15.548  1.2119  0.3556 -1.0177
 1395TIP3    H225677   1.406   0.054  15.677 -1.1031  0.9008 -0.5025
 1396TIP3   OH225678   6.640   3.183   1.346  0.0296  0.1258 -0.6917
 1396TIP3    H125679   6.602   3.135   1.272  0.3785 -0.5007 -0.4735
 1396TIP3    H225680   6.717   3.226   1.309 -0.0113  0.1238 -0.7804
 1397TIP3   OH225681   1.994   0.403  12.608 -0.2911 -0.1073  0.1502
 1397TIP3    H125682   2.049   0.325  12.598  1.7223  1.4043 -1.5392
 1397TIP3    H225683   1.985   0.438  12.519 -0.7876  1.8050  0.8990
 1398TIP3   OH225684   1.459   6.454   2.458  0.1474 -0.0974 -0.5789
 1398TIP3    H125685   1.478   6.371   2.414  0.9295  1.0051 -2.4089
 1398TIP3    H225686   1.373   6.440   2.497  0.3263 -1.8208 -0.7014
 1399TIP3   OH225687   3.300   4.827  14.273  0.1060 -0.9474  0.3387
 1399TIP3    H125688   3.316   4.901  14.215 -1.0218  0.7075  1.9783
 1399TIP3    H225689   3.211   4.798  14.252 -0.0238 -0.8318  0.7078
 1400TIP3   OH225690   0.665   5.873  11.563  0.1509  0.2007 -0.0461
 1400TIP3    H125691   0.583   5.878  11.611 -1.5608  1.1361 -2.8260
 1400TIP3    H225692   0.700   5.962  11.567  0.6017  0.0127  0.3642
 1401TIP3   OH225693   5.343   5.561  14.801 -0.8116 -0.1799 -0.0389
 1401TIP3    H125694   5.434   5.534  14.786 -1.0476 -0.7556 -0.4562
 1401TIP3    H225695   5.332   5.554  14.896 -0.8845 -1.6921 -0.1244
 1402TIP3   OH225696   3.409   0.991   2.123 -0.8160  0.3197  0.0327
 1402TIP3    H125697   3.478   0.938   2.083 -1.1622  0.9379 -1.4439
 1402TIP3    H225698   3.370   0.933   2.188  0.4111 -0.3931  0.1759
 1403TIP3   OH225699   2.161   3.296  11.859  0.4468 -0.2334  0.2661
 1403TIP3    H125700   2.231   3.353  11.889  0.9942 -0.0217 -1.3097
 1403TIP3    H225701   2.207   3.220  11.822 -0.0989  0.0735 -1.1145
 1404TIP3   OH225702   5.214   2.835   3.120  0.0837 -0.0930  0.1237
 1404TIP3    H125703   5.203   2.797   3.032  0.2956 -0.7280  0.3674
 1404TIP3    H225704   5.139   2.893   3.130  0.7858  1.0791 -1.0323
 1405TIP3   OH225705   0.711   6.604   6.524 -0.6104 -0.2275  0.2820
 1405TIP3    H125706   0.640   6.622   6.586 -1.8896 -0.3663 -1.0623
 1405TIP3    H225707   0.722   6.686   6.476  0.6212 -0.0068  0.9028
 1406TIP3   OH225708   4.800   3.335   0.259 -0.0279 -0.0513  0.2269
 1406TIP3    H125709   4.775   3.245   0.240  0.5807 -0.0275 -0.7608
 1406TIP3    H225710   4.782   3.346   0.352 -0.3196 -1.1202  0.3072
 1407TIP3   OH225711   6.667   1.760   0.655  0.2070  0.1434 -0.3868
 1407TIP3    H125712   6.691   1.673   0.621 -0.1941  0.4358 -1.4321
 1407TIP3    H225713   6.630   1.742   0.741  2.0708 -0.5318  0.3449
 1408TIP3   OH225714   2.947   2.410   1.780  0.1485  0.5706 -0.3898
 1408TIP3    H125715   2.914   2.470   1.848 -3.9990 -0.8799 -0.8323
 1408TIP3    H225716   2.912   2.446   1.698  0.3327 -0.6962 -1.0448
 1409TIP3   OH225717   1.573   1.892  10.922  0.2304  0.4346 -0.1709
 1409TIP3    H125718   1.636   1.910  10.991 -0.3924 -0.2382  0.6013
 1409TIP3    H225719   1.608   1.935  10.844  2.3129 -1.0436 -0.1087
 1410TIP3   OH225720   4.039   5.929  13.450 -0.3516 -0.2357 -0.2381
 1410TIP3    H125721   4.120   5.883  13.473  0.0698 -0.4511 -2.0085
 1410TIP3    H225722   4.022   5.986  13.525  2.1845  0.8063 -0.3379
 1411TIP3   OH225723   6.177   2.826   5.049  0.1568 -0.5478 -0.2627
 1411TIP3    H125724   6.269   2.823   5.026  0.3897  3.3866 -0.5407
 1411TIP3    H225725   6.176   2.848   5.143 -0.5790 -2.2757  0.1715
 1412TIP3   OH225726   2.037   3.482  11.180 -0.2465 -0.3105 -0.1855
 1412TIP3    H125727   1.956   3.533  11.184 -0.5049 -0.7823  1.2856
 1412TIP3    H225728   2.082   3.515  11.103 -1.8172 -0.0002 -1.0169
 1413TIP3   OH225729   6.031   4.442   4.424  0.2794  0.1002 -0.4400
 1413TIP3    H125730   6.027   4.515   4.363  1.8031  0.3143 -0.3293
 1413TIP3    H225731   5.940   4.421   4.444 -0.1826  1.7328 -0.7511
 1414TIP3   OH225732   0.248   2.261  11.553 -0.9896  0.4547 -0.0484
 1414TIP3    H125733   0.199   2.250  11.472 -2.3349  0.0813  0.7802
 1414TIP3    H225734   0.263   2.355  11.560  0.7959  0.3402 -1.6367
 1415TIP3   OH225735   3.670   1.441   4.701  0.4201  0.4349  0.9384
 1415TIP3    H125736   3.689   1.376   4.633 -1.5468  0.2200  0.5144
 1415TIP3    H225737   3.679   1.393   4.783 -2.6742 -1.0129  0.5946
 1416TIP3   OH225738   4.966   6.597  13.411 -0.4556  0.7571 -0.0108
 1416TIP3    H125739   4.953   6.568  13.320 -3.1078  2.2274 -0.1929
 1416TIP3    H225740   5.045   6.651  13.408 -0.7982  1.2183 -1.5836
 1417TIP3   OH225741   4.670   4.045  12.505  0.1611  0.1173  0.2360
 1417TIP3    H125742   4.741   4.103  12.479 -0.4376  0.4701 -0.6490
 1417TIP3    H225743   4.706   3.995  12.578  1.1989  0.5311  0.0277
 1418TIP3   OH225744   5.914   4.473   2.959  0.4853 -0.6367  0.4317
 1418TIP3    H125745   5.886   4.563   2.973 -0.5562 -1.0951  1.4772
 1418TIP3    H225746   5.888   4.453   2.869 -0.2792 -0.2364  0.5591
 1419TIP3   OH225747   4.056   4.288   4.803 -0.0348  0.2263  0.1295
 1419TIP3    H125748   4.073   4.217   4.742 -0.7773  1.3285 -1.4228
 1419TIP3    H225749   3.966   4.275   4.831  0.2196 -0.1246  0.8195
 1420TIP3   OH225750   2.902   2.963  13.177 -0.1254  0.5621 -0.1042
 1420TIP3    H125751   2.963   2.965  13.251 -1.6680 -0.7286  1.2663
 1420TIP3    H225752   2.872   3.054  13.169  1.9001  1.2121 -0.7836
 1421TIP3   OH225753   6.353   4.584   1.731  1.0735  0.0956 -0.0604
 1421TIP3    H125754   6.363   4.490   1.720  3.7215  0.5768 -3.3584
 1421TIP3    H225755   6.290   4.610   1.664  0.6599  0.7632  0.5614
 1422TIP3   OH225756   2.877   6.512   1.959 -1.1593 -0.4501 -0.0550
 1422TIP3    H125757   2.941   6.518   1.888  0.2904  2.4302  1.3016
 1422TIP3    H225758   2.805   6.570   1.930 -0.9229  0.1089  0.4643
 1423TIP3   OH225759   3.205   2.491  16.271  0.0163 -0.0346 -0.8469
 1423TIP3    H125760   3.182   2.557  16.337  1.4754 -0.5551  0.2275
 1423TIP3    H225761   3.146   2.418  16.289  0.3082 -0.1183 -0.2039
 1424TIP3   OH225762   4.995   2.573   4.671 -0.6960 -0.0928  0.1644
 1424TIP3    H125763   4.948   2.526   4.603 -1.1504  0.7040 -0.0920
 1424TIP3    H225764   5.048   2.637   4.623  1.0476 -1.2794  0.4110
 1425TIP3   OH225765   4.165   2.310   4.982 -0.4112 -0.0888 -0.1850
 1425TIP3    H125766   4.190   2.351   4.900  0.3215 -0.0557  0.0535
 1425TIP3    H225767   4.164   2.216   4.963 -0.4702 -0.0665 -0.2924
 1426TIP3   OH225768   0.937   6.739  13.970 -0.1542  0.8607 -0.6800
 1426TIP3    H125769   0.923   6.653  14.009 -0.4311  2.1900  2.4668
 1426TIP3    H225770   0.871   6.746  13.901  0.7094 -1.8557 -1.8903
 1427TIP3   OH225771   6.601   5.982  14.857  0.3107 -0.4654 -0.8183
 1427TIP3    H125772   6.564   6.055  14.906 -0.2911 -0.6665 -0.9740
 1427TIP3    H225773   6.535   5.960  14.792 -0.6262 -2.7319  0.7834
 1428TIP3   OH225774   0.648   2.755   1.299 -0.6631  0.0827 -0.2101
 1428TIP3    H125775   0.591   2.771   1.224 -0.7167  0.1152 -0.1629
 1428TIP3    H225776   0.661   2.660   1.300  1.5371  0.2818 -1.8733
 1429TIP3   OH225777   4.587   4.771   6.111 -0.5340 -0.1571 -0.2584
 1429TIP3    H125778   4.498   4.798   6.133  0.1922  0.7500  1.8517
 1429TIP3    H225779   4.584   4.675   6.115 -1.7880 -0.2533 -2.0680
 1430TIP3   OH225780   4.872   5.775   1.169 -0.5574 -0.4463  0.0490
 1430TIP3    H125781   4.885   5.859   1.215  0.7138 -0.9636  0.6719
 1430TIP3    H225782   4.861   5.711   1.239 -1.1282 -0.8779 -0.4229
 1431TIP3   OH225783   1.038   2.332  12.387  0.0765  0.2812 -0.4609
 1431TIP3    H125784   0.951   2.341  12.427  0.7314 -0.9902  1.4227
 1431TIP3    H225785   1.079   2.417  12.399 -0.3277  0.3972  0.1527
 1432TIP3   OH225786   5.528   3.059  15.819  0.0460 -0.3451  0.4842
 1432TIP3    H125787   5.459   3.043  15.755  0.8143 -0.2593 -0.3833
 1432TIP3    H225788   5.571   3.139  15.790  0.5911 -0.4595  0.9418
 1433TIP3   OH225789   4.493   1.699  13.941 -0.5363 -0.2961  0.4017
 1433TIP3    H125790   4.438   1.762  13.896 -0.9524 -0.4346  0.7069
 1433TIP3    H225791   4.465   1.704  14.033  1.7439  1.5254  1.0884
 1434TIP3   OH225792   1.332   6.756  12.908  0.3299  0.9086 -0.3318
 1434TIP3    H125793   1.272   6.682  12.902  0.7954  0.5967 -1.2409
 1434TIP3    H225794   1.276   6.833  12.891 -0.0436  0.7295  0.0644
 1435TIP3   OH225795   1.356   2.636  12.813 -0.2275 -0.1885  0.3467
 1435TIP3    H125796   1.394   2.698  12.876 -0.1698  0.8151 -0.6550
 1435TIP3    H225797   1.322   2.691  12.743 -0.4525 -1.2843 -0.4189
 1436TIP3   OH225798   4.416   4.326   1.728 -0.4845  0.3588 -0.0040
 1436TIP3    H125799   4.493   4.282   1.763  0.5680 -0.8690 -3.4986
 1436TIP3    H225800   4.451   4.399   1.677 -1.7235  0.5618 -0.6069
 1437TIP3   OH225801   4.536   0.623  11.093  0.2561 -0.6377  0.5091
 1437TIP3    H125802   4.489   0.618  11.010  1.1378 -0.3214 -0.0205
 1437TIP3    H225803   4.482   0.574  11.154 -1.1746  0.3775  0.1189
 1438TIP3   OH225804   4.656   3.084   5.483 -0.2525 -0.4309  0.0272
 1438TIP3    H125805   4.735   3.042   5.516  1.0853  1.8983 -0.0119
 1438TIP3    H225806   4.594   3.077   5.556  0.5590 -0.7621  0.7105
 1439TIP3   OH225807   5.347   0.030  12.047  0.8915  0.3422  0.0611
 1439TIP3    H125808   5.372   0.086  11.974 -0.0026 -1.0192 -1.3595
 1439TIP3    H225809   5.252   0.041  12.054  0.7280 -0.7759 -0.1134
 1440TIP3   OH225810   0.255   0.383  13.624  0.1286 -0.1573  0.0548
 1440TIP3    H125811   0.342   0.421  13.633  0.5182 -1.3911  2.5951
 1440TIP3    H225812   0.265   0.315  13.558  0.2513  1.7483 -1.9911
 1441TIP3   OH225813   5.486   3.729   0.709 -0.3598  0.0401  0.1848
 1441TIP3    H125814   5.520   3.651   0.666  0.9497 -0.6291  2.2674
 1441TIP3    H225815   5.407   3.699   0.754 -0.4587  0.1796  0.1034
 1442TIP3   OH225816   1.904   6.316  12.950  0.5512  0.2853 -0.1555
 1442TIP3    H125817   1.849   6.283  12.878  1.4989 -1.1219 -0.2793
 1442TIP3    H225818   1.924   6.406  12.925  0.6952 -0.1079 -1.5904
 1443TIP3   OH225819   0.019   6.237  12.184 -0.0106  0.4627  0.9312
 1443TIP3    H125820   0.018   6.333  12.184 -1.0944  0.4593  0.5683
 1443TIP3    H225821   0.103   6.214  12.145 -1.1838  1.2841 -2.3225
 1444TIP3   OH225822   2.772   4.935  12.470 -0.4399  0.0340 -0.4086
 1444TIP3    H125823   2.698   4.895  12.517  0.1280 -0.0953  0.3853
 1444TIP3    H225824   2.832   4.862  12.453 -0.1158  0.2814 -0.3327
 1445TIP3   OH225825   1.283   6.142   3.928 -0.6110 -0.1266  0.3602
 1445TIP3    H125826   1.349   6.073   3.934  1.0011  1.4742  1.7490
 1445TIP3    H225827   1.250   6.135   3.838  0.9467 -1.3945 -0.1656
 1446TIP3   OH225828   0.776   1.670   4.076 -0.0227 -0.7532  0.2237
 1446TIP3    H125829   0.852   1.708   4.119  0.2119 -0.2196 -0.6378
 1446TIP3    H225830   0.703   1.727   4.101  0.0816 -0.5430  0.0469
 1447TIP3   OH225831   3.281   4.951   5.917  0.0693  0.0436  0.1027
 1447TIP3    H125832   3.258   5.031   5.964  0.0272  0.3258 -0.3829
 1447TIP3    H225833   3.329   4.898   5.980 -0.9507 -0.0741  0.8086
 1448TIP3   OH225834   5.364   6.492   0.359 -0.2708 -0.0207 -0.1089
 1448TIP3    H125835   5.452   6.528   0.366 -0.0527 -0.4640 -0.5536
 1448TIP3    H225836   5.321   6.547   0.293 -0.6402  0.7914  0.7715
 1449TIP3   OH225837   2.551   3.846   4.153 -0.7224 -0.3142 -0.0626
 1449TIP3    H125838   2.516   3.757   4.160 -2.4537  0.3915  0.9496
 1449TIP3    H225839   2.505   3.884   4.078 -1.6997  0.3983  0.8527
 1450TIP3   OH225840   5.034   4.245  15.550 -0.1254 -0.0401  0.3637
 1450TIP3    H125841   5.093   4.254  15.475  1.1356  0.4467  1.3773
 1450TIP3    H225842   5.032   4.151  15.568  1.1618  0.0247  0.9314
 1451TIP3   OH225843   5.549   6.195   1.605  0.2935 -0.3985  0.7603
 1451TIP3    H125844   5.512   6.183   1.517  2.7346 -1.7306 -0.1646
 1451TIP3    H225845   5.572   6.288   1.609  0.4121 -0.3805 -0.1273
 1452TIP3   OH225846   2.644   0.157  11.834  0.2527  0.2269 -0.0013
 1452TIP3    H125847   2.720   0.108  11.865 -0.1959 -0.5402 -0.0819
 1452TIP3    H225848   2.641   0.139  11.740 -0.9023 -1.0052  0.2452
 1453TIP3   OH225849   3.424   0.104   1.427  0.3267 -0.1280  0.3601
 1453TIP3    H125850   3.370   0.085   1.351 -0.6644  1.1085  0.7188
 1453TIP3    H225851   3.362   0.114   1.499  0.9864  1.4757  0.7535
 1454TIP3   OH225852   4.739   3.079  16.422  0.1800 -0.0345 -0.1048
 1454TIP3    H125853   4.739   3.159  16.369 -0.7612 -0.4236 -0.7177
 1454TIP3    H225854   4.792   3.017  16.371  1.4986  0.3904  0.7042
 1455TIP3   OH225855   6.660   3.910  12.815  0.4711  0.0756 -0.6959
 1455TIP3    H125856   6.748   3.871  12.812  0.3506 -0.2181 -0.4872
 1455TIP3    H225857   6.659   3.959  12.897 -0.0653 -1.1577  0.0595
 1456TIP3   OH225858   4.503   4.362  13.038  0.6127 -0.1815  0.2331
 1456TIP3    H125859   4.545   4.392  13.118  0.3053 -0.9666  0.6976
 1456TIP3    H225860   4.575   4.326  12.985  0.5768 -1.2217  0.8845
 1457TIP3   OH225861   1.757   1.264  11.910  0.3701  0.3537 -0.7217
 1457TIP3    H125862   1.783   1.326  11.977  0.2315 -0.8016  0.4519
 1457TIP3    H225863   1.829   1.202  11.905 -0.6828 -1.0280  0.2505
 1458TIP3   OH225864   5.141   0.881   4.307 -0.0807  0.1985 -0.1387
 1458TIP3    H125865   5.072   0.920   4.362 -1.3126 -1.4082 -0.4476
 1458TIP3    H225866   5.157   0.796   4.347 -0.9996 -1.0136 -2.2049
 1459TIP3   OH225867   5.658   0.176   2.169  0.9823  0.1269  0.4687
 1459TIP3    H125868   5.749   0.157   2.190  0.9191 -1.2790 -0.3733
 1459TIP3    H225869   5.608   0.104   2.209  0.6055 -1.0114 -1.8599
 1460TIP3   OH225870   2.693   4.123  13.958  0.2872 -0.3010 -0.7811
 1460TIP3    H125871   2.644   4.192  14.004  2.7113  0.1680  1.3438
 1460TIP3    H225872   2.782   4.132  13.991  1.2888 -2.6791 -2.6107
 1461TIP3   OH225873   5.549   0.413  11.441  0.1633  0.1308 -0.1657
 1461TIP3    H125874   5.488   0.437  11.370 -0.1991  0.3915  0.2283
 1461TIP3    H225875   5.636   0.434  11.406  0.0267 -0.2007 -0.7154
 1462TIP3   OH225876   6.493   2.368  11.386 -0.0995  0.2083  0.7855
 1462TIP3    H125877   6.547   2.440  11.353  1.1616  0.8055  3.7639
 1462TIP3    H225878   6.547   2.290  11.372  0.5397  0.4882  1.5876
 1463TIP3   OH225879   2.227   1.672  11.862  0.7516 -0.1932 -0.1981
 1463TIP3    H125880   2.207   1.578  11.868  1.4582 -0.3185  0.2231
 1463TIP3    H225881   2.271   1.681  11.777  1.4518 -0.3869  0.1416
 1464TIP3   OH225882   0.198   6.080   4.444  0.2633  0.5142 -0.1995
 1464TIP3    H125883   0.121   6.060   4.390  0.4309 -0.4959 -0.0732
 1464TIP3    H225884   0.178   6.166   4.482 -0.3711  0.7064 -0.9381
 1465TIP3   OH225885   6.817   4.356   4.810  0.6208 -0.6977  0.7566
 1465TIP3    H125886   6.877   4.326   4.741  0.9636  0.4575  0.5429
 1465TIP3    H225887   6.833   4.450   4.817 -1.1945 -0.3546  0.6708
 1466TIP3   OH225888   0.071   4.797  13.928  0.0206 -0.2036 -0.6541
 1466TIP3    H125889   0.164   4.787  13.907 -0.0783 -0.0573 -1.1886
 1466TIP3    H225890   0.026   4.759  13.852 -0.3531 -0.3412 -0.3620
 1467TIP3   OH225891   6.137   1.253  12.368  0.4308 -0.4736 -0.2342
 1467TIP3    H125892   6.175   1.340  12.359  0.0192 -0.3341 -0.6674
 1467TIP3    H225893   6.132   1.239  12.462  0.8859 -0.2000 -0.1677
 1468TIP3   OH225894   5.258   5.998  14.711 -0.5213 -0.6656  0.0937
 1468TIP3    H125895   5.299   6.079  14.742 -2.9597  0.4765  0.6281
 1468TIP3    H225896   5.275   5.934  14.780  2.0116 -0.8927 -0.6385
 1469TIP3   OH225897   5.753   4.825  16.312  0.0977  0.0241  0.2575
 1469TIP3    H125898   5.770   4.913  16.279  0.3879  0.7326  2.1943
 1469TIP3    H225899   5.676   4.835  16.369 -1.0202 -1.3452 -0.9291
 1470TIP3   OH225900   3.151   0.760  15.208  0.0290  0.1223  0.3022
 1470TIP3    H125901   3.185   0.679  15.169 -1.4622 -0.3711 -0.0471
 1470TIP3    H225902   3.093   0.730  15.278  0.8013  0.9540  1.3299
 1471TIP3   OH225903   3.230   3.065  12.628 -0.3355 -0.9508 -0.0575
 1471TIP3    H125904   3.279   3.030  12.554 -0.0467  0.9181 -0.8064
 1471TIP3    H225905   3.297   3.099  12.688 -0.5646 -2.4257  1.1033
 1472TIP3   OH225906   1.907   1.561  12.779  0.7720 -0.2719 -1.1417
 1472TIP3    H125907   1.814   1.574  12.797  1.2684  1.2884  0.4908
 1472TIP3    H225908   1.918   1.590  12.689 -0.5095 -1.6799 -1.8108
 1473TIP3   OH225909   5.521   1.453   5.801 -0.3950  0.1096  0.3318
 1473TIP3    H125910   5.428   1.473   5.801 -0.3981  0.1499  1.4209
 1473TIP3    H225911   5.564   1.538   5.791 -0.4511  0.4443  2.5143
 1474TIP3   OH225912   0.907   0.950   0.552  0.5287  0.9605  0.4245
 1474TIP3    H125913   0.941   0.895   0.622 -0.1019  1.1677  0.9062
 1474TIP3    H225914   0.813   0.931   0.550  0.1786  2.4617  1.0212
 1475TIP3   OH225915   2.374   6.562  15.150 -0.0273  0.0663  0.4577
 1475TIP3    H125916   2.411   6.536  15.066 -1.0539  0.6375 -0.1861
 1475TIP3    H225917   2.436   6.529  15.215  1.0439  0.0779 -0.5414
 1476TIP3   OH225918   2.118   2.125   3.977 -0.3875 -0.5423  0.0936
 1476TIP3    H125919   2.069   2.048   3.947 -1.8068 -0.7681  2.6613
 1476TIP3    H225920   2.117   2.117   4.073 -0.1964  2.4453  0.4190
 1477TIP3   OH225921   2.593   3.201   0.570  0.0400 -0.2504  0.2715
 1477TIP3    H125922   2.569   3.180   0.660 -2.5105  1.6201  0.1174
 1477TIP3    H225923   2.513   3.232   0.530  1.2479 -0.4373 -2.5185
 1478TIP3   OH225924   3.645   2.529  10.931  0.0708  0.2671  0.5944
 1478TIP3    H125925   3.650   2.617  10.894 -0.4946  0.4613  0.9686
 1478TIP3    H225926   3.703   2.532  11.007 -0.2726  0.4440  0.8520
 1479TIP3   OH225927   4.332   1.652   5.742  0.1777 -0.0831  0.0146
 1479TIP3    H125928   4.282   1.682   5.667 -1.2783 -0.5612  0.7631
 1479TIP3    H225929   4.347   1.559   5.726  0.5766 -0.0120 -0.0526
 1480TIP3   OH225930   3.373   2.864  13.484 -0.0770  0.1850 -0.1409
 1480TIP3    H125931   3.446   2.913  13.444  0.8352 -2.2127 -1.5857
 1480TIP3    H225932   3.341   2.922  13.554  2.0422  2.0770 -0.6285
 1481TIP3   OH225933   1.702   5.860  12.113  0.5368 -0.1187 -0.0407
 1481TIP3    H125934   1.668   5.770  12.108 -1.8021  0.7366 -0.8475
 1481TIP3    H225935   1.709   5.877  12.207 -1.2586 -0.4067  0.1813
 1482TIP3   OH225936   5.945   0.695   3.739  0.0993  0.1774 -0.3994
 1482TIP3    H125937   6.033   0.683   3.776  0.8475  0.3598 -1.9971
 1482TIP3    H225938   5.889   0.709   3.815  1.0646 -2.0292  0.8351
 1483TIP3   OH225939   0.452   3.862  12.111  0.2922  0.5736  0.6402
 1483TIP3    H125940   0.472   3.771  12.090  0.1944  0.8508 -0.7049
 1483TIP3    H225941   0.357   3.865  12.118  0.3819  0.1870  2.6490
 1484TIP3   OH225942   5.226   6.789   6.116  0.3880  0.0140 -0.2611
 1484TIP3    H125943   5.322   6.788   6.118  0.4080  0.4399 -0.8395
 1484TIP3    H225944   5.203   6.881   6.120 -0.0190 -0.1033  0.2618
 1485TIP3   OH225945   4.346   2.244   4.446  0.0197 -0.2696 -0.7749
 1485TIP3    H125946   4.251   2.236   4.441 -0.0096 -1.0809  0.4466
 1485TIP3    H225947   4.378   2.156   4.425  0.6822  0.5595 -3.6870
 1486TIP3   OH225948   1.353   0.501  13.897  0.3355 -0.2693  0.4356
 1486TIP3    H125949   1.387   0.483  13.809 -0.5473  0.7192 -0.1408
 1486TIP3    H225950   1.430   0.501  13.953  1.1348  0.7298 -0.6226
 1487TIP3   OH225951   4.827   5.733   4.251 -0.2400  0.0169  0.2941
 1487TIP3    H125952   4.784   5.705   4.332  1.3611  0.2554  1.2797
 1487TIP3    H225953   4.857   5.822   4.270 -0.2698  0.2558 -0.7500
 1488TIP3   OH225954   1.584   0.316  15.960 -0.3848 -0.4164  0.4796
 1488TIP3    H125955   1.497   0.294  15.927 -1.0591 -0.0006  1.8719
 1488TIP3    H225956   1.596   0.408  15.937 -0.5376 -0.3293  0.7499
 1489TIP3   OH225957   0.263   4.181  13.004 -0.3271 -0.7069 -0.4808
 1489TIP3    H125958   0.337   4.154  12.950 -0.3162  0.4080 -1.0504
 1489TIP3    H225959   0.245   4.271  12.978 -2.0363 -1.0178 -0.5142
 1490TIP3   OH225960   3.550   2.919  14.881 -0.1160 -0.2120  0.1706
 1490TIP3    H125961   3.627   2.961  14.842 -0.4019 -0.6794 -0.9563
 1490TIP3    H225962   3.476   2.956  14.832 -0.4222 -1.4957 -0.3687
 1491TIP3   OH225963   4.188   4.540   6.611  0.3364 -0.0129 -0.3059
 1491TIP3    H125964   4.251   4.612   6.601  1.3135 -0.6005  1.3534
 1491TIP3    H225965   4.110   4.582   6.646  1.2868  0.1312  1.7666
 1492TIP3   OH225966   0.642   4.199  11.154  0.6352  0.1007 -0.1586
 1492TIP3    H125967   0.553   4.224  11.129  0.4874  2.5971  2.3547
 1492TIP3    H225968   0.633   4.108  11.184 -2.2259  1.4624  4.1111
 1493TIP3   OH225969   0.145   2.394   2.702  0.0619  0.1336  0.5807
 1493TIP3    H125970   0.124   2.303   2.722  1.1197  0.2692  2.4392
 1493TIP3    H225971   0.224   2.389   2.648  0.0826 -0.0459  0.6280
 1494TIP3   OH225972   4.169   1.033   3.271  0.1816  0.4384 -0.4953
 1494TIP3    H125973   4.087   1.065   3.309  0.3698 -0.7339  1.0316
 1494TIP3    H225974   4.154   0.940   3.258  1.2303  0.2197 -0.2517
 1495TIP3   OH225975   6.766   5.322  13.536  0.5605  0.3908 -0.0515
 1495TIP3    H125976   6.787   5.354  13.624  1.4346 -1.1662  0.3475
 1495TIP3    H225977   6.753   5.402  13.484 -0.3336  1.3380  1.5515
 1496TIP3   OH225978   6.600   3.678  11.793  0.3331  0.3693  0.1997
 1496TIP3    H125979   6.555   3.637  11.867 -0.6206  0.5035 -0.2936
 1496TIP3    H225980   6.544   3.662  11.718  2.5224 -1.9992 -1.0597
 1497TIP3   OH225981   4.741   5.593  17.009 -0.3585  0.1761 -0.0352
 1497TIP3    H125982   4.787   5.632  17.083 -1.2254  0.6616  0.2572
 1497TIP3    H225983   4.650   5.619  17.021 -0.3188  1.5015 -2.0170
 1498TIP3   OH225984   2.820   6.736   4.237  0.6350 -0.0611 -0.1281
 1498TIP3    H125985   2.771   6.679   4.178 -0.4976  0.5992  0.1313
 1498TIP3    H225986   2.887   6.777   4.182 -0.3438  0.4781 -0.9521
 1499TIP3   OH225987   6.252   6.361   0.824  0.5633  0.2012  0.3434
 1499TIP3    H125988   6.273   6.402   0.740  1.1017 -0.1647  0.2963
 1499TIP3    H225989   6.234   6.270   0.802 -2.4828  0.7326  0.1671
 1500TIP3   OH225990   0.031   6.278  14.272 -0.3507  0.0957  0.3960
 1500TIP3    H125991   0.026   6.220  14.347  0.3771 -1.2292 -0.5463
 1500TIP3    H225992   0.091   6.348  14.298 -0.4127 -0.1401  1.1718
 1501TIP3   OH225993   0.107   2.837   0.265 -0.3836 -0.5224  0.3930
 1501TIP3    H125994   0.168   2.805   0.198 -1.2107  2.6101 -2.1187
 1501TIP3    H225995   0.025   2.791   0.247 -0.9297  1.0972 -1.6745
 1502TIP3   OH225996   6.325   2.526   5.117 -0.4252  0.1191  0.6325
 1502TIP3    H125997   6.268   2.483   5.053  1.5916 -1.8227  0.0068
 1502TIP3    H225998   6.320   2.619   5.095 -0.7315 -0.3583 -1.5956
 1503TIP3   OH225999   3.549   0.409  13.102  0.1882  0.1228 -0.5835
 1503TIP3    H126000   3.545   0.318  13.134  0.4920 -0.7816 -2.9339
 1503TIP3    H226001   3.641   0.434  13.111  0.2274 -0.0375 -0.5388
 1504TIP3   OH226002   4.672   5.617   6.020 -0.6200  0.1327 -0.6794
 1504TIP3    H126003   4.706   5.704   6.000 -2.0199  0.6756 -0.8734
 1504TIP3    H226004   4.606   5.632   6.087 -0.2252 -0.9126 -0.0284
 1505TIP3   OH226005   1.192   0.526   5.544 -0.1076  0.3144 -0.0078
 1505TIP3    H126006   1.276   0.482   5.535 -0.0424  0.1949  1.0254
 1505TIP3    H226007   1.209   0.617   5.518 -0.7016 -0.5894 -4.1642
 1506TIP3   OH226008   2.614   5.211  15.006  0.3851 -0.0769 -0.3963
 1506TIP3    H126009   2.520   5.199  15.022  0.4468 -1.2542 -0.8402
 1506TIP3    H226010   2.618   5.247  14.917  0.2856  1.9188  0.3433
 1507TIP3   OH226011   1.677   5.418  15.173  0.1692  0.6621  0.0755
 1507TIP3    H126012   1.758   5.369  15.156  0.0788  0.5804 -0.1164
 1507TIP3    H226013   1.686   5.498  15.122 -0.0619  0.4569 -0.2941
 1508TIP3   OH226014   2.069   3.568  16.663  0.2153  0.4310  0.1820
 1508TIP3    H126015   2.072   3.568  16.759  0.8441 -0.7787  0.1863
 1508TIP3    H226016   2.161   3.566  16.636  0.0912  2.2471 -0.4885
 1509TIP3   OH226017   5.169   6.123   1.473 -0.3999  0.1411 -0.5115
 1509TIP3    H126018   5.212   6.209   1.474  1.3628 -0.7028 -0.4475
 1509TIP3    H226019   5.184   6.088   1.561 -0.6793 -0.4591 -0.7002
 1510TIP3   OH226020   5.629   5.466   6.214  0.0406 -0.6979 -0.2740
 1510TIP3    H126021   5.720   5.493   6.198 -0.2124  0.0381 -0.5254
 1510TIP3    H226022   5.605   5.512   6.295 -0.2934 -0.4304 -0.5264
 1511TIP3   OH226023   5.043   2.312   5.028  0.2256  0.0724 -0.8739
 1511TIP3    H126024   4.979   2.299   5.098 -1.8458 -2.5907 -3.0518
 1511TIP3    H226025   5.111   2.248   5.045  0.2158  0.0835 -0.7935
 1512TIP3   OH226026   5.062   3.033  13.303 -0.0352  0.4580 -0.5687
 1512TIP3    H126027   5.107   3.051  13.221  1.0142  0.0077 -0.1094
 1512TIP3    H226028   4.970   3.022  13.278  0.4072 -0.6320 -1.8253
 1513TIP3   OH226029   2.540   3.640  14.597  0.2294  0.1283 -0.1841
 1513TIP3    H126030   2.586   3.557  14.591 -0.0608 -0.1235  0.9002
 1513TIP3    H226031   2.447   3.617  14.591  0.1181  0.2953  0.7953
 1514TIP3   OH226032   5.552   3.925  14.973 -0.6007 -0.6645 -0.5201
 1514TIP3    H126033   5.461   3.949  14.988 -0.7293 -1.6582  0.3699
 1514TIP3    H226034   5.548   3.858  14.905 -0.3047  1.0969 -2.3792
 1515TIP3   OH226035   4.465   5.878   3.317 -0.4028  0.4147 -0.6873
 1515TIP3    H126036   4.433   5.793   3.347  0.2294  0.4891  0.2503
 1515TIP3    H226037   4.419   5.941   3.371  1.9585  0.4914  1.4281
 1516TIP3   OH226038   0.473   0.508   3.098  0.2711 -0.2543  0.6746
 1516TIP3    H126039   0.486   0.445   3.027 -2.6782 -1.1720  0.8151
 1516TIP3    H226040   0.409   0.569   3.064  1.7007  1.6493  1.2320
 1517TIP3   OH226041   2.135   2.144   2.208  0.2935 -0.0082 -0.5661
 1517TIP3    H126042   2.212   2.133   2.264  0.3037 -0.1465 -0.6061
 1517TIP3    H226043   2.079   2.070   2.230  0.2631 -0.0196 -0.6843
 1518TIP3   OH226044   1.793   3.551   0.886  0.2984 -0.8035  0.2282
 1518TIP3    H126045   1.766   3.493   0.958  1.5027 -0.6345  0.8343
 1518TIP3    H226046   1.714   3.602   0.866  0.1152 -0.3593  1.9061
 1519TIP3   OH226047   2.307   3.116  10.480 -0.1540  0.1598  0.2870
 1519TIP3    H126048   2.238   3.099  10.417 -0.5517  4.5866 -0.8301
 1519TIP3    H226049   2.388   3.096  10.433 -0.4884  2.5796 -1.5263
 1520TIP3   OH226050   5.994   1.219   0.369  0.0310 -0.2915  0.2107
 1520TIP3    H126051   6.038   1.295   0.331 -0.9547 -0.2974 -0.9854
 1520TIP3    H226052   5.904   1.224   0.337 -0.3183 -1.4111  0.9447
 1521TIP3   OH226053   3.721   1.605   2.978 -0.5852  0.5743  0.1556
 1521TIP3    H126054   3.774   1.606   3.057 -0.2679 -0.1620 -0.0329
 1521TIP3    H226055   3.633   1.581   3.008 -0.0702 -1.5816  0.1011
 1522TIP3   OH226056   3.136   0.280   5.406 -0.1846  0.3858  0.1476
 1522TIP3    H126057   3.170   0.246   5.323 -0.3992  1.4040 -0.3665
 1522TIP3    H226058   3.072   0.214   5.433 -0.7118  0.4362 -0.9103
 1523TIP3   OH226059   1.873   4.613   0.110 -0.3016  0.4061  0.5993
 1523TIP3    H126060   1.796   4.667   0.127  0.1560  0.5556  2.4288
 1523TIP3    H226061   1.915   4.604   0.196  0.4904 -1.5460  0.0587
 1524TIP3   OH226062   4.780   5.888  11.313  0.2100  0.2814  0.2971
 1524TIP3    H126063   4.753   5.852  11.397 -0.2861  1.3006  0.5857
 1524TIP3    H226064   4.875   5.898  11.321  0.1044  0.8216  0.9109
 1525TIP3   OH226065   3.163   3.278  14.728 -0.3428 -0.5520  0.0077
 1525TIP3    H126066   3.091   3.341  14.725  0.0991 -0.0275 -3.2851
 1525TIP3    H226067   3.122   3.193  14.712 -0.3111 -0.2362 -2.0060
 1526TIP3   OH226068   2.557   2.649  11.273  0.4777 -0.1597  0.5564
 1526TIP3    H126069   2.650   2.625  11.274  0.7740  0.9101  2.5307
 1526TIP3    H226070   2.553   2.732  11.320 -1.1994  1.0340 -1.5233
 1527TIP3   OH226071   1.787   3.682  16.090 -0.3656  0.8669 -0.3027
 1527TIP3    H126072   1.834   3.764  16.074  0.1705  0.7328  0.5179
 1527TIP3    H226073   1.821   3.622  16.024  0.5217  0.8232  0.1682
 1528TIP3   OH226074   0.946   6.811   4.824  0.0857 -1.1060  0.0497
 1528TIP3    H126075   0.934   6.719   4.800  0.2942 -1.5363  1.5223
 1528TIP3    H226076   0.999   6.847   4.753 -0.0428 -2.0990 -0.5754
 1529TIP3   OH226077   2.805   0.973  13.018  0.0709  0.1583  0.6068
 1529TIP3    H126078   2.755   0.980  13.100  1.1823 -0.7782  1.4049
 1529TIP3    H226079   2.859   1.052  13.017 -0.6436  0.6576  0.2629
 1530TIP3   OH226080   1.401   0.265  16.717 -0.1650 -0.6615  0.0050
 1530TIP3    H126081   1.417   0.356  16.743 -0.6226  0.3134 -2.8317
 1530TIP3    H226082   1.455   0.213  16.777  1.0196  1.5427  0.9567
 1531TIP3   OH226083   6.546   5.395  12.249 -0.1070 -0.5350 -0.0057
 1531TIP3    H126084   6.493   5.415  12.326  1.5442 -0.8471  1.2606
 1531TIP3    H226085   6.571   5.480  12.213 -0.4637 -0.3891  0.0877
 1532TIP3   OH226086   1.218   4.590  15.187 -0.4784 -0.3122 -0.0214
 1532TIP3    H126087   1.203   4.684  15.177 -0.1156 -0.3986 -1.5976
 1532TIP3    H226088   1.201   4.554  15.100  1.6394 -1.3895 -0.0465
 1533TIP3   OH226089   2.831   0.864  11.863 -0.2538 -0.4180  0.4038
 1533TIP3    H126090   2.868   0.946  11.896 -2.1071 -0.2974  2.3832
 1533TIP3    H226091   2.877   0.796  11.912  0.9999 -0.6152 -0.9555
 1534TIP3   OH226092   0.644   0.244   0.745 -0.6825 -0.2188  0.0442
 1534TIP3    H126093   0.563   0.292   0.732 -1.0297 -0.7394  0.2628
 1534TIP3    H226094   0.621   0.173   0.805  0.3479  0.7435  1.6655
 1535TIP3   OH226095   3.252   4.426  15.589 -0.1540  0.0395  0.3215
 1535TIP3    H126096   3.183   4.399  15.528  0.4117 -1.7098  0.3960
 1535TIP3    H226097   3.238   4.372  15.667  1.5806 -0.7693  0.1335
 1536TIP3   OH226098   5.602   2.300  10.917 -0.0611 -0.3734 -0.1918
 1536TIP3    H126099   5.691   2.298  10.953 -0.5100 -0.2902  0.9677
 1536TIP3    H226100   5.602   2.375  10.858  1.0339 -1.2166 -1.3206
 1537TIP3   OH226101   2.712   0.325  16.525  0.2759  0.2423 -0.5652
 1537TIP3    H126102   2.725   0.230  16.535 -0.7168  0.2297  0.9939
 1537TIP3    H226103   2.668   0.351  16.606 -0.5501  1.8368 -1.4886
 1538TIP3   OH226104   0.266   3.314   1.683  0.1689  0.2614 -0.2021
 1538TIP3    H126105   0.202   3.278   1.744  0.4833  0.2158  0.1095
 1538TIP3    H226106   0.217   3.377   1.630 -0.7099 -1.5998 -1.7192
 1539TIP3   OH226107   2.691   1.079  13.763  0.0515 -0.1307  1.1931
 1539TIP3    H126108   2.717   1.061  13.854  3.0252 -0.0683  0.4820
 1539TIP3    H226109   2.774   1.095  13.718 -1.4718  2.6190 -0.9859
 1540TIP3   OH226110   6.044   1.887   5.695  0.3198 -0.2875  0.4581
 1540TIP3    H126111   6.057   1.853   5.606  0.6518 -1.1070  0.8048
 1540TIP3    H226112   6.035   1.808   5.749  0.1537  0.2037  1.1530
 1541TIP3   OH226113   0.031   5.347   1.303 -0.3312 -0.0481 -0.3290
 1541TIP3    H126114  -0.042   5.394   1.344  1.3065  1.1672  1.3913
 1541TIP3    H226115   0.048   5.274   1.362  0.5865  0.3927 -0.0164
 1542TIP3   OH226116   4.081   4.451  12.496 -0.5587  0.3113 -0.1019
 1542TIP3    H126117   4.097   4.375  12.440  1.5544  0.7611 -0.2082
 1542TIP3    H226118   4.047   4.414  12.578  3.7528 -1.3360  1.2789
 1543TIP3   OH226119   5.801   2.195   2.979 -0.0808 -0.3148 -0.3313
 1543TIP3    H126120   5.770   2.208   2.890  0.5455 -0.8615 -0.6408
 1543TIP3    H226121   5.895   2.209   2.974  0.3379 -2.6159 -0.2678
 1544TIP3   OH226122   5.498   1.015   4.054 -0.3453  0.1094 -0.1312
 1544TIP3    H126123   5.584   1.034   4.015 -0.0606  1.6854  1.1607
 1544TIP3    H226124   5.463   0.943   4.001  1.6335 -0.3656 -0.8737
 1545TIP3   OH226125   1.437   1.813   0.526 -0.1364  0.3127  0.0050
 1545TIP3    H126126   1.528   1.790   0.508  0.4081  2.8782 -1.0528
 1545TIP3    H226127   1.385   1.743   0.486  1.3472 -0.6983 -0.1966
 1546TIP3   OH226128   3.649   5.567  11.414  0.7945 -0.2652  0.1993
 1546TIP3    H126129   3.570   5.617  11.433  2.3705  1.6724  2.1555
 1546TIP3    H226130   3.629   5.518  11.334 -2.1023  0.6602  0.2761
 1547TIP3   OH226131   0.577   3.048   6.344 -0.8108 -0.1089  0.2903
 1547TIP3    H126132   0.597   3.140   6.364 -0.5539 -0.5416  2.2657
 1547TIP3    H226133   0.530   3.017   6.421 -1.7358 -1.4047 -0.7508
 1548TIP3   OH226134   3.151   2.287   1.516 -0.5720  0.6632  0.3854
 1548TIP3    H126135   3.173   2.241   1.435 -0.0526  0.9648  0.3470
 1548TIP3    H226136   3.056   2.281   1.522 -0.6067  0.5388 -0.1903
 1549TIP3   OH226137   3.549   2.446  15.735  0.5359 -0.2118 -0.2433
 1549TIP3    H126138   3.462   2.421  15.764 -0.0195  1.8277 -0.0248
 1549TIP3    H226139   3.582   2.369  15.689 -0.8102 -1.5039  0.8536
 1550TIP3   OH226140   0.947   1.152   6.131  0.2339 -0.1330 -0.4963
 1550TIP3    H126141   0.911   1.107   6.055 -1.8580  0.0844  0.3085
 1550TIP3    H226142   0.878   1.146   6.197  2.5484 -1.7248  1.9871
 1551TIP3   OH226143   4.368   4.096   0.641 -0.4693 -0.0346 -0.3641
 1551TIP3    H126144   4.459   4.123   0.655 -0.6809  0.5764 -0.1444
 1551TIP3    H226145   4.349   4.038   0.715 -0.1174 -0.5375 -0.6602
 1552TIP3   OH226146   6.747   6.131   0.392 -0.1948 -0.1750 -0.5129
 1552TIP3    H126147   6.785   6.050   0.428  2.1968 -0.0512 -2.4989
 1552TIP3    H226148   6.683   6.100   0.328  0.8502 -0.5254 -1.4065
 1553TIP3   OH226149   3.150   3.355  15.659 -0.0563 -0.3601 -0.2123
 1553TIP3    H126150   3.240   3.325  15.672  1.2816  2.8627 -1.0680
 1553TIP3    H226151   3.129   3.403  15.738 -0.0799  0.9181 -0.9680
 1554TIP3   OH226152   2.561   1.204   4.814 -0.3572 -0.8480  0.0201
 1554TIP3    H126153   2.646   1.250   4.813 -0.3785 -0.7842 -1.6777
 1554TIP3    H226154   2.553   1.172   4.904 -0.1555  2.1292  1.2269
 1555TIP3   OH226155   3.556   4.672   5.056 -0.2221  0.2719 -0.3349
 1555TIP3    H126156   3.619   4.648   5.124  1.1893 -0.4673 -1.8444
 1555TIP3    H226157   3.607   4.673   4.975 -1.7362  1.6684 -1.3358
 1556TIP3   OH226158   3.837   1.541   3.496  0.3428  0.1865 -0.4006
 1556TIP3    H126159   3.879   1.465   3.537 -2.3452 -1.6333 -0.7128
 1556TIP3    H226160   3.894   1.563   3.423  0.6472 -2.3700 -1.0409
 1557TIP3   OH226161   2.480   6.587   2.273 -0.2357 -0.0362  0.0292
 1557TIP3    H126162   2.409   6.634   2.317 -1.3749 -0.7568 -0.9846
 1557TIP3    H226163   2.458   6.494   2.286  1.2833 -0.3089  0.8955
 1558TIP3   OH226164   2.414   3.820   1.559 -0.0377 -0.2343 -0.0502
 1558TIP3    H126165   2.393   3.755   1.626 -0.4978 -1.0136 -0.9123
 1558TIP3    H226166   2.344   3.810   1.494  1.0301 -0.3606 -1.2309
 1559TIP3   OH226167   5.253   4.837   1.179  0.4479 -0.0087 -0.1064
 1559TIP3    H126168   5.277   4.745   1.176  0.1065 -0.0797 -0.8892
 1559TIP3    H226169   5.215   4.849   1.266  0.1073 -0.7091 -0.1516
 1560TIP3   OH226170   2.490   0.678  14.480 -0.2443  0.4234  0.3770
 1560TIP3    H126171   2.482   0.648  14.389 -0.1591 -0.6604  0.7154
 1560TIP3    H226172   2.450   0.608  14.532  0.7496  0.4772  1.2453
 1561TIP3   OH226173   3.030   1.595   5.023  0.2440 -0.1417  0.3514
 1561TIP3    H126174   3.058   1.551   5.103 -0.0295  0.2188  0.6506
 1561TIP3    H226175   3.047   1.532   4.953 -1.2271 -1.1952  0.8951
 1562TIP3   OH226176   2.168   5.035   5.790 -0.1990 -0.1235 -0.1883
 1562TIP3    H126177   2.206   4.988   5.716  0.1328 -1.4830  0.8191
 1562TIP3    H226178   2.079   5.000   5.799 -0.4456  0.4549 -0.2842
 1563TIP3   OH226179   0.461   5.790  12.627  0.4218 -0.2893  0.1575
 1563TIP3    H126180   0.371   5.766  12.602  0.8086 -2.2694  0.4827
 1563TIP3    H226181   0.450   5.841  12.707 -0.4461 -0.2179  0.0096
 1564TIP3   OH226182   3.607   6.000  12.249 -0.0402  0.6853  0.1099
 1564TIP3    H126183   3.528   6.031  12.293  0.3776  1.0713  0.6061
 1564TIP3    H226184   3.667   5.979  12.321  0.0902 -0.1935 -0.2514
 1565TIP3   OH226185   6.229   5.854  12.008 -0.1992  0.1628  0.0622
 1565TIP3    H126186   6.304   5.843  12.065 -1.2194 -0.2943  1.3545
 1565TIP3    H226187   6.214   5.768  11.970 -0.9694 -0.1263  0.9845
 1566TIP3   OH226188   4.619   5.575  13.392 -0.1164 -0.4196  0.0904
 1566TIP3    H126189   4.546   5.618  13.436 -1.8446 -1.3326 -1.7059
 1566TIP3    H226190   4.695   5.629  13.413 -1.3042  0.6747  1.9013
 1567TIP3   OH226191   1.163   2.126  12.498  0.6374  0.0919 -0.4444
 1567TIP3    H126192   1.129   2.207  12.460  1.7233  0.6613 -0.2273
 1567TIP3    H226193   1.085   2.072  12.511 -0.1229  1.1522 -0.4446
 1568TIP3   OH226194   5.184   4.296  12.532  0.1998  0.1571 -0.7287
 1568TIP3    H126195   5.249   4.279  12.600 -0.1318  0.3411 -0.3564
 1568TIP3    H226196   5.194   4.224  12.470 -1.3517 -1.5839  0.9186
 1569TIP3   OH226197   4.931   2.322   5.508  0.7399  0.6211 -0.5148
 1569TIP3    H126198   4.859   2.380   5.485 -1.7150 -1.3640  1.5090
 1569TIP3    H226199   4.947   2.338   5.601  2.1911  0.2491 -0.6678
 1570TIP3   OH226200   6.317   0.055   4.930 -0.0163 -0.7220  0.2033
 1570TIP3    H126201   6.268   0.074   4.851  0.2813 -0.5725  0.0538
 1570TIP3    H226202   6.272  -0.021   4.969 -0.2550 -0.6965 -0.0216
 1571TIP3   OH226203   3.627   4.496   0.683 -0.2799  0.4962  1.0750
 1571TIP3    H126204   3.573   4.575   0.680 -0.6889  0.2683  1.9307
 1571TIP3    H226205   3.648   4.485   0.776 -1.9224 -1.4812  1.2943
 1572TIP3   OH226206   1.461   0.559   1.493  0.4821 -0.4399  0.1038
 1572TIP3    H126207   1.446   0.504   1.570  0.3594 -1.3035 -0.5088
 1572TIP3    H226208   1.529   0.620   1.519  2.1672 -2.2541  0.1929
 1573TIP3   OH226209   2.107   5.049  14.179 -0.6610  0.2311  0.1274
 1573TIP3    H126210   2.088   4.955  14.183 -2.0856  0.4793 -0.3254
 1573TIP3    H226211   2.196   5.054  14.144 -1.1838 -0.9058 -1.4454
 1574TIP3   OH226212   2.956   2.365   3.842 -0.0017  0.3679  0.0701
 1574TIP3    H126213   2.917   2.437   3.890  2.5361  0.5704  2.0588
 1574TIP3    H226214   2.934   2.382   3.750  0.4959  3.7088  0.4607
 1575TIP3   OH226215   6.198   6.162   2.007 -0.3007 -0.2400  0.0267
 1575TIP3    H126216   6.245   6.120   1.935  1.2664  0.9051  0.3184
 1575TIP3    H226217   6.149   6.233   1.965  0.1331  0.0537  0.0185
 1576TIP3   OH226218   2.362   1.113  14.099  0.1280  0.2269  0.4969
 1576TIP3    H126219   2.279   1.119  14.146  0.6339  0.4659  1.3819
 1576TIP3    H226220   2.424   1.080  14.164  0.9764  1.1132  0.1579
 1577TIP3   OH226221   6.756   5.273   0.088 -0.5585  0.0751 -0.0591
 1577TIP3    H126222   6.834   5.310   0.130  0.2384 -1.2655 -0.2900
 1577TIP3    H226223   6.775   5.274  -0.005 -1.1687  0.4877 -0.1853
 1578TIP3   OH226224   1.606   1.488   0.019 -0.3587 -0.7084  0.1006
 1578TIP3    H126225   1.655   1.551   0.072 -1.0891  0.4783 -0.5965
 1578TIP3    H226226   1.673   1.435  -0.024  0.2648 -0.4085  0.6828
 1579TIP3   OH226227   5.754   5.476   4.702  0.1375 -0.6132  0.0612
 1579TIP3    H126228   5.802   5.401   4.737  0.1066 -0.7045 -0.0942
 1579TIP3    H226229   5.782   5.482   4.611  0.1027 -0.4657  0.0597
 1580TIP3   OH226230   2.128   0.192  13.592  0.2835  0.2617 -0.7698
 1580TIP3    H126231   2.072   0.115  13.582 -0.4672  0.9466 -2.0330
 1580TIP3    H226232   2.067   0.266  13.593  0.7374  0.7826  2.9933
 1581TIP3   OH226233   0.402   1.004  16.376 -0.3320 -0.1586 -0.4039
 1581TIP3    H126234   0.311   0.976  16.385  0.0087 -1.0046  0.7799
 1581TIP3    H226235   0.449   0.926  16.347 -0.2837  0.8409 -3.3385
 1582TIP3   OH226236   6.596   6.272   5.988 -0.0940  0.1419 -0.4364
 1582TIP3    H126237   6.543   6.347   5.960 -1.0420  0.7133  2.4953
 1582TIP3    H226238   6.534   6.199   5.990 -0.2652  0.2967  0.7978
 1583TIP3   OH226239   0.099   1.639   1.412 -0.0005  0.2185  0.4166
 1583TIP3    H126240   0.090   1.583   1.489  1.3967 -0.8481 -0.1726
 1583TIP3    H226241   0.027   1.703   1.421  0.0116  0.0093  2.4845
 1584TIP3   OH226242   2.011   1.790   3.255 -0.5046 -0.3516  0.2721
 1584TIP3    H126243   1.938   1.810   3.196 -0.1541  0.1220 -0.0052
 1584TIP3    H226244   1.971   1.742   3.328 -1.2000  0.4985  0.4571
 1585TIP3   OH226245   4.689   2.863  11.315  0.1795 -0.0514 -0.0232
 1585TIP3    H126246   4.601   2.830  11.332 -0.1593 -0.4053 -2.1420
 1585TIP3    H226247   4.743   2.784  11.306  0.2283  0.0838 -0.9765
 1586TIP3   OH226248   2.461   6.072  10.996 -0.2265  0.5008  0.2582
 1586TIP3    H126249   2.544   6.074  11.042 -0.8676  0.4886  1.4486
 1586TIP3    H226250   2.479   6.023  10.915  0.7907  0.0519  0.7439
 1587TIP3   OH226251   6.233   0.541   3.041  0.4360  0.6766  0.4766
 1587TIP3    H126252   6.159   0.516   3.096  0.4455 -1.1912 -0.2713
 1587TIP3    H226253   6.216   0.498   2.957  2.2615  0.3525  0.2342
 1588TIP3   OH226254   4.536   4.568   1.181 -0.3666 -0.1094 -0.6140
 1588TIP3    H126255   4.615   4.580   1.235 -1.5339 -0.3921  1.2260
 1588TIP3    H226256   4.497   4.488   1.214 -0.5674 -0.9315 -2.6818
 1589TIP3   OH226257   2.850   0.912   5.782  0.1497  0.6800  0.3647
 1589TIP3    H126258   2.921   0.849   5.768  0.5656  1.3197 -0.5136
 1589TIP3    H226259   2.867   0.949   5.868 -0.0923 -0.3949  0.8837
 1590TIP3   OH226260   1.722   0.755   1.464  0.3383 -0.5983  0.9207
 1590TIP3    H126261   1.701   0.791   1.378 -2.8658 -1.0564  1.3850
 1590TIP3    H226262   1.758   0.668   1.446 -2.6932 -1.7729 -0.0117
 1591TIP3   OH226263   4.870   1.740   2.028 -0.0383  0.1274  0.3707
 1591TIP3    H126264   4.873   1.799   1.952  1.0172 -1.0010 -0.5194
 1591TIP3    H226265   4.894   1.795   2.102  0.8718  0.8448 -0.4282
 1592TIP3   OH226266   3.771   2.535  15.935  0.2205 -0.1483 -0.0899
 1592TIP3    H126267   3.692   2.583  15.910 -1.5766 -2.8678 -0.0768
 1592TIP3    H226268   3.797   2.574  16.018 -2.1255 -0.2140  0.7470
 1593TIP3   OH226269   1.087   3.430   1.649  0.2255 -0.5145  0.0522
 1593TIP3    H126270   1.100   3.463   1.561 -2.2258 -1.3454 -0.7100
 1593TIP3    H226271   1.161   3.371   1.664  2.0224  1.5001 -0.4096
 1594TIP3   OH226272   1.226   1.078  16.233 -0.2870  0.3967  0.1444
 1594TIP3    H126273   1.160   1.093  16.300 -0.3156 -0.3277  0.2831
 1594TIP3    H226274   1.244   0.984  16.237  0.8813  0.6094  0.2301
 1595TIP3   OH226275   6.515   1.343  16.389  0.0820 -0.4088 -0.1449
 1595TIP3    H126276   6.551   1.256  16.373  0.3215 -0.4918  0.8009
 1595TIP3    H226277   6.534   1.392  16.309  0.7138 -0.9656 -0.3436
 1596TIP3   OH226278   0.270   5.775   1.500  0.2848 -0.1619  0.1524
 1596TIP3    H126279   0.212   5.707   1.466  0.1041 -0.4449  1.0029
 1596TIP3    H226280   0.242   5.855   1.456  0.5784 -0.6444 -0.9613
 1597TIP3   OH226281   2.665   5.431   1.904  0.2534  0.0825 -0.1807
 1597TIP3    H126282   2.614   5.377   1.844  1.1522 -1.0038 -0.0064
 1597TIP3    H226283   2.621   5.516   1.904 -2.1924 -1.1066  0.7939
 1598TIP3   OH226284   6.602   4.347   5.518  0.2564 -0.0343 -0.9634
 1598TIP3    H126285   6.571   4.362   5.607  1.8491 -2.8311  0.1801
 1598TIP3    H226286   6.528   4.374   5.463 -1.2348  0.6750  1.2347
 1599TIP3   OH226287   6.756   4.664  16.251  0.1256 -0.4998 -0.7394
 1599TIP3    H126288   6.836   4.716  16.262 -0.3787  0.5345 -1.6991
 1599TIP3    H226289   6.688   4.729  16.231 -0.8772 -1.3939 -0.3032
 1600TIP3   OH226290   4.567   5.884  13.299  0.1244 -0.0926  0.0030
 1600TIP3    H126291   4.513   5.823  13.348 -2.3422  1.5459 -0.4668
 1600TIP3    H226292   4.545   5.867  13.207  0.6615  0.3977 -0.2230
 1601TIP3   OH226293   1.063   0.161   1.910 -0.0548 -0.8064 -0.8307
 1601TIP3    H126294   1.035   0.130   1.824 -3.3187  0.2283 -0.2784
 1601TIP3    H226295   1.011   0.109   1.972  2.1574 -1.4702  0.5985
 1602TIP3   OH226296   0.006   4.989   1.243  0.0962  0.4567 -0.2861
 1602TIP3    H126297  -0.067   5.038   1.281 -0.3258 -0.2758 -0.1324
 1602TIP3    H226298   0.001   4.903   1.284  1.1387  0.4463 -0.1757
 1603TIP3   OH226299   6.184   4.252  14.764 -0.3789  0.7838  0.4879
 1603TIP3    H126300   6.189   4.179  14.702  0.4186 -0.7507  2.2461
 1603TIP3    H226301   6.260   4.306  14.743  0.2352 -0.0520  0.5000
 1604TIP3   OH226302   1.044   6.679   0.860 -0.5992 -0.1213  0.0796
 1604TIP3    H126303   0.965   6.625   0.855 -1.9450  1.8398 -1.3911
 1604TIP3    H226304   1.038   6.737   0.784  0.8576  1.9394  1.4271
 1605TIP3   OH226305   5.531   6.395  13.257  0.0548  0.1977  0.7398
 1605TIP3    H126306   5.565   6.421  13.171  0.4568  0.1169  0.8722
 1605TIP3    H226307   5.448   6.443  13.266 -0.0037  0.1851  0.2962
 1606TIP3   OH226308   4.479   4.235   2.468 -0.0245 -0.0209  0.3264
 1606TIP3    H126309   4.485   4.281   2.384 -0.4294  0.4749  0.5581
 1606TIP3    H226310   4.569   4.215   2.492  0.1149  0.1433 -0.0612
 1607TIP3   OH226311   5.854   0.110  12.761  0.4632  0.4212 -0.2683
 1607TIP3    H126312   5.788   0.070  12.818  0.2398 -1.3408 -1.6748
 1607TIP3    H226313   5.915   0.039  12.741  0.1421  0.7347 -2.7609
 1608TIP3   OH226314   0.027   3.527  13.764 -0.3957 -0.2291 -0.2271
 1608TIP3    H126315   0.066   3.473  13.696  0.2513  0.4513 -0.4127
 1608TIP3    H226316  -0.025   3.466  13.817  0.9229 -1.1728  0.0360
 1609TIP3   OH226317   2.868   5.912   5.512  0.8956  0.1077 -0.1120
 1609TIP3    H126318   2.803   5.981   5.527  1.7949  0.9261  0.1245
 1609TIP3    H226319   2.948   5.959   5.490  1.0711 -0.9125 -1.8548
 1610TIP3   OH226320   0.566   3.930   0.089  0.1295  0.2251 -0.2956
 1610TIP3    H126321   0.473   3.942   0.106 -0.0722  1.6687 -2.0891
 1610TIP3    H226322   0.579   3.835   0.088 -1.3985 -0.0011 -0.3495
 1611TIP3   OH226323   3.076   0.002  16.726  0.2821 -0.1832  0.2299
 1611TIP3    H126324   3.106   0.036  16.810  0.6715 -0.7764  0.3332
 1611TIP3    H226325   2.985   0.029  16.721 -0.2542 -1.5724  1.6102
 1612TIP3   OH226326   0.035   0.285  10.654 -0.4933 -0.0063  0.1163
 1612TIP3    H126327   0.003   0.223  10.589 -2.1508  1.1620 -0.2497
 1612TIP3    H226328   0.046   0.367  10.606 -0.2444  0.4870  0.9781
 1613TIP3   OH226329   2.212   5.079   2.088 -0.0283  0.2651  0.2143
 1613TIP3    H126330   2.266   5.157   2.097 -1.3814  1.2191  0.3401
 1613TIP3    H226331   2.171   5.067   2.174  0.7333 -1.0280  0.4154
 1614TIP3   OH226332   3.181   4.916  12.128  0.5891 -0.2815 -0.0750
 1614TIP3    H126333   3.271   4.933  12.155  0.3124  0.2910  0.5217
 1614TIP3    H226334   3.173   4.957  12.042 -0.0838  2.8072  1.3555
 1615TIP3   OH226335   1.555   1.923  14.502 -0.6325  1.0386  0.6926
 1615TIP3    H126336   1.621   1.862  14.535 -1.2932 -0.0480  0.0656
 1615TIP3    H226337   1.474   1.873  14.502 -1.5103  2.3872  1.5686
 1616TIP3   OH226338   5.548   0.905   1.465  0.2340  0.3546  0.5202
 1616TIP3    H126339   5.558   0.990   1.422 -1.7080  1.1812  1.5826
 1616TIP3    H226340   5.516   0.847   1.396 -1.2975  1.2597  0.4257
 1617TIP3   OH226341   4.222   5.456  11.579  0.4123 -0.5979  0.1770
 1617TIP3    H126342   4.157   5.387  11.591 -0.0500 -0.1297  0.3599
 1617TIP3    H226343   4.252   5.445  11.488 -2.1127  1.0396 -0.9729
 1618TIP3   OH226344   6.380   3.131  16.354  0.0188  0.4450  0.0728
 1618TIP3    H126345   6.469   3.166  16.353 -1.0120  3.3460 -0.4682
 1618TIP3    H226346   6.342   3.163  16.436 -0.5294 -0.8340  0.3513
 1619TIP3   OH226347   3.331   5.639   2.205  0.2544  0.6642  0.5957
 1619TIP3    H126348   3.384   5.571   2.248 -0.1465 -0.3229 -0.4064
 1619TIP3    H226349   3.317   5.705   2.273  1.3554  0.1455  1.3652
 1620TIP3   OH226350   0.107   1.726  16.944 -0.3515 -0.6534 -0.2646
 1620TIP3    H126351   0.052   1.737  17.022  1.0564  2.8960  0.4195
 1620TIP3    H226352   0.056   1.766  16.873  0.8360  1.8827  0.2072
 1621TIP3   OH226353   0.178   0.856  12.722 -0.3296 -0.1456  0.4531
 1621TIP3    H126354   0.269   0.831  12.710 -0.0493  0.8720  0.4074
 1621TIP3    H226355   0.145   0.874  12.634 -0.8215 -1.2573  0.3785
 1622TIP3   OH226356   1.537   6.801  11.848 -0.1025  0.0318  0.4189
 1622TIP3    H126357   1.605   6.859  11.813  1.3856 -2.0782 -0.3574
 1622TIP3    H226358   1.585   6.724  11.878 -1.9897 -0.7055  1.7052
 1623TIP3   OH226359   3.233   5.260   4.537 -0.0601 -0.3565 -0.4478
 1623TIP3    H126360   3.220   5.354   4.541  1.9519 -0.0033 -1.1075
 1623TIP3    H226361   3.182   5.231   4.461  1.6009  0.6915 -2.0249
 1624TIP3   OH226362   4.153   2.614  11.380  0.3807  0.2511 -0.1599
 1624TIP3    H126363   4.087   2.681  11.395  1.7060  1.3523  1.0399
 1624TIP3    H226364   4.197   2.642  11.299  0.1794  0.1659 -0.3021
 1625TIP3   OH226365   3.008   6.810  15.365  0.5557  0.8041  0.4054
 1625TIP3    H126366   3.078   6.792  15.428  1.8873  4.0424  0.0526
 1625TIP3    H226367   2.940   6.853  15.417  0.4301  0.9732  0.0977
 1626TIP3   OH226368   5.269   3.715  12.603 -0.1913 -0.3253  0.3342
 1626TIP3    H126369   5.342   3.669  12.642  0.1483  0.6154  0.8498
 1626TIP3    H226370   5.307   3.797  12.569 -0.7740 -0.3890 -0.5216
 1627TIP3   OH226371   0.677   5.088  12.548  0.6320  0.1999  0.6376
 1627TIP3    H126372   0.612   5.020  12.564 -0.3574  0.7168 -0.9998
 1627TIP3    H226373   0.746   5.045  12.498  1.0931 -0.0983  1.5000
 1628TIP3   OH226374   2.264   0.457  14.915  0.5244  0.2842  0.2988
 1628TIP3    H126375   2.202   0.487  14.980  0.8997  2.1901 -0.1666
 1628TIP3    H226376   2.289   0.536  14.867 -0.4490 -1.1203 -2.8087
 1629TIP3   OH226377   0.722   1.734   2.649  0.4161 -0.6860 -0.1311
 1629TIP3    H126378   0.779   1.718   2.573  0.6884 -1.7467  0.2859
 1629TIP3    H226379   0.729   1.655   2.702 -0.0685 -0.1087  0.8237
 1630TIP3   OH226380   5.860   0.592  12.522  0.0088  0.2666 -0.1392
 1630TIP3    H126381   5.828   0.530  12.457  1.2141 -0.1110 -0.3874
 1630TIP3    H226382   5.848   0.547  12.606 -2.2082  1.0285  0.0269
 1631TIP3   OH226383   6.167   2.364   3.441 -0.0972  0.5268 -0.1175
 1631TIP3    H126384   6.218   2.336   3.517  1.5531  0.3396 -1.2459
 1631TIP3    H226385   6.161   2.459   3.449 -1.2792  0.3807  1.0289
 1632TIP3   OH226386   2.476   3.341  11.733 -0.3148  0.1471  0.4143
 1632TIP3    H126387   2.442   3.391  11.808  2.2965 -1.0551  2.5944
 1632TIP3    H226388   2.443   3.253  11.746 -0.6153  0.1345 -0.4137
 1633TIP3   OH226389   4.542   3.763  11.504  0.3789  0.4976 -1.2124
 1633TIP3    H126390   4.572   3.831  11.443  2.0677  1.1211  0.2135
 1633TIP3    H226391   4.566   3.681  11.461 -0.0353  0.8535 -2.1516
 1634TIP3   OH226392   0.105   3.586  12.010  0.0977 -0.4929 -0.1455
 1634TIP3    H126393   0.133   3.663  12.059 -1.7741  0.1592 -0.0602
 1634TIP3    H226394   0.031   3.551  12.059 -0.1933 -1.3224 -1.1330
 1635TIP3   OH226395   5.646   0.221   5.524 -0.0235  0.0314  0.1813
 1635TIP3    H126396   5.638   0.315   5.542 -3.3344 -0.5505  2.7076
 1635TIP3    H226397   5.664   0.216   5.430  0.8489  3.1511  0.0672
 1636TIP3   OH226398   5.916   6.740   2.016 -0.3191  0.7473  0.0278
 1636TIP3    H126399   5.943   6.814   2.071 -2.7459  1.7707  0.0045
 1636TIP3    H226400   5.882   6.781   1.936  2.0512 -0.6542 -1.8120
 1637TIP3   OH226401   5.034   1.508   3.270  0.0158 -0.3620 -0.1274
 1637TIP3    H126402   4.976   1.549   3.334 -1.3112 -1.0030 -0.8776
 1637TIP3    H226403   5.016   1.415   3.278  1.6611 -0.6814  0.2714
 1638TIP3   OH226404   4.417   5.872  14.434  0.6160 -0.1385 -0.0928
 1638TIP3    H126405   4.416   5.967  14.423 -0.6344  0.0984  1.6426
 1638TIP3    H226406   4.509   5.851  14.449  0.9868  0.7038 -1.0581
 1639TIP3   OH226407   3.734   3.263  12.159  0.0713 -0.1133  0.6603
 1639TIP3    H126408   3.664   3.323  12.185 -0.5880 -0.1334 -0.9992
 1639TIP3    H226409   3.815   3.314  12.170 -0.3562  0.5730  0.6589
 1640TIP3   OH226410   2.790   5.736  14.846  0.4831 -0.5815 -0.4175
 1640TIP3    H126411   2.719   5.755  14.785  1.0294  2.1835 -0.3241
 1640TIP3    H226412   2.855   5.689  14.794 -1.1381 -2.7521 -0.6084
 1641TIP3   OH226413   5.721   2.199   6.192  0.2845 -0.4098  0.6402
 1641TIP3    H126414   5.799   2.205   6.135  0.8070  1.0815  1.4742
 1641TIP3    H226415   5.756   2.202   6.281 -0.7934  2.6644  1.0773
 1642TIP3   OH226416   4.749   6.755   0.605 -0.1308 -0.4022 -0.3970
 1642TIP3    H126417   4.781   6.821   0.544  1.9602 -0.9899 -0.0172
 1642TIP3    H226418   4.737   6.676   0.551  2.0943 -1.0339 -0.0765
 1643TIP3   OH226419   6.105   0.882   4.877  0.3781  0.3749 -0.5512
 1643TIP3    H126420   6.101   0.969   4.917 -0.1427  1.3160 -2.5026
 1643TIP3    H226421   6.019   0.844   4.891  1.0587 -0.5172  1.6240
 1644TIP3   OH226422   0.640   3.207  16.954  0.3514 -0.0214  0.1138
 1644TIP3    H126423   0.560   3.158  16.936  0.9308 -0.6940 -0.7099
 1644TIP3    H226424   0.612   3.298  16.962 -0.6403 -0.3810  0.9331
 1645TIP3   OH226425   2.887   1.176  15.116  0.1803  0.0419 -0.3226
 1645TIP3    H126426   2.894   1.081  15.104  0.7243  0.1317 -0.7627
 1645TIP3    H226427   2.975   1.209  15.098 -0.1686  0.7014 -0.8752
 1646TIP3   OH226428   2.551   3.377   5.029 -0.8385 -0.1562 -0.1219
 1646TIP3    H126429   2.547   3.407   5.120  0.8144 -1.7142  0.5376
 1646TIP3    H226430   2.541   3.456   4.977 -0.2399  1.0211  1.4583
 1647TIP3   OH226431   0.799   6.221  16.517  0.3032  0.4249 -0.3503
 1647TIP3    H126432   0.722   6.257  16.475 -0.9754 -1.5049  0.1970
 1647TIP3    H226433   0.791   6.247  16.609 -1.0564 -1.7207  0.2231
 1648TIP3   OH226434   6.821   3.859  14.391 -0.2267  0.7162  0.1231
 1648TIP3    H126435   6.840   3.902  14.308 -0.7160  0.8506  0.0795
 1648TIP3    H226436   6.782   3.775  14.367 -1.2224  1.1406  0.2127
 1649TIP3   OH226437   2.217   5.669   1.521  0.0185  0.5277 -0.2668
 1649TIP3    H126438   2.292   5.686   1.577  0.1466 -0.8986  0.0396
 1649TIP3    H226439   2.143   5.659   1.582  0.0687 -0.5424 -0.3540
 1650TIP3   OH226440   0.678   0.383   4.774 -0.3862  0.3086 -0.2382
 1650TIP3    H126441   0.674   0.478   4.774 -1.5922  0.2901 -1.7889
 1650TIP3    H226442   0.693   0.359   4.682 -1.4390 -1.0175 -0.0933
 1651TIP3   OH226443   3.163   5.268  17.097  0.3664 -0.0763 -0.8987
 1651TIP3    H126444   3.146   5.192  17.042  2.6473 -0.5567 -1.0448
 1651TIP3    H226445   3.251   5.296  17.072  0.5479  1.1175  0.9079
 1652TIP3   OH226446   2.469   5.705   0.059 -0.5015  0.2095  0.3736
 1652TIP3    H126447   2.415   5.679   0.134 -0.1237  1.3176  1.0512
 1652TIP3    H226448   2.520   5.779   0.090 -0.7245  1.0477 -1.1520
 1653TIP3   OH226449   3.485   3.132   0.552  0.3556  0.0581  0.7178
 1653TIP3    H126450   3.410   3.182   0.520  0.8689 -0.5868 -1.6795
 1653TIP3    H226451   3.475   3.045   0.512  1.6388 -0.4629  1.4749
 1654TIP3   OH226452   6.122   1.230   0.125  0.2468  0.0383  0.0402
 1654TIP3    H126453   6.096   1.149   0.170  0.2129  1.0421  1.9403
 1654TIP3    H226454   6.217   1.234   0.136  0.2093  0.4053  0.2623
 1655TIP3   OH226455   0.889   3.699   0.328 -0.2072  0.3277  0.3675
 1655TIP3    H126456   0.847   3.615   0.307 -0.2531  0.2197  0.8700
 1655TIP3    H226457   0.911   3.737   0.243 -1.0323  0.2374  0.1055
 1656TIP3   OH226458   4.306   4.644  12.013 -0.0897  0.0603 -0.0418
 1656TIP3    H126459   4.367   4.577  12.042 -0.7070 -1.3068 -1.7118
 1656TIP3    H226460   4.360   4.704  11.961  0.1126 -0.2789 -0.2275
 1657TIP3   OH226461   6.641   3.931   3.644 -0.1664 -0.1516  0.0569
 1657TIP3    H126462   6.567   3.991   3.649 -0.9935 -1.0605 -0.7169
 1657TIP3    H226463   6.646   3.906   3.552  0.9721 -0.2848  0.1349
 1658TIP3   OH226464   2.598   1.054  11.992  0.3926  0.7438  0.2019
 1658TIP3    H126465   2.692   1.070  11.992  0.5529 -0.1605  0.3769
 1658TIP3    H226466   2.559   1.141  11.979  1.2760  0.8941 -1.8372
 1659TIP3   OH226467   5.535   5.874  14.834 -0.2164 -0.8532  0.9633
 1659TIP3    H126468   5.626   5.903  14.844 -0.1916 -0.4582 -0.2022
 1659TIP3    H226469   5.533   5.832  14.748 -1.6486  1.3781 -0.1850
 1660TIP3   OH226470   5.452   5.496  15.793 -0.0593 -0.0087 -0.1693
 1660TIP3    H126471   5.438   5.407  15.825  0.7484  0.0736  0.4496
 1660TIP3    H226472   5.393   5.504  15.718  0.9635 -1.6069 -1.2192
 1661TIP3   OH226473   3.444   6.760   2.278 -0.2778  0.4072 -0.2572
 1661TIP3    H126474   3.393   6.841   2.277 -0.3321  0.4570  1.7140
 1661TIP3    H226475   3.418   6.717   2.360  2.5942  0.2797  0.6897
 1662TIP3   OH226476   4.317   5.113  12.853  0.4470  0.6016  0.1308
 1662TIP3    H126477   4.410   5.132  12.860  0.5563  0.1397 -0.0091
 1662TIP3    H226478   4.313   5.023  12.822 -0.0213 -0.1193  2.0752
 1663TIP3   OH226479   5.350   0.853   5.975  0.2432 -0.1759 -0.4916
 1663TIP3    H126480   5.376   0.772   5.933  1.6862  0.8551 -1.6775
 1663TIP3    H226481   5.409   0.863   6.049 -0.5104 -0.6209  0.1884
 1664TIP3   OH226482   4.347   0.204  14.227  0.0836 -0.0411  0.2500
 1664TIP3    H126483   4.393   0.222  14.309 -0.9937 -1.4827  1.2290
 1664TIP3    H226484   4.258   0.180  14.254 -0.6856  0.7192 -1.4426
 1665TIP3   OH226485   3.179   5.191   6.006  0.7564 -0.8103 -0.2673
 1665TIP3    H126486   3.164   5.234   6.090 -2.6036  0.0397 -1.1671
 1665TIP3    H226487   3.255   5.235   5.969  0.1130  1.2863  0.7865
 1666TIP3   OH226488   1.359   4.948  10.845  0.3128 -0.2367 -0.3657
 1666TIP3    H126489   1.408   4.941  10.763 -0.3190 -0.0861 -0.7616
 1666TIP3    H226490   1.418   4.993  10.906  0.8502 -0.5126 -0.6837
 1667TIP3   OH226491   4.785   2.541   5.437 -0.4575 -0.3967  0.2248
 1667TIP3    H126492   4.807   2.568   5.348 -0.6376  1.0003  0.5881
 1667TIP3    H226493   4.712   2.596   5.463 -0.4123 -0.7803  1.2477
 1668TIP3   OH226494   3.458   1.360  13.787  0.2671 -0.8121  0.6657
 1668TIP3    H126495   3.506   1.323  13.713  1.0032 -1.0311  1.2369
 1668TIP3    H226496   3.497   1.447  13.800 -0.8505 -0.1678 -0.1084
 1669TIP3   OH226497   5.198   3.798  11.010 -0.8971  0.4431 -0.7860
 1669TIP3    H126498   5.258   3.765  10.943  0.4293  1.6713 -0.2636
 1669TIP3    H226499   5.159   3.877  10.971  1.4675  2.4052  0.5338
 1670TIP3   OH226500   1.343   3.343   3.924 -0.2218  0.0815  0.5571
 1670TIP3    H126501   1.288   3.265   3.929 -1.4851  0.8518 -0.6509
 1670TIP3    H226502   1.366   3.350   3.831  0.2769  0.8836  0.7317
 1671TIP3   OH226503   6.572   4.532   2.652  0.2433  0.2484  0.3062
 1671TIP3    H126504   6.524   4.577   2.722 -0.5152  0.0961 -0.1042
 1671TIP3    H226505   6.564   4.590   2.576  0.3439  0.0210  0.1192
 1672TIP3   OH226506   1.888   4.134   4.944 -0.3769  0.0781 -0.7528
 1672TIP3    H126507   1.823   4.153   5.012  0.9521  0.8979  0.3346
 1672TIP3    H226508   1.933   4.056   4.976 -0.8640 -0.5290 -1.5366
 1673TIP3   OH226509   5.151   3.244   1.055 -0.1132 -0.2757  0.5184
 1673TIP3    H126510   5.223   3.214   1.111  1.0604 -2.9926 -2.1205
 1673TIP3    H226511   5.072   3.218   1.102  0.7797 -1.5608  1.3909
 1674TIP3   OH226512   3.979   3.252   3.728  0.7988  0.1589  0.6635
 1674TIP3    H126513   3.921   3.228   3.655  1.5532  0.4977 -0.0585
 1674TIP3    H226514   4.031   3.325   3.695  1.7582 -0.2411  1.2337
 1675TIP3   OH226515   1.106   4.678  13.444  0.2109  0.3876 -0.0160
 1675TIP3    H126516   1.071   4.707  13.360  0.4391  0.3034 -0.1416
 1675TIP3    H226517   1.182   4.733  13.459 -0.6423  1.3806  0.8271
 1676TIP3   OH226518   6.766   4.141   5.451  0.4050 -0.5444  0.3896
 1676TIP3    H126519   6.740   4.061   5.497 -0.9557 -1.1994 -1.3806
 1676TIP3    H226520   6.725   4.212   5.500 -1.5167 -1.2650 -0.0997
 1677TIP3   OH226521   3.855   0.365  11.626 -0.0384  0.6209  0.4438
 1677TIP3    H126522   3.855   0.453  11.588  0.9084 -0.6481 -2.8342
 1677TIP3    H226523   3.941   0.330  11.606 -1.8656 -2.6732 -2.7598
 1678TIP3   OH226524   4.670   2.481  13.398 -0.3687  0.2604 -0.2666
 1678TIP3    H126525   4.649   2.511  13.487  0.0008  1.8941 -0.7011
 1678TIP3    H226526   4.765   2.491  13.391 -0.0288 -2.1603 -0.0727
 1679TIP3   OH226527   0.848   6.727  14.560  0.0131  0.3460  0.0199
 1679TIP3    H126528   0.761   6.754  14.589 -0.6121 -0.6107 -0.9089
 1679TIP3    H226529   0.899   6.719  14.640 -1.0236  0.0014  0.6592
 1680TIP3   OH226530   6.138   4.617  15.061  0.2169 -0.1491  0.0307
 1680TIP3    H126531   6.213   4.677  15.060 -1.0328  1.4982  0.9824
 1680TIP3    H226532   6.162   4.552  15.128  1.2523 -0.2944 -0.4550
 1681TIP3   OH226533   2.163   4.158  14.916  0.0978  0.1624  0.0083
 1681TIP3    H126534   2.172   4.186  15.007 -0.8937 -0.3950  0.2830
 1681TIP3    H226535   2.096   4.090  14.918  1.8545 -1.6893 -0.7517
 1682TIP3   OH226536   3.852   0.995   3.915 -0.3540  0.3519  0.6353
 1682TIP3    H126537   3.815   0.962   3.832 -0.0230  1.4008  0.0517
 1682TIP3    H226538   3.944   0.971   3.911 -0.6824 -1.1863  1.5403
 1683TIP3   OH226539   0.984   3.742  16.190 -0.1150 -0.3141  0.1377
 1683TIP3    H126540   0.907   3.758  16.245  0.6679  1.6624  0.7536
 1683TIP3    H226541   1.016   3.830  16.168  1.4273 -1.0883 -0.8816
 1684TIP3   OH226542   2.225   1.592  14.047  0.0268  0.3799  0.0330
 1684TIP3    H126543   2.298   1.625  13.993 -0.1596 -0.7607 -0.9463
 1684TIP3    H226544   2.147   1.609  13.994 -0.0859 -1.4512 -0.4407
 1685TIP3   OH226545   0.129   3.822  12.164  0.0958 -0.4848 -0.5909
 1685TIP3    H126546   0.163   3.912  12.169  0.0339 -0.5008  0.1530
 1685TIP3    H226547   0.160   3.780  12.243 -1.8325 -0.4424  0.2405
 1686TIP3   OH226548   3.155   1.640   2.560 -0.1653 -0.0564  0.9536
 1686TIP3    H126549   3.076   1.643   2.506  0.4862 -0.3523 -0.0360
 1686TIP3    H226550   3.153   1.722   2.610 -1.4699 -0.3944  1.5054
 1687TIP3   OH226551   1.406   3.548   0.556 -0.0462 -0.6200 -0.3863
 1687TIP3    H126552   1.336   3.582   0.501  0.8098  2.6733  0.3682
 1687TIP3    H226553   1.362   3.515   0.634 -0.8021  1.2938  0.0240
 1688TIP3   OH226554   1.673   1.076   0.013  1.1078  0.0919 -0.2660
 1688TIP3    H126555   1.764   1.079  -0.016  1.3233  2.0429  0.4653
 1688TIP3    H226556   1.622   1.058  -0.066  2.0041  0.6749 -0.9823
 1689TIP3   OH226557   4.143   6.735   3.277  0.0694 -0.4710 -0.8017
 1689TIP3    H126558   4.180   6.777   3.199  1.5804 -0.1581  0.0397
 1689TIP3    H226559   4.180   6.647   3.278  0.0387 -0.4833 -0.4515
 1690TIP3   OH226560   1.275   0.922   0.296  0.2832  0.2029  0.0948
 1690TIP3    H126561   1.356   0.909   0.247 -0.3483 -0.2660 -0.8414
 1690TIP3    H226562   1.270   1.016   0.310  1.0902  0.2156  0.3503
 1691TIP3   OH226563   3.668   0.990   3.682  0.4711 -0.0431  0.1819
 1691TIP3    H126564   3.691   0.975   3.590 -0.0943 -1.3726  0.2269
 1691TIP3    H226565   3.641   1.081   3.686 -0.5812 -0.2623 -1.2190
 1692TIP3   OH226566   3.032   6.328   1.610  0.4601 -0.0569 -0.0422
 1692TIP3    H126567   2.950   6.373   1.589  0.9463  1.3653  0.9711
 1692TIP3    H226568   3.087   6.395   1.651  1.8713 -1.1609 -0.0390
 1693TIP3   OH226569   1.963   5.086  16.423  0.8099 -0.2887  0.7223
 1693TIP3    H126570   1.950   5.133  16.341 -0.8162  2.1155  2.2557
 1693TIP3    H226571   2.057   5.095  16.441  1.1401 -0.6372 -0.6864
 1694TIP3   OH226572   1.848   4.795   5.476 -0.1705  0.1627  0.2176
 1694TIP3    H126573   1.899   4.856   5.422 -0.6143 -0.8301 -1.3932
 1694TIP3    H226574   1.769   4.778   5.424 -0.3899 -1.1989  0.9650
 1695TIP3   OH226575   2.229   4.504   1.245 -0.0964 -0.2361 -0.2629
 1695TIP3    H126576   2.136   4.494   1.261  0.1653  0.6035  2.3256
 1695TIP3    H226577   2.257   4.421   1.207 -1.7068 -0.8635 -0.1273
 1696TIP3   OH226578   4.679   1.212   0.874 -0.3930 -0.0875  0.3339
 1696TIP3    H126579   4.638   1.281   0.822  0.0110 -0.3123 -0.2864
 1696TIP3    H226580   4.606   1.157   0.903 -0.4772 -1.1620 -1.7292
 1697TIP3   OH226581   3.549   2.780  10.850  0.7697 -0.4338 -0.4278
 1697TIP3    H126582   3.634   2.825  10.851  0.3398  0.4135  1.2019
 1697TIP3    H226583   3.497   2.829  10.786  1.5172 -1.0639 -1.5707
 1698TIP3   OH226584   0.783   2.641  15.309 -0.1071 -0.0523  0.1008
 1698TIP3    H126585   0.854   2.577  15.310  2.1403  2.1092 -2.9266
 1698TIP3    H226586   0.794   2.691  15.390  0.7329 -0.8194  0.4687
 1699TIP3   OH226587   1.343   2.934   4.416 -0.0266 -0.0872 -0.2213
 1699TIP3    H126588   1.376   3.021   4.436 -0.8279  0.2037 -0.1101
 1699TIP3    H226589   1.256   2.949   4.380 -0.4814 -0.8787  0.4892
 1700TIP3   OH226590   1.623   1.494  16.099  0.3129 -0.1866 -0.3748
 1700TIP3    H126591   1.607   1.582  16.064  2.2432 -0.3906 -1.9872
 1700TIP3    H226592   1.672   1.450  16.030 -0.8761 -2.6785  0.2544
 1701TIP3   OH226593   0.944   2.021   6.627 -0.1485 -0.0970  0.0048
 1701TIP3    H126594   0.981   1.949   6.577 -2.0837 -0.9543 -0.2815
 1701TIP3    H226595   0.904   1.980   6.703 -0.8844  0.7116  0.0736
 1702TIP3   OH226596   5.467   2.121  14.020 -0.0934 -0.3131 -0.2728
 1702TIP3    H126597   5.410   2.062  14.069  0.4042  0.5000  1.3437
 1702TIP3    H226598   5.458   2.206  14.064  2.0669 -0.0791 -0.1716
 1703TIP3   OH226599   6.024   0.005  13.684 -0.2406  0.0011 -0.1677
 1703TIP3    H126600   5.966  -0.067  13.659  0.3007  0.1994 -2.1719
 1703TIP3    H226601   6.108  -0.016  13.642  1.2682 -0.3533  2.7966
 1704TIP3   OH226602   5.570   6.449   5.078  0.6547  0.0160 -0.2627
 1704TIP3    H126603   5.552   6.517   5.013 -1.2718 -0.1110  0.0984
 1704TIP3    H226604   5.662   6.427   5.064  0.6394  0.9167 -2.0539
 1705TIP3   OH226605   5.833   0.971   0.114 -0.2249 -0.2088  0.1833
 1705TIP3    H126606   5.875   0.893   0.151  0.9945  0.3424  0.0243
 1705TIP3    H226607   5.855   0.967   0.021 -1.1035 -0.2537 -0.0251
 1706TIP3   OH226608   2.084   6.047   1.150 -0.2133 -0.9542  0.0616
 1706TIP3    H126609   2.012   6.105   1.126  0.3977 -0.7319 -1.3350
 1706TIP3    H226610   2.091   5.986   1.077 -0.4746 -2.4612  1.2434
 1707TIP3   OH226611   3.688   1.079  14.637  0.1000  0.0067 -0.0576
 1707TIP3    H126612   3.646   0.995  14.621  0.2548 -0.3225  1.1125
 1707TIP3    H226613   3.748   1.090  14.563 -1.0145 -0.1725 -1.0161
 1708TIP3   OH226614   2.611   3.453   4.429  0.7695 -0.2040 -0.0825
 1708TIP3    H126615   2.669   3.452   4.353 -0.0724 -1.8354 -0.7532
 1708TIP3    H226616   2.573   3.365   4.431  0.1890  0.0583  1.7864
 1709TIP3   OH226617   5.459   0.993  11.629  0.1654  0.1695 -0.2508
 1709TIP3    H126618   5.417   0.910  11.606  1.2154  0.1987 -2.5686
 1709TIP3    H226619   5.409   1.060  11.583  0.9080  0.5154 -0.5832
 1710TIP3   OH226620   5.283   0.718   5.473 -0.3221  0.2263  0.0566
 1710TIP3    H126621   5.375   0.737   5.455  0.2367 -2.0776  0.1541
 1710TIP3    H226622   5.268   0.753   5.561  0.8676 -0.5539  0.5893
 1711TIP3   OH226623   4.829   3.414   3.152  0.2197 -0.3700  0.6605
 1711TIP3    H126624   4.795   3.331   3.185 -2.5398  0.7224  0.8171
 1711TIP3    H226625   4.823   3.474   3.226  1.1837  0.2723  0.2532
 1712TIP3   OH226626   5.289   1.987   3.586  0.4498  0.4467 -0.3696
 1712TIP3    H126627   5.364   1.928   3.581 -0.1244 -0.5567  1.4999
 1712TIP3    H226628   5.280   2.023   3.498  1.6541 -1.2308 -1.2364
 1713TIP3   OH226629   3.899   5.962  15.832  0.2050 -0.1867 -0.6710
 1713TIP3    H126630   3.926   5.970  15.740 -1.0063 -1.6343 -1.1742
 1713TIP3    H226631   3.901   5.868  15.850 -2.3725 -0.2017 -0.1086
 1714TIP3   OH226632   6.490   5.344  16.727 -0.2058 -0.3041  0.2477
 1714TIP3    H126633   6.581   5.373  16.720  0.3842 -1.7909  1.3230
 1714TIP3    H226634   6.490   5.254  16.696 -0.8451 -1.0799  2.3270
 1715TIP3   OH226635   5.129   0.491   0.296  0.1064 -0.3018  0.1311
 1715TIP3    H126636   5.080   0.437   0.358 -1.5020  1.6929  0.6794
 1715TIP3    H226637   5.162   0.564   0.349 -0.2470  0.7883 -1.1083
 1716TIP3   OH226638   3.453   6.297   3.500  0.4393 -0.7246 -0.2446
 1716TIP3    H126639   3.361   6.319   3.514  0.8539  0.8259  0.2273
 1716TIP3    H226640   3.471   6.322   3.410  0.8021  0.5847  0.1658
 1717TIP3   OH226641   1.921   3.992  11.055  0.0327  0.1918  0.2899
 1717TIP3    H126642   2.015   3.995  11.073  0.3330 -3.5282  0.1584
 1717TIP3    H226643   1.914   3.960  10.965 -1.4240  2.0376 -0.3212
 1718TIP3   OH226644   3.162   3.672  17.059  0.4864  0.0284 -0.5118
 1718TIP3    H126645   3.161   3.740  17.126  0.0183 -0.2258 -0.2566
 1718TIP3    H226646   3.252   3.639  17.060  0.3729 -0.2891  0.3183
 1719TIP3   OH226647   6.140   1.427  15.023  0.0678  0.3007  0.8980
 1719TIP3    H126648   6.205   1.457  15.086  1.1814 -1.2730  0.5739
 1719TIP3    H226649   6.181   1.440  14.937 -0.2164 -0.2628  0.6667
 1720TIP3   OH226650   5.908   5.087   4.156 -0.0466  0.4578 -0.6980
 1720TIP3    H126651   5.998   5.056   4.151 -0.5741 -1.1621 -0.8601
 1720TIP3    H226652   5.899   5.120   4.245 -0.1410 -2.3807  0.4720
 1721TIP3   OH226653   1.423   3.195   3.243 -0.0642  0.0867  0.3918
 1721TIP3    H126654   1.407   3.289   3.239  1.1447  0.3343  1.1072
 1721TIP3    H226655   1.430   3.175   3.336 -0.5068 -0.7521  0.2545
 1722TIP3   OH226656   5.527   6.051  16.088 -0.1570  0.1369 -0.7921
 1722TIP3    H126657   5.457   5.990  16.066  0.7063 -1.5384  0.8096
 1722TIP3    H226658   5.546   6.033  16.180 -0.2473  3.2742 -0.0410
 1723TIP3   OH226659   1.498   5.460  15.717 -0.1005 -0.2694 -0.0957
 1723TIP3    H126660   1.453   5.376  15.732 -3.2939  1.3556  0.2769
 1723TIP3    H226661   1.464   5.518  15.785  0.9753  1.7291 -1.1757
 1724TIP3   OH226662   2.143   5.565   0.055 -0.6556 -0.3944  0.0622
 1724TIP3    H126663   2.137   5.609   0.139 -1.6724  0.8292 -0.6228
 1724TIP3    H226664   2.086   5.488   0.064 -0.5244 -0.4319  0.5856
 1725TIP3   OH226665   5.321   5.638  13.334 -0.1786 -0.8427 -0.1540
 1725TIP3    H126666   5.302   5.612  13.424  2.3808 -1.8170  0.1805
 1725TIP3    H226667   5.378   5.714  13.341  1.9420 -2.2782 -0.8004
 1726TIP3   OH226668   6.669   0.662  16.581  0.6708 -0.5624 -0.2234
 1726TIP3    H126669   6.640   0.672  16.490  0.5040 -1.6042 -0.2988
 1726TIP3    H226670   6.753   0.617  16.574  1.4243  0.7437  0.0853
 1727TIP3   OH226671   6.797   0.316  15.440  0.1472  0.1382 -0.1689
 1727TIP3    H126672   6.888   0.299  15.461 -0.3256 -0.6684  1.3944
 1727TIP3    H226673   6.768   0.380  15.505 -0.9219 -1.1555  0.6854
 1728TIP3   OH226674   2.043   6.537   4.034  0.1612  0.2952 -0.3835
 1728TIP3    H126675   2.039   6.478   4.109 -0.0058  0.2700 -0.4131
 1728TIP3    H226676   1.953   6.542   4.002  0.1437  0.6957 -0.2798
 1729TIP3   OH226677   4.359   4.518  16.459  0.5150 -0.0924  0.4133
 1729TIP3    H126678   4.270   4.487  16.443  0.4104 -0.0608  0.9151
 1729TIP3    H226679   4.354   4.559  16.545  1.4763 -1.8892  1.3703
 1730TIP3   OH226680   0.323   3.893  12.678  0.2381 -0.1184  0.3448
 1730TIP3    H126681   0.386   3.867  12.611  2.3073  0.2690  2.0171
 1730TIP3    H226682   0.299   3.982  12.655 -2.7313 -1.4258 -2.3871
 1731TIP3   OH226683   4.340   3.766  10.961 -0.5949 -0.1102 -0.1812
 1731TIP3    H126684   4.258   3.718  10.975 -1.4709  1.3932  0.1458
 1731TIP3    H226685   4.314   3.841  10.907  1.0868 -1.0051 -2.3919
 1732TIP3   OH226686   4.372   4.354  14.730  0.2371  0.2493  0.1097
 1732TIP3    H126687   4.357   4.267  14.694  1.1145  0.2693 -0.3342
 1732TIP3    H226688   4.451   4.345  14.784  0.5783  0.8616 -0.2789
 1733TIP3   OH226689   4.801   1.085   4.880  0.1156  0.0116 -0.3853
 1733TIP3    H126690   4.876   1.039   4.844  0.4583  2.2117 -2.7793
 1733TIP3    H226691   4.836   1.169   4.910 -1.2791  1.0335 -1.4446
 1734TIP3   OH226692   3.985   4.401  12.110 -0.2930  0.3682 -0.3035
 1734TIP3    H126693   3.908   4.389  12.055 -0.3673  0.1363 -0.1520
 1734TIP3    H226694   4.042   4.459  12.059 -0.6834  0.7650 -0.2954
 1735TIP3   OH226695   3.121   4.507   2.680  0.1613 -0.1509 -0.2657
 1735TIP3    H126696   3.107   4.576   2.745 -1.3283  0.6936 -1.4230
 1735TIP3    H226697   3.045   4.449   2.690  1.5519 -1.8739  0.9208
 1736TIP3   OH226698   3.152   5.464  15.555 -0.5995 -0.2306  0.0659
 1736TIP3    H126699   3.090   5.497  15.490  0.7458  0.6714 -0.7874
 1736TIP3    H226700   3.213   5.410  15.506 -0.4203 -0.7481  0.8275
 1737TIP3   OH226701   5.235   1.635  16.844  0.5372  0.3795 -0.2235
 1737TIP3    H126702   5.218   1.671  16.757 -0.8022  1.9490  0.6248
 1737TIP3    H226703   5.151   1.598  16.871  0.1183  2.3915  1.4666
 1738TIP3   OH226704   5.853   2.008  16.898 -0.3769 -0.2031  0.1851
 1738TIP3    H126705   5.818   2.091  16.865  0.0760 -0.3967 -0.8375
 1738TIP3    H226706   5.778   1.964  16.938 -1.1738 -0.3074 -1.3374
 1739TIP3   OH226707   0.674   6.419   0.152 -0.0065 -0.3047 -0.1493
 1739TIP3    H126708   0.714   6.354   0.210 -3.0405 -1.1024  1.2408
 1739TIP3    H226709   0.597   6.450   0.200 -0.7513  1.5738 -2.3712
 1740TIP3   OH226710   6.166   1.407   3.851 -0.4731 -0.2258  0.0705
 1740TIP3    H126711   6.118   1.372   3.926  2.5269 -0.0494  2.2942
 1740TIP3    H226712   6.102   1.410   3.780 -2.9805 -2.3306  2.0399
 1741TIP3   OH226713   5.053   6.481   6.134 -0.2233 -0.0595 -0.0279
 1741TIP3    H126714   4.964   6.450   6.152 -0.5853  0.0454 -1.4991
 1741TIP3    H226715   5.063   6.470   6.039  0.9792  0.8549 -0.0274
 1742TIP3   OH226716   1.201   6.364   6.711 -0.1710  0.1332  0.1458
 1742TIP3    H126717   1.263   6.343   6.781 -0.1968  0.6100  0.3173
 1742TIP3    H226718   1.224   6.453   6.685 -0.8748  0.3679  0.3094
 1743TIP3   OH226719   6.068   1.943  12.950  0.1008  0.4151  0.0669
 1743TIP3    H126720   6.132   1.893  13.002  0.7937  0.9507 -0.2530
 1743TIP3    H226721   6.080   2.034  12.979  2.4918  1.1958 -2.9545
 1744TIP3   OH226722   4.009   1.583  17.008 -0.2916 -0.6254  0.0473
 1744TIP3    H126723   4.095   1.626  17.013 -0.2073 -0.8573  0.7861
 1744TIP3    H226724   3.947   1.655  16.998 -0.1339 -0.3157  1.0818
 1745TIP3   OH226725   2.068   4.209  13.426 -0.4292  0.3005  0.3091
 1745TIP3    H126726   2.005   4.145  13.457  1.1488 -1.6210 -0.1972
 1745TIP3    H226727   2.063   4.203  13.330  0.6782 -0.0949  0.2613
 1746TIP3   OH226728   3.075   1.120   2.243 -0.1208  0.0353 -0.3409
 1746TIP3    H126729   3.057   1.200   2.292  2.4202  0.4862 -0.0009
 1746TIP3    H226730   3.134   1.070   2.300 -0.2743 -1.2782 -1.2883
 1747TIP3   OH226731   6.789   1.019   0.346 -0.3026 -0.2845 -0.1314
 1747TIP3    H126732   6.795   1.041   0.439  1.4481  0.5143 -0.4011
 1747TIP3    H226733   6.791   1.103   0.301  1.5572 -0.7165 -0.9704
 1748TIP3   OH226734   1.968   1.786  12.589  0.1530  0.0704 -0.4848
 1748TIP3    H126735   1.944   1.808  12.499  0.3407  0.8648 -0.3501
 1748TIP3    H226736   2.046   1.839  12.607 -0.1440  0.2621  0.2873
 1749TIP3   OH226737   2.139   3.948  13.910  0.4082 -0.5515  0.0186
 1749TIP3    H126738   2.192   3.928  13.833 -0.0675  0.7390 -0.6679
 1749TIP3    H226739   2.159   3.877  13.971  0.6760 -1.7039 -1.3371
 1750TIP3   OH226740   6.013   3.551  13.110  0.2937 -0.1395  0.3749
 1750TIP3    H126741   5.998   3.554  13.205  0.1542 -0.2957  0.3594
 1750TIP3    H226742   5.934   3.588  13.072  0.0495 -0.7211  0.3004
 1751TIP3   OH226743   4.566   4.057   1.207 -0.3282 -0.1248  0.4552
 1751TIP3    H126744   4.643   4.011   1.174 -0.2605 -0.6786  1.3675
 1751TIP3    H226745   4.593   4.091   1.293 -0.8207  0.4407  0.3953
 1752TIP3   OH226746   5.564   6.103   2.029 -0.1059 -0.2922  0.6472
 1752TIP3    H126747   5.614   6.084   1.950 -0.2457 -1.2137  0.7674
 1752TIP3    H226748   5.495   6.036   2.031  0.5520 -0.9766  2.1102
 1753TIP3   OH226749   4.883   3.468  12.611  0.1596  0.0180  0.0164
 1753TIP3    H126750   4.875   3.456  12.706  1.3594 -0.0414  0.1202
 1753TIP3    H226751   4.848   3.387  12.574  0.2411 -0.2108  0.4324
 1754TIP3   OH226752   1.327   1.452  14.850  0.5405 -0.1539 -0.6912
 1754TIP3    H126753   1.289   1.464  14.937  1.0540  1.0416 -0.6185
 1754TIP3    H226754   1.386   1.377  14.861  3.0339  1.8686  0.8667
 1755TIP3   OH226755   0.516   0.510  13.728  0.3781 -0.4826  0.1910
 1755TIP3    H126756   0.592   0.458  13.753  1.4461  0.6005 -0.6702
 1755TIP3    H226757   0.452   0.492  13.796  0.8852 -2.4861  0.2015
 1756TIP3   OH226758   6.282   1.132  14.705  0.3018  0.1435 -0.4031
 1756TIP3    H126759   6.364   1.125  14.656 -0.2995 -0.3413 -1.3594
 1756TIP3    H226760   6.214   1.117  14.640 -0.5255 -0.1657  0.5211
 1757TIP3   OH226761   0.368   2.767   1.857 -0.4218 -0.0327  0.0263
 1757TIP3    H126762   0.395   2.691   1.805  2.3324  0.5138  0.4832
 1757TIP3    H226763   0.283   2.793   1.820  1.3406  0.3908 -4.3509
 1758TIP3   OH226764   0.283   2.047   4.333  0.1258  0.4465  0.2195
 1758TIP3    H126765   0.228   2.029   4.410  0.3644  0.4601  0.3915
 1758TIP3    H226766   0.372   2.029   4.362  0.0384 -1.7398 -0.6713
 1759TIP3   OH226767   4.917   3.731   4.690  0.2349 -0.0400 -0.5485
 1759TIP3    H126768   4.829   3.751   4.658 -0.3155 -1.7620 -0.2287
 1759TIP3    H226769   4.951   3.666   4.628 -0.2266 -2.2187  1.3358
 1760TIP3   OH226770   0.976   4.095  11.218  0.4202 -0.6279  0.0627
 1760TIP3    H126771   0.980   4.137  11.304  0.0534 -1.0037  0.2662
 1760TIP3    H226772   1.047   4.031  11.220  0.2115 -0.8596  0.2119
 1761TIP3   OH226773   2.501   6.332   2.665 -0.3015 -0.2087 -0.5299
 1761TIP3    H126774   2.414   6.293   2.658 -0.2956 -0.3247 -0.0010
 1761TIP3    H226775   2.555   6.282   2.603 -0.9212  0.8124 -1.9547
 1762TIP3   OH226776   5.900   2.897  14.448 -0.2418  0.0143 -0.3134
 1762TIP3    H126777   5.807   2.909  14.428 -0.1052  2.1314  0.0910
 1762TIP3    H226778   5.911   2.936  14.534  0.3162 -3.8453  1.5704
 1763TIP3   OH226779   2.495   1.295  14.635  0.0138  0.0858 -0.5139
 1763TIP3    H126780   2.491   1.240  14.713 -0.9256 -0.1557 -0.7200
 1763TIP3    H226781   2.562   1.361  14.655 -0.5623  0.3323  0.6887
 1764TIP3   OH226782   3.880   1.774  15.709  0.2981  0.6312 -0.6392
 1764TIP3    H126783   3.937   1.738  15.642  1.1610  1.8162 -0.5781
 1764TIP3    H226784   3.936   1.832  15.761 -1.2547  3.2194 -1.6274
 1765TIP3   OH226785   3.218   3.218  11.639 -0.3065  0.3084 -0.4403
 1765TIP3    H126786   3.146   3.246  11.582 -0.7225  0.0320 -0.0609
 1765TIP3    H226787   3.174   3.186  11.718  0.1547 -1.3069 -0.8040
 1766TIP3   OH226788   6.777   6.762  14.743 -0.2541 -0.3075  0.4608
 1766TIP3    H126789   6.860   6.800  14.716 -0.5478  0.2064  0.2484
 1766TIP3    H226790   6.711   6.818  14.702 -0.7038 -1.1220  0.0391
 1767TIP3   OH226791   6.457   4.303  15.637 -0.1362 -0.0409  0.0385
 1767TIP3    H126792   6.395   4.284  15.566 -0.6777 -0.8002  0.6911
 1767TIP3    H226793   6.404   4.299  15.716  0.0866  2.5626  0.4043
 1768TIP3   OH226794   4.841   3.414  13.807  0.2614 -0.0189  0.4206
 1768TIP3    H126795   4.925   3.412  13.760 -0.8033 -1.0139 -1.6178
 1768TIP3    H226796   4.792   3.485  13.766 -0.6084 -0.7607  0.1153
 1769TIP3   OH226797   5.334   5.877  14.197 -0.1527  0.4033  0.5488
 1769TIP3    H126798   5.287   5.811  14.248 -0.4293  0.6625  0.6303
 1769TIP3    H226799   5.389   5.922  14.261 -0.2642  0.5172  0.5656
 1770TIP3   OH226800   1.098   6.105  16.849  0.2633 -0.0184  0.2414
 1770TIP3    H126801   1.005   6.102  16.872 -0.2061  1.0166 -1.3676
 1770TIP3    H226802   1.143   6.073  16.927 -1.4299 -0.3516  1.1239
 1771TIP3   OH226803   5.313   5.477   2.674  0.5074 -0.8465 -0.6411
 1771TIP3    H126804   5.373   5.520   2.734  1.5874 -1.0589 -1.5306
 1771TIP3    H226805   5.304   5.537   2.600 -2.1701  0.2087  0.4117
 1772TIP3   OH226806   4.001   1.513  15.706  0.0454 -0.1873  0.8988
 1772TIP3    H126807   4.060   1.457  15.656 -0.5828  0.5137 -0.6823
 1772TIP3    H226808   3.939   1.453  15.747  0.0948 -0.7306  0.1859
 1773TIP3   OH226809   0.837   1.134  11.700 -0.1685 -0.1167  0.1731
 1773TIP3    H126810   0.752   1.152  11.741  1.0945  3.2849  1.6584
 1773TIP3    H226811   0.864   1.050  11.737 -1.5479  0.1991  2.0350
 1774TIP3   OH226812   4.076   5.216  14.924 -0.2504 -1.0291  0.1356
 1774TIP3    H126813   3.982   5.197  14.913 -0.4341 -0.1503  0.0735
 1774TIP3    H226814   4.113   5.136  14.960 -0.8166 -1.7934 -0.9343
 1775TIP3   OH226815   3.595   3.660   6.249  0.4695  0.1938  0.0057
 1775TIP3    H126816   3.559   3.571   6.257  1.2907 -0.4166 -2.1189
 1775TIP3    H226817   3.687   3.651   6.275  0.0770  0.9028  1.7401
 1776TIP3   OH226818   3.781   4.635   2.323 -0.0895 -0.0220 -0.4480
 1776TIP3    H126819   3.849   4.684   2.277  0.3584 -0.3103 -0.1069
 1776TIP3    H226820   3.773   4.553   2.274 -0.4428  0.1598 -0.6945
 1777TIP3   OH226821   5.401   0.538   3.535  0.4971 -0.0855  0.1053
 1777TIP3    H126822   5.321   0.580   3.503  0.8307 -0.2683 -1.0261
 1777TIP3    H226823   5.369   0.468   3.592 -0.0995  0.7406  0.8132
 1778TIP3   OH226824   3.110   4.063   2.422 -0.3609  0.0170  0.2846
 1778TIP3    H126825   3.124   4.150   2.383 -2.5623 -0.1267 -0.9854
 1778TIP3    H226826   3.073   4.081   2.508 -1.6347  0.3854 -0.3165
 1779TIP3   OH226827   2.705   1.490  15.956  0.2928  0.5782 -0.1509
 1779TIP3    H126828   2.721   1.419  16.018  1.1620  0.9063  0.0210
 1779TIP3    H226829   2.669   1.447  15.879 -0.4077  0.1116  0.4186
 1780TIP3   OH226830   0.392   6.779   0.115 -0.9015 -0.1404  0.0397
 1780TIP3    H126831   0.331   6.831   0.167 -1.3339  0.1108 -0.7144
 1780TIP3    H226832   0.339   6.740   0.046 -0.0587  0.9186 -1.2646
 1781TIP3   OH226833   5.328   0.632  16.297 -1.1372 -0.3976  0.6487
 1781TIP3    H126834   5.244   0.671  16.273 -0.7614 -0.2033 -0.4220
 1781TIP3    H226835   5.356   0.586  16.218 -0.1259 -0.2638  0.9141
 1782TIP3   OH226836   6.151   1.329  16.794  0.1548  0.2104  0.3590
 1782TIP3    H126837   6.092   1.260  16.763  0.9830  0.7282 -2.6079
 1782TIP3    H226838   6.104   1.411  16.776  0.6754  0.5382  0.4742
 1783TIP3   OH226839   0.934   3.451  14.914  0.0653 -0.0917  0.2884
 1783TIP3    H126840   0.964   3.498  14.992  2.2815 -2.4484  1.0126
 1783TIP3    H226841   0.904   3.366  14.947 -1.5963 -0.1333 -1.1911
 1784TIP3   OH226842   4.772   6.152   1.932  0.1167  0.1612 -0.0264
 1784TIP3    H126843   4.680   6.167   1.910  0.7577  2.1011 -1.6437
 1784TIP3    H226844   4.788   6.062   1.906 -0.9824  0.2366 -1.0570
 1785TIP3   OH226845   2.173   0.027   0.535 -0.9843  0.5814 -0.2936
 1785TIP3    H126846   2.242  -0.036   0.515 -1.7204  0.0871 -1.3763
 1785TIP3    H226847   2.165   0.025   0.630 -0.1123  0.0146 -0.2189
 1786TIP3   OH226848   5.423   0.707   1.300 -0.1098 -0.0242 -0.1993
 1786TIP3    H126849   5.437   0.637   1.236 -0.1258 -0.6719  0.4963
 1786TIP3    H226850   5.329   0.704   1.319 -0.0788  0.0754 -0.0282
 1787TIP3   OH226851   6.333   6.508   1.029  0.4991 -0.4941  0.3229
 1787TIP3    H126852   6.299   6.433   1.077  0.4204 -1.4349 -1.1318
 1787TIP3    H226853   6.307   6.492   0.938 -0.4443  1.8442  0.1212
 1788TIP3   OH226854   2.706   3.340  12.200 -0.4186  0.0729 -0.3798
 1788TIP3    H126855   2.623   3.384  12.221 -0.7370 -0.5096 -0.4113
 1788TIP3    H226856   2.715   3.351  12.105  0.3537  1.5391 -0.1630
 1789TIP3   OH226857   1.588   5.285  14.667  0.0412  0.5227  0.3112
 1789TIP3    H126858   1.591   5.334  14.585  0.8660  0.6330  0.4016
 1789TIP3    H226859   1.625   5.199  14.646 -1.2338 -0.0176  0.1967
 1790TIP3   OH226860   6.146   2.187   1.767 -0.4628 -0.5336  0.1363
 1790TIP3    H126861   6.148   2.247   1.692 -0.9961  0.1175  0.6269
 1790TIP3    H226862   6.121   2.102   1.729 -0.1468 -0.3456 -0.5056
 1791TIP3   OH226863   5.441   1.761   3.929 -0.3272  0.5047  0.5991
 1791TIP3    H126864   5.417   1.713   3.850 -0.5288 -2.7272  2.4556
 1791TIP3    H226865   5.362   1.809   3.953 -0.4817  0.9594 -0.7317
 1792TIP3   OH226866   0.473   2.112  15.191  0.4243 -0.1419  0.3616
 1792TIP3    H126867   0.519   2.168  15.254 -0.6215  2.8843 -1.3748
 1792TIP3    H226868   0.382   2.115  15.219  0.5399 -2.5898  1.2699
 1793TIP3   OH226869   6.291   0.035   0.469 -0.2215  0.4836 -0.8254
 1793TIP3    H126870   6.369  -0.018   0.481 -1.5294 -0.9501  2.7487
 1793TIP3    H226871   6.224  -0.027   0.441 -1.0901  0.7684  0.5301
 1794TIP3   OH226872   5.940   1.479   3.592  0.3645 -0.4299  0.4559
 1794TIP3    H126873   5.865   1.506   3.538 -1.0425  1.2453  3.0377
 1794TIP3    H226874   5.908   1.403   3.641  1.6522 -1.9838 -1.0068
 1795TIP3   OH226875   4.998   1.258   4.231 -0.3040  0.1255  0.0029
 1795TIP3    H126876   4.963   1.169   4.234  1.7448 -0.6992  0.7669
 1795TIP3    H226877   4.951   1.299   4.158 -1.9898 -1.2451  0.2523
 1796TIP3   OH226878   6.717   3.447  16.991  0.1168  0.5380  0.3677
 1796TIP3    H126879   6.718   3.535  17.029  0.2183  0.5435  0.3533
 1796TIP3    H226880   6.724   3.389  17.066 -0.9390  0.5161  0.4558
 1797TIP3   OH226881   0.016   3.270  11.449  0.1422  0.4364 -0.1183
 1797TIP3    H126882   0.090   3.326  11.468 -0.6450  1.2700  0.5537
 1797TIP3    H226883   0.048   3.210  11.380  2.4628 -1.4265  2.3701
 1798TIP3   OH226884   1.854   1.599  12.310  0.5852 -0.0401 -0.7300
 1798TIP3    H126885   1.812   1.602  12.396  0.5139  0.3008 -0.7776
 1798TIP3    H226886   1.879   1.689  12.292  1.5663 -0.2736 -0.5972
 1799TIP3   OH226887   6.303   3.864   3.844  0.0494  0.3377  0.0695
 1799TIP3    H126888   6.304   3.959   3.850 -2.9343  0.4741 -0.0905
 1799TIP3    H226889   6.239   3.844   3.776  1.4785 -1.8001 -0.7541
 1800TIP3   OH226890   1.406   6.056  14.680  0.8038  0.4283 -0.5796
 1800TIP3    H126891   1.475   5.990  14.667  0.2185 -0.3608  0.1308
 1800TIP3    H226892   1.336   6.008  14.725  0.3131  1.5170 -0.1390
 1801TIP3   OH226893   3.489   0.113  16.757 -0.2490  0.3652  0.3870
 1801TIP3    H126894   3.411   0.088  16.708 -0.7777  0.7400  1.0084
 1801TIP3    H226895   3.529   0.030  16.783 -0.2973  0.1695 -0.1604
 1802TIP3   OH226896   4.698   2.938  17.028 -0.0037 -0.1318  0.0961
 1802TIP3    H126897   4.752   2.969  17.101 -0.5690  0.7169  0.1606
 1802TIP3    H226898   4.760   2.895  16.969  0.6054  0.0464  0.5966
 1803TIP3   OH226899   4.836   1.773   5.367 -0.6470 -0.1908  0.0137
 1803TIP3    H126900   4.758   1.819   5.396  0.2197  0.5219  1.3382
 1803TIP3    H226901   4.889   1.762   5.446 -0.1529 -2.1892 -0.5250
 1804TIP3   OH226902   1.680   5.078   1.351 -0.2049  0.3622 -0.2184
 1804TIP3    H126903   1.746   5.031   1.300 -0.4129  0.6221 -0.7428
 1804TIP3    H226904   1.602   5.023   1.344  0.2836 -0.6329  1.5145
 1805TIP3   OH226905   1.797   5.520  16.455 -0.1332 -0.5005  0.3429
 1805TIP3    H126906   1.837   5.593  16.501 -1.6287  0.0224  0.8767
 1805TIP3    H226907   1.829   5.442  16.501 -0.6751 -0.0383  1.5267
 1806TIP3   OH226908   6.267   5.717   1.907 -0.3925 -0.4117  0.1201
 1806TIP3    H126909   6.196   5.753   1.853 -1.6082  1.3556  2.6750
 1806TIP3    H226910   6.334   5.785   1.905 -0.2999 -0.4920  0.5529
 1807TIP3   OH226911   4.156   6.276  12.377  0.6075 -0.1899  0.5082
 1807TIP3    H126912   4.143   6.306  12.467 -3.4923  1.5268 -0.4609
 1807TIP3    H226913   4.196   6.350  12.333 -1.9389  0.9479 -0.0542
 1808TIP3   OH226914   6.296   1.404   3.102  0.5144 -0.2904  0.2539
 1808TIP3    H126915   6.378   1.382   3.146  0.6242 -0.9770 -0.2823
 1808TIP3    H226916   6.323   1.443   3.019  0.3036  0.7265  0.6494
 1809TIP3   OH226917   5.497   3.808   3.530  0.3772 -0.3857 -0.0560
 1809TIP3    H126918   5.456   3.732   3.572 -0.3831  0.1105  0.1182
 1809TIP3    H226919   5.590   3.800   3.552  0.5422 -1.9607 -1.1172
 1810TIP3   OH226920   3.295   2.947  16.938  0.7112 -0.1271  0.7344
 1810TIP3    H126921   3.215   2.982  16.899  0.5693 -1.1323  0.0955
 1810TIP3    H226922   3.348   3.025  16.958  0.5031  0.4601 -0.8616
 1811TIP3   OH226923   5.513   0.721   2.325  0.2568 -0.4307  0.2628
 1811TIP3    H126924   5.546   0.642   2.281 -1.5975 -0.9878 -0.2070
 1811TIP3    H226925   5.481   0.777   2.254  1.8281  0.9200  0.5709
 1812TIP3   OH226926   1.731   0.837  16.684 -0.2842 -0.1716 -0.2875
 1812TIP3    H126927   1.756   0.820  16.593  2.1245 -1.4078  0.5065
 1812TIP3    H226928   1.763   0.925  16.701 -1.7024  0.4909 -0.8974
 1813TIP3   OH226929   2.169   4.492   4.756 -0.1683 -0.1190 -0.4910
 1813TIP3    H126930   2.130   4.432   4.820 -2.5185  2.4767  0.7149
 1813TIP3    H226931   2.227   4.548   4.808  0.0887  0.2380 -1.1428
 1814TIP3   OH226932   3.283   3.430   5.035  0.0158  0.1317 -0.2876
 1814TIP3    H126933   3.374   3.432   5.005 -0.3421  2.7326 -1.3958
 1814TIP3    H226934   3.268   3.338   5.056  2.6186 -0.5326 -0.9163
 1815TIP3   OH226935   1.996   3.380   0.031 -0.3004  0.1889 -0.1032
 1815TIP3    H126936   1.910   3.400  -0.004 -1.8916 -1.2465  2.6805
 1815TIP3    H226937   2.000   3.284   0.032  1.0812  0.2256  0.4528
 1816TIP3   OH226938   5.702   6.008  16.996 -0.0520 -0.5842  0.0061
 1816TIP3    H126939   5.685   5.926  16.949  1.3321 -0.6235 -0.4731
 1816TIP3    H226940   5.795   6.024  16.983 -0.0334  0.4066  1.1772
 1817TIP3   OH226941   0.538   2.117   4.608 -0.1952 -0.0079  0.3467
 1817TIP3    H126942   0.554   2.049   4.543 -0.0826 -0.4565  0.8363
 1817TIP3    H226943   0.610   2.179   4.594  0.1485 -0.3850  0.4090
 1818TIP3   OH226944   1.718   0.626   3.298 -0.1705 -0.4418  0.0151
 1818TIP3    H126945   1.626   0.600   3.286 -0.5091  0.5088  0.4649
 1818TIP3    H226946   1.721   0.664   3.386  0.3939  0.6283 -0.4505
 1819TIP3   OH226947   5.838   5.615  12.522 -0.6608  0.4952  0.2092
 1819TIP3    H126948   5.875   5.685  12.576 -2.2096 -0.2265  2.3033
 1819TIP3    H226949   5.768   5.658  12.472  0.1760  0.9698 -0.5905
 1820TIP3   OH226950   4.816   5.601  14.502  0.4396 -0.4195 -0.3435
 1820TIP3    H126951   4.822   5.562  14.589 -0.8402  0.8941  0.3718
 1820TIP3    H226952   4.897   5.574  14.458  0.9371 -1.4143  1.1070
 1821TIP3   OH226953   4.203   2.552   4.336  0.4007 -0.1335 -0.5259
 1821TIP3    H126954   4.200   2.486   4.267 -0.4271 -1.8899  1.0736
 1821TIP3    H226955   4.294   2.582   4.337  0.6177 -0.6964 -1.7923
 1822TIP3   OH226956   0.848   6.392  11.935 -0.1017  0.4695 -0.0453
 1822TIP3    H126957   0.927   6.342  11.913  0.5550  0.4428  2.1314
 1822TIP3    H226958   0.781   6.325  11.951 -0.9125  0.5114 -2.8349
 1823TIP3   OH226959   3.884   6.539  11.903 -0.1244  0.2927  0.2790
 1823TIP3    H126960   3.947   6.610  11.916  0.6767 -0.3299 -0.1494
 1823TIP3    H226961   3.908   6.473  11.969  0.6488 -0.6002 -0.8629
 1824TIP3   OH226962   6.066   3.221   0.005  0.2200 -1.0108  0.2090
 1824TIP3    H126963   6.151   3.252  -0.026  0.4978 -0.8096  1.1435
 1824TIP3    H226964   6.074   3.126   0.005 -0.2505 -1.0898 -1.5938
 1825TIP3   OH226965   6.606   6.178  13.660 -0.6456 -0.4100  0.3056
 1825TIP3    H126966   6.545   6.176  13.734 -1.7057 -1.0250 -0.5678
 1825TIP3    H226967   6.607   6.270  13.633  0.8183  0.1104  1.9072
 1826TIP3   OH226968   4.841   4.643  15.615 -0.7380  0.0807  0.4707
 1826TIP3    H126969   4.818   4.554  15.586 -2.1407  0.7089 -0.4705
 1826TIP3    H226970   4.811   4.699  15.544 -1.1789  1.4223  1.6779
 1827TIP3   OH226971   4.005   1.550  14.449 -0.3301  0.0830  0.5004
 1827TIP3    H126972   3.934   1.553  14.513 -1.0544  0.2108 -0.2794
 1827TIP3    H226973   4.026   1.642  14.431 -0.9410  0.0838 -0.2909
 1828TIP3   OH226974   0.627   0.268  15.196  0.4643 -0.3609 -0.0687
 1828TIP3    H126975   0.598   0.244  15.284 -0.3733  0.7259 -0.0265
 1828TIP3    H226976   0.571   0.216  15.138  1.2260 -1.3121  0.0189
 1829TIP3   OH226977   1.951   1.419   5.678 -0.1437 -0.0664 -0.8265
 1829TIP3    H126978   2.011   1.432   5.752 -0.5280 -0.9250 -0.3558
 1829TIP3    H226979   1.914   1.332   5.692 -1.8008  0.5891 -0.8915
 1830TIP3   OH226980   1.652   0.507  16.968  1.5130 -0.4225 -0.3299
 1830TIP3    H126981   1.644   0.476  17.058  0.8635  1.1025  0.1655
 1830TIP3    H226982   1.738   0.549  16.964  0.8713  0.9838  0.0801
 1831TIP3   OH226983   3.713   6.653   1.116  0.1362  0.2112 -0.4183
 1831TIP3    H126984   3.795   6.642   1.067  0.1154 -2.8249  0.0336
 1831TIP3    H226985   3.660   6.712   1.063  0.7774 -1.5736 -3.2372
 1832TIP3   OH226986   4.256   6.011  11.864  0.2425  0.4591  0.0877
 1832TIP3    H126987   4.178   5.959  11.844  0.6965 -0.3591  0.3801
 1832TIP3    H226988   4.222   6.095  11.895 -0.5233  0.0785  0.3005
 1833TIP3   OH226989   0.835   5.412  16.005 -0.0813 -0.0376 -0.1406
 1833TIP3    H126990   0.868   5.425  15.916 -1.5568 -1.8630 -1.0364
 1833TIP3    H226991   0.839   5.499  16.045  3.6571  0.2805 -0.8268
 1834TIP3   OH226992   4.545   4.529   4.548  0.1062  0.5183 -0.1081
 1834TIP3    H126993   4.486   4.486   4.486  0.4063  0.3923 -0.3087
 1834TIP3    H226994   4.532   4.623   4.532 -1.1265  0.5485  0.8631
 1835TIP3   OH226995   2.972   4.063  14.048 -0.1249 -0.0691 -0.2996
 1835TIP3    H126996   3.045   4.071  14.109  1.0682  1.7484 -1.8850
 1835TIP3    H226997   2.990   3.982  14.000  1.2585  0.7111 -1.1459
 1836TIP3   OH226998   0.623   0.356   4.489 -0.5141 -0.0328  0.2480
 1836TIP3    H126999   0.621   0.359   4.393  1.5644 -1.7744  0.0743
 1836TIP3    H227000   0.532   0.370   4.515 -1.1658  0.2736 -1.9876
 1837TIP3   OH227001   3.097   2.486   3.087 -0.2425 -0.2874 -0.1277
 1837TIP3    H127002   3.091   2.452   3.176 -1.0705 -0.2623 -0.1653
 1837TIP3    H227003   3.142   2.570   3.096 -1.5634  0.3922  0.4715
 1838TIP3   OH227004   4.546   5.796  15.864  0.0000  0.1334  0.4690
 1838TIP3    H127005   4.618   5.856  15.845  0.9953 -1.8887 -3.0240
 1838TIP3    H227006   4.588   5.714  15.888 -1.3218  0.2845  3.7651
 1839TIP3   OH227007   6.571   3.915   3.915  0.5138 -0.2976  0.0693
 1839TIP3    H127008   6.488   3.877   3.886 -0.7642  1.4960  1.1995
 1839TIP3    H227009   6.623   3.920   3.835 -1.8813  1.9349 -1.5212
 1840TIP3   OH227010   0.435   5.880   2.024 -0.1201  0.0159  0.3253
 1840TIP3    H127011   0.435   5.956   1.965  1.8294  0.7168  1.1450
 1840TIP3    H227012   0.397   5.912   2.105 -0.5860 -0.2853  0.2291
 1841TIP3   OH227013   1.230   6.798  13.239  0.3245  0.0984 -0.1435
 1841TIP3    H127014   1.182   6.736  13.294  3.1020 -1.6683  0.4813
 1841TIP3    H227015   1.258   6.747  13.163  1.0896  1.0883 -0.5595
 1842TIP3   OH227016   2.975   5.029  15.512 -0.3135 -0.5083 -0.7048
 1842TIP3    H127017   2.934   4.954  15.468 -0.9972 -0.3125 -0.4052
 1842TIP3    H227018   2.912   5.100  15.502  1.0151  0.5082 -2.4059
 1843TIP3   OH227019   2.203   3.111  15.168 -0.3016 -0.2454  0.1990
 1843TIP3    H127020   2.121   3.064  15.155 -0.1777 -0.6838  0.9595
 1843TIP3    H227021   2.213   3.118  15.263  0.1098  0.5685  0.1119
 1844TIP3   OH227022   4.050   2.548  12.301 -0.1043 -0.2356  0.7576
 1844TIP3    H127023   4.085   2.636  12.314  0.2010 -0.6161  2.9767
 1844TIP3    H227024   4.126   2.491  12.311 -0.3867 -0.7943 -0.2025
 1845TIP3   OH227025   5.897   0.435   6.095 -0.6444  0.2839  0.4221
 1845TIP3    H127026   5.972   0.391   6.136 -1.5805 -1.0569  0.7856
 1845TIP3    H227027   5.900   0.524   6.129  0.2399 -0.0167  1.1868
 1846TIP3   OH227028   5.162   2.677   5.733 -0.0967 -0.2604 -0.6199
 1846TIP3    H127029   5.181   2.600   5.786 -0.0680  0.0056 -0.2354
 1846TIP3    H227030   5.068   2.672   5.715 -0.6619  0.8922  1.5308
 1847TIP3   OH227031   5.736   2.917   0.641 -0.3904  0.5182 -0.2808
 1847TIP3    H127032   5.812   2.954   0.686 -0.2805  1.0896 -0.9154
 1847TIP3    H227033   5.730   2.967   0.560 -0.8503 -0.1987 -0.6991
 1848TIP3   OH227034   1.363   2.419   3.600 -0.2758 -0.3173  0.5344
 1848TIP3    H127035   1.452   2.452   3.603 -0.0917 -0.6682 -0.5556
 1848TIP3    H227036   1.335   2.432   3.509 -1.1787 -0.5959  0.7565
 1849TIP3   OH227037   0.472   4.132  16.205  0.4410  0.8139  0.6534
 1849TIP3    H127038   0.385   4.171  16.209 -1.0240 -1.6894 -2.6173
 1849TIP3    H227039   0.458   4.039  16.222  1.7753 -0.2347 -2.9509
 1850TIP3   OH227040   4.968   2.984  13.558 -0.0865  0.2231  0.1304
 1850TIP3    H127041   5.013   3.015  13.636 -0.6069 -0.3617  0.6722
 1850TIP3    H227042   5.009   3.032  13.486 -0.9594  2.3072  0.9497
 1851TIP3   OH227043   4.826   5.922  15.959 -0.7722 -0.7420  0.1005
 1851TIP3    H127044   4.829   5.953  16.050  1.4410 -1.9040  0.4895
 1851TIP3    H227045   4.803   5.830  15.966 -0.2732 -0.9144 -0.4829
 1852TIP3   OH227046   5.344   1.213   4.867 -0.1905 -0.5497 -0.6431
 1852TIP3    H127047   5.294   1.156   4.809  0.2405 -2.0895  0.4241
 1852TIP3    H227048   5.435   1.191   4.848 -0.0458 -1.1987  0.6811
 1853TIP3   OH227049   4.299   5.447   5.096  0.4523 -0.0854 -0.0145
 1853TIP3    H127050   4.370   5.402   5.141 -0.4264 -0.0542  1.4495
 1853TIP3    H227051   4.330   5.456   5.006  1.6011 -1.5473  0.1957
 1854TIP3   OH227052   0.623   0.977   0.504  0.4344 -0.0359 -0.2339
 1854TIP3    H127053   0.535   1.002   0.475 -0.4746 -2.7288 -0.1119
 1854TIP3    H227054   0.674   0.972   0.423  0.2117  0.5618 -0.4155
 1855TIP3   OH227055   1.739   3.287  11.381 -0.0388  0.2069 -0.0299
 1855TIP3    H127056   1.802   3.242  11.325 -0.5504  0.5590 -0.9137
 1855TIP3    H227057   1.760   3.380  11.371  0.9453  0.2225  1.6984
 1856TIP3   OH227058   3.314   0.151   2.359 -0.1195  0.5846 -0.2908
 1856TIP3    H127059   3.248   0.214   2.391 -0.0896  0.4510  0.0418
 1856TIP3    H227060   3.380   0.149   2.429  0.2444  0.7268 -0.6312
 1857TIP3   OH227061   4.571   3.164  14.746  0.0545  0.2252  0.2738
 1857TIP3    H127062   4.540   3.082  14.782  0.4912  0.3060  0.8511
 1857TIP3    H227063   4.579   3.148  14.652 -3.5208  0.7597 -0.2507
 1858TIP3   OH227064   2.021   5.434   4.112  0.2218  0.2141  0.2324
 1858TIP3    H127065   2.047   5.481   4.191 -0.5205 -1.3418  1.4676
 1858TIP3    H227066   1.952   5.373   4.142  0.7900 -1.2948 -1.3504
 1859TIP3   OH227067   0.539   5.280  15.280 -0.3297  0.3128  0.0177
 1859TIP3    H127068   0.448   5.307  15.297 -0.7189  0.3314 -1.9330
 1859TIP3    H227069   0.590   5.360  15.288 -0.1436  0.0031  2.9637
 1860TIP3   OH227070   4.594   0.255   3.134 -0.3710  0.1251  0.0600
 1860TIP3    H127071   4.616   0.328   3.193  1.4759  0.4444 -0.9672
 1860TIP3    H227072   4.666   0.193   3.144 -0.8619 -0.5763 -0.6709
 1861TIP3   OH227073   3.150   3.368   4.506 -0.2596 -0.1335  0.1349
 1861TIP3    H127074   3.126   3.460   4.518  0.4532 -0.2024  2.6673
 1861TIP3    H227075   3.224   3.371   4.446 -0.7691  0.8588 -0.4823
 1862TIP3   OH227076   0.249   5.747  10.693 -0.4736  0.0644  0.3612
 1862TIP3    H127077   0.258   5.757  10.598 -1.5590  0.4142  0.2762
 1862TIP3    H227078   0.171   5.692  10.704 -1.7220  1.8581  1.0523
 1863TIP3   OH227079   3.547   3.864   2.405  0.2017 -0.1587  0.1055
 1863TIP3    H127080   3.537   3.912   2.323 -1.5161  3.4318  2.1551
 1863TIP3    H227081   3.459   3.836   2.428  0.2492  0.9314  1.7611
 1864TIP3   OH227082   3.124   2.432   0.188 -0.4084  0.7540  0.1582
 1864TIP3    H127083   3.123   2.491   0.113  1.6885  1.1088  0.3611
 1864TIP3    H227084   3.072   2.478   0.255 -2.3122  0.4193 -1.0238
 1865TIP3   OH227085   4.677   2.729   0.041  0.5050 -0.2874 -0.2436
 1865TIP3    H127086   4.642   2.685   0.118  2.2587 -0.8330  0.2876
 1865TIP3    H227087   4.600   2.754  -0.010 -0.6774 -0.2901  1.4657
 1866TIP3   OH227088   4.577   0.638   0.264 -0.2664 -0.3333 -0.0564
 1866TIP3    H127089   4.601   0.645   0.357 -0.3559  0.1443 -0.0644
 1866TIP3    H227090   4.555   0.728   0.239  0.8649 -0.2604 -0.8411
 1867TIP3   OH227091   3.745   6.667  12.792  0.0226  0.5860  0.0501
 1867TIP3    H127092   3.672   6.606  12.782 -1.9693  2.8564 -0.1882
 1867TIP3    H227093   3.711   6.736  12.850  1.1557  2.8495 -1.7942
 1868TIP3   OH227094   0.969   3.582   3.087 -0.5013 -0.7669 -0.3136
 1868TIP3    H127095   1.048   3.632   3.068  1.0417 -3.0006 -0.0865
 1868TIP3    H227096   0.977   3.559   3.179 -1.9721 -0.1658 -0.0040
 1869TIP3   OH227097   1.977   0.578   1.425 -0.0920 -0.4970  0.4036
 1869TIP3    H127098   2.015   0.498   1.462 -1.0095 -1.5835 -0.8972
 1869TIP3    H227099   2.029   0.649   1.462  1.9732 -1.7979  0.1674
 1870TIP3   OH227100   1.709   5.799   1.023 -0.1121 -0.0583  0.0793
 1870TIP3    H127101   1.802   5.816   1.004 -0.9664  2.3341 -2.7577
 1870TIP3    H227102   1.684   5.733   0.958 -0.4800 -0.5416  0.7012
 1871TIP3   OH227103   2.575   4.753   4.093 -0.4086  0.6165 -0.0073
 1871TIP3    H127104   2.624   4.830   4.123 -1.7138  1.8383 -0.8652
 1871TIP3    H227105   2.567   4.699   4.172 -0.5998  2.0011  0.9756
 1872TIP3   OH227106   5.335   5.423   0.402 -0.0682 -0.3660  0.1466
 1872TIP3    H127107   5.398   5.375   0.455 -0.4998 -1.9326 -0.7002
 1872TIP3    H227108   5.305   5.494   0.459  0.7253 -0.9780  1.3762
 1873TIP3   OH227109   3.765   1.835   1.994 -0.3906 -0.1247 -0.3725
 1873TIP3    H127110   3.744   1.906   2.055 -3.2975  0.2768 -1.6543
 1873TIP3    H227111   3.821   1.776   2.044 -1.2342  1.0366  2.1044
 1874TIP3   OH227112   6.101   6.071   5.898  0.3659  0.5265  0.4285
 1874TIP3    H127113   6.138   6.152   5.933 -0.2064  0.9781  0.0075
 1874TIP3    H227114   6.008   6.090   5.886  0.4226  0.1618 -0.6955
 1875TIP3   OH227115   3.637   2.527   6.536 -0.4277  0.0065  0.5563
 1875TIP3    H127116   3.673   2.440   6.556 -1.3521 -0.2958  0.9646
 1875TIP3    H227117   3.680   2.552   6.454  0.2032 -0.6258  0.6747
 1876TIP3   OH227118   5.886   1.508  13.304  0.7597  0.0776  0.4006
 1876TIP3    H127119   5.833   1.471  13.374  1.0256 -1.4756 -0.1736
 1876TIP3    H227120   5.824   1.556  13.249  0.6310  1.7289  1.9332
 1877TIP3   OH227121   6.117   4.783   0.673  0.2749  0.0966 -0.3459
 1877TIP3    H127122   6.037   4.811   0.718  1.0031  0.9967  0.4239
 1877TIP3    H227123   6.162   4.726   0.736  1.2436  1.2732  0.0632
 1878TIP3   OH227124   6.231   5.473  16.804 -0.4508 -0.0916 -0.0916
 1878TIP3    H127125   6.172   5.405  16.837  0.8756 -2.0480 -1.5660
 1878TIP3    H227126   6.311   5.427  16.781  0.6858  2.0636 -0.7306
 1879TIP3   OH227127   6.747   3.435  14.426 -0.1440 -0.4424 -0.0105
 1879TIP3    H127128   6.777   3.406  14.513  0.0283 -1.5326 -0.4106
 1879TIP3    H227129   6.765   3.360  14.369 -0.7620  0.0570 -0.8796
 1880TIP3   OH227130   0.415   4.714   4.902 -0.3060  0.5953 -0.4938
 1880TIP3    H127131   0.502   4.713   4.862  0.1745  2.8345  0.3348
 1880TIP3    H227132   0.432   4.712   4.996 -1.0358  2.4624 -0.2820
 1881TIP3   OH227133   4.846   5.414  16.581  0.0712  0.0343 -0.0465
 1881TIP3    H127134   4.873   5.506  16.578 -0.6406  0.2687  0.3354
 1881TIP3    H227135   4.811   5.403  16.669 -1.6811 -0.0641 -0.7223
 1882TIP3   OH227136   3.026   6.183   3.027  0.7304  0.2741 -0.2292
 1882TIP3    H127137   3.002   6.261   3.077  0.6587  0.3179 -0.3328
 1882TIP3    H227138   3.023   6.211   2.935  0.4559  0.0812 -0.2795
 1883TIP3   OH227139   1.162   0.247  14.870  0.2447 -0.2214 -0.0533
 1883TIP3    H127140   1.245   0.295  14.871 -0.5149  1.1366  0.1935
 1883TIP3    H227141   1.144   0.229  14.962  0.3562 -0.7307 -0.1220
 1884TIP3   OH227142   4.369   5.291  16.183  0.4211  0.3180 -0.1157
 1884TIP3    H127143   4.307   5.344  16.133  0.7755  0.8359 -0.0223
 1884TIP3    H227144   4.316   5.246  16.248 -0.0547 -0.3939 -0.9703
 1885TIP3   OH227145   6.244   6.282  15.342  0.1171 -0.3852  0.2465
 1885TIP3    H127146   6.337   6.306  15.345  0.2996 -0.9879 -0.2723
 1885TIP3    H227147   6.232   6.225  15.418  0.4558 -1.2227 -0.3068
 1886TIP3   OH227148   0.895   5.859   1.646 -0.2089 -0.2099  0.0804
 1886TIP3    H127149   0.951   5.877   1.571 -0.0944  1.3130  0.4881
 1886TIP3    H227150   0.806   5.877   1.615  0.0609  4.3954  1.2130
 1887TIP3   OH227151   4.670   5.848   5.509 -0.6402 -0.1331 -0.7308
 1887TIP3    H127152   4.633   5.915   5.451  1.2992  3.4250  1.7720
 1887TIP3    H227153   4.760   5.836   5.477 -0.9578 -1.6441 -1.1380
 1888TIP3   OH227154   4.063   2.125  16.400 -0.5579  0.4485  0.2756
 1888TIP3    H127155   4.141   2.171  16.370 -0.3210 -1.0832 -1.6725
 1888TIP3    H227156   4.003   2.130  16.326 -0.4042 -2.5300 -0.1668
 1889TIP3   OH227157   5.894   5.479  12.141 -0.0878  0.0270 -0.1730
 1889TIP3    H127158   5.869   5.571  12.136  0.7091  0.1964 -1.6325
 1889TIP3    H227159   5.818   5.432  12.106 -0.0695  0.2248 -0.4864
 1890TIP3   OH227160   1.832   6.153   4.705 -0.2716  0.8262 -0.2465
 1890TIP3    H127161   1.873   6.193   4.781 -0.9150  0.2535  0.4217
 1890TIP3    H227162   1.864   6.062   4.706 -1.2947  0.4636  0.0982
 1891TIP3   OH227163   0.516   5.569  15.091 -0.6377 -0.2087  0.0767
 1891TIP3    H127164   0.602   5.526  15.096 -0.6343 -0.1971  0.1138
 1891TIP3    H227165   0.523   5.645  15.148 -0.0806  0.8093 -1.2967
 1892TIP3   OH227166   0.548   0.747   1.244 -0.4079 -0.2270 -0.0702
 1892TIP3    H127167   0.496   0.753   1.324 -0.3229 -0.5512  0.0084
 1892TIP3    H227168   0.628   0.796   1.264 -0.3913 -0.2997  0.0393
 1893TIP3   OH227169   2.062   0.163  12.285 -0.1295  0.3849 -0.3022
 1893TIP3    H127170   1.974   0.190  12.308  0.1249  0.9336  0.0523
 1893TIP3    H227171   2.063   0.161  12.190 -0.7047 -0.2446 -0.3020
 1894TIP3   OH227172   4.779   4.462  10.706 -0.0293 -0.6504 -0.0302
 1894TIP3    H127173   4.830   4.414  10.641 -0.2820  0.6125 -1.1865
 1894TIP3    H227174   4.845   4.509  10.757  0.1165 -1.0612  0.1689
 1895TIP3   OH227175   2.601   2.085  16.250  0.2149  0.2124 -0.1844
 1895TIP3    H127176   2.542   2.015  16.223  0.9573 -0.4932 -0.0032
 1895TIP3    H227177   2.685   2.042  16.262  0.6479  1.1147  0.0666
 1896TIP3   OH227178   6.433   0.260   0.599  0.4196 -0.0949 -0.0485
 1896TIP3    H127179   6.365   0.196   0.581 -1.0508  2.0500 -3.0084
 1896TIP3    H227180   6.408   0.298   0.684 -0.3914 -1.2894  0.2761
 1897TIP3   OH227181   4.720   5.247   4.140 -0.0961 -0.0294 -0.2398
 1897TIP3    H127182   4.736   5.265   4.233  0.3182  0.3027 -0.3755
 1897TIP3    H227183   4.804   5.265   4.097 -0.0966 -0.8116 -0.5868
 1898TIP3   OH227184   1.753   6.569   1.241  0.6513  0.0501  0.4536
 1898TIP3    H127185   1.796   6.612   1.167  0.8571 -0.8693  0.0221
 1898TIP3    H227186   1.716   6.489   1.204 -0.3046  0.1762  1.0986
 1899TIP3   OH227187   1.132   6.711  12.488  0.2392  0.7018 -0.3478
 1899TIP3    H127188   1.104   6.797  12.518 -0.6068 -0.1429  1.4431
 1899TIP3    H227189   1.219   6.725  12.450  0.3923  2.2259  0.5094
 1900TIP3   OH227190   0.062   0.806  17.224  0.3494 -0.2689 -0.4217
 1900TIP3    H127191   0.064   0.784  17.318  1.5946 -1.1444 -0.6182
 1900TIP3    H227192  -0.004   0.747  17.187 -0.4999  0.4208 -0.0317
 1901TIP3   OH227193   0.932   6.004   0.829 -0.5392 -0.5659 -0.1293
 1901TIP3    H127194   0.887   6.084   0.855 -0.2313 -0.1252 -0.9235
 1901TIP3    H227195   0.883   5.934   0.872 -0.8538  0.0369  0.5150
 1902TIP3   OH227196   4.044   2.193  15.714 -0.4961 -0.3428  0.1427
 1902TIP3    H127197   3.999   2.237  15.787  2.2071  2.0651  0.5162
 1902TIP3    H227198   4.108   2.257  15.683  0.6404 -2.4883 -2.3023
 1903TIP3   OH227199   5.424   4.192   3.683  0.2660 -0.6431  0.0474
 1903TIP3    H127200   5.363   4.228   3.747 -0.0567 -2.4847  0.8409
 1903TIP3    H227201   5.505   4.243   3.695 -0.4646  0.4641  0.3996
 1904TIP3   OH227202   1.585   2.310   1.980 -0.5227  0.1971 -0.7217
 1904TIP3    H127203   1.633   2.358   1.913  0.0170 -0.4251 -0.7932
 1904TIP3    H227204   1.649   2.294   2.049 -0.9673  0.4681 -0.2390
 1905TIP3   OH227205   3.490   4.470  14.842  0.2805 -0.9377 -0.4898
 1905TIP3    H127206   3.456   4.510  14.922 -0.1515 -1.0832 -0.5995
 1905TIP3    H227207   3.583   4.453  14.862  0.7536  1.0175 -0.7854
 1906TIP3   OH227208   2.785   5.054  14.654 -0.1198  0.4707  0.2516
 1906TIP3    H127209   2.826   5.139  14.638  0.0405  0.1876 -0.9322
 1906TIP3    H227210   2.842   5.011  14.718  0.6892  0.6241 -0.3549
 1907TIP3   OH227211   0.733   3.770  15.697  0.2933  0.3104  0.5806
 1907TIP3    H127212   0.788   3.752  15.773 -0.1157 -1.3088  0.5345
 1907TIP3    H227213   0.652   3.804  15.735 -0.3456 -1.5585  1.0079
 1908TIP3   OH227214   2.544   1.408  12.275  0.6714 -0.2333 -0.4916
 1908TIP3    H127215   2.502   1.322  12.280  0.3066 -0.0352 -0.0767
 1908TIP3    H227216   2.632   1.394  12.312 -0.0380 -0.0336  1.3727
 1909TIP3   OH227217   1.484   2.547  17.202  0.3203 -0.1071  0.1912
 1909TIP3    H127218   1.541   2.618  17.232  1.0445 -0.4288 -0.4006
 1909TIP3    H227219   1.455   2.575  17.115 -0.5678  0.1195  0.5364
 1910TIP3   OH227220   1.637   1.509   2.067  0.2070 -0.4934  0.2262
 1910TIP3    H127221   1.609   1.569   1.998  1.5168  0.3978  0.4410
 1910TIP3    H227222   1.677   1.436   2.020 -1.6928 -1.4165 -0.0499
 1911TIP3   OH227223   2.821   6.050  14.003  0.1854  0.3450 -0.0005
 1911TIP3    H127224   2.870   6.071  13.923 -0.0767 -1.7474 -0.7530
 1911TIP3    H227225   2.795   6.136  14.037  1.4840  1.3624 -1.3878
 1912TIP3   OH227226   3.797   1.868  15.146  0.0957  0.0089 -0.1292
 1912TIP3    H127227   3.831   1.871  15.057  1.9181  1.4913  0.5743
 1912TIP3    H227228   3.873   1.878  15.202 -1.2626  1.5480  1.5672
 1913TIP3   OH227229   6.112   0.939   6.338 -0.6648  0.1781 -0.6436
 1913TIP3    H127230   6.164   0.947   6.418 -0.6183 -2.1722 -0.3654
 1913TIP3    H227231   6.028   0.903   6.367 -1.5687  1.5833 -1.3971
 1914TIP3   OH227232   4.905   4.189  14.033  0.1506  0.1530  0.3756
 1914TIP3    H127233   4.904   4.138  13.951  0.6938  2.6096 -1.2680
 1914TIP3    H227234   4.813   4.195  14.058 -0.3292  1.3355 -1.4488
 1915TIP3   OH227235   3.657   0.558  16.598 -0.2467  0.4953  0.1100
 1915TIP3    H127236   3.611   0.630  16.640  1.7547  0.9753  1.6351
 1915TIP3    H227237   3.618   0.479  16.635  0.7970  0.9016  2.2550
 1916TIP3   OH227238   0.933   4.470   2.709 -0.3158  0.3902  0.4215
 1916TIP3    H127239   0.929   4.497   2.801  0.1070  2.2497 -0.0608
 1916TIP3    H227240   0.847   4.493   2.674  0.8739  3.8155 -0.6253
 1917TIP3   OH227241   1.351   4.068  15.675  0.3992  0.3391 -0.0400
 1917TIP3    H127242   1.389   4.047  15.761  0.1089  0.4172  0.1074
 1917TIP3    H227243   1.323   4.160  15.683  0.8286  0.5034 -0.3835
 1918TIP3   OH227244   2.341   1.690  10.590  0.2801 -0.1122 -0.0070
 1918TIP3    H127245   2.436   1.684  10.601  0.3260 -0.6378 -0.6533
 1918TIP3    H227246   2.315   1.606  10.552 -0.2259  0.5739 -1.2624
 1919TIP3   OH227247   6.454   5.774   5.504 -0.4447  0.0891 -0.1858
 1919TIP3    H127248   6.446   5.800   5.413  0.2372  1.2239  0.0659
 1919TIP3    H227249   6.415   5.846   5.554 -2.9533 -1.5338  0.3675
 1920TIP3   OH227250   6.788   0.209  10.899 -0.1164  0.2509  0.0771
 1920TIP3    H127251   6.828   0.123  10.915 -0.2008  0.2152  0.0988
 1920TIP3    H227252   6.822   0.236  10.814 -0.2785  0.0857 -0.0411
 1921TIP3   OH227253   1.885   4.528  12.409  0.6880  0.0205  0.2910
 1921TIP3    H127254   1.921   4.602  12.361  0.4391 -0.5575 -0.8248
 1921TIP3    H227255   1.859   4.466  12.341  1.1092 -1.1991  1.2046
 1922TIP3   OH227256   3.081   2.153   0.207  0.7101  0.3651 -0.4502
 1922TIP3    H127257   2.988   2.148   0.188 -0.1237  1.5678  2.6631
 1922TIP3    H227258   3.103   2.246   0.193  0.9874  0.4548  0.5300
 1923TIP3   OH227259   3.493   6.231  14.582 -0.0716  0.3757  0.3078
 1923TIP3    H127260   3.504   6.326  14.589  0.0557  0.3735  0.1465
 1923TIP3    H227261   3.498   6.214  14.488  0.1595  0.1804  0.3537
 1924TIP3   OH227262   5.764   3.649   4.445  0.1993 -0.0218  0.1037
 1924TIP3    H127263   5.735   3.602   4.523  0.8726 -1.2871 -0.3813
 1924TIP3    H227264   5.765   3.583   4.376  1.3783  0.6457 -0.5625
 1925TIP3   OH227265   3.039   1.514   1.898  0.6481  0.6271  0.2610
 1925TIP3    H127266   3.076   1.535   1.813 -0.2133  2.1363  0.2274
 1925TIP3    H227267   3.112   1.473   1.946  0.8578 -1.2440 -1.5029
 1926TIP3   OH227268   5.462   4.738   5.289  0.0411  0.0320 -0.2051
 1926TIP3    H127269   5.530   4.687   5.244  0.1364 -0.4469  0.4521
 1926TIP3    H227270   5.381   4.689   5.274  0.5062 -1.7676  2.4927
 1927TIP3   OH227271   2.179   3.096   6.927 -0.6697  0.0261 -0.5005
 1927TIP3    H127272   2.119   3.171   6.934 -0.4406  0.2301 -0.6911
 1927TIP3    H227273   2.266   3.135   6.928 -0.4196 -0.4452  2.3750
 1928TIP3   OH227274   2.425   2.798  13.296 -0.1916  0.4021  0.4112
 1928TIP3    H127275   2.370   2.860  13.345  0.5537  0.4047  1.2837
 1928TIP3    H227276   2.510   2.803  13.340  0.1354 -0.5588 -0.0938
 1929TIP3   OH227277   2.294   0.453  11.708 -0.3573  0.4520 -0.1488
 1929TIP3    H127278   2.336   0.430  11.791 -1.6467 -2.6836 -0.2029
 1929TIP3    H227279   2.262   0.542  11.721 -1.0650 -0.1283  3.0240
 1930TIP3   OH227280   6.718   4.875  10.874 -0.1617 -0.1068  0.1915
 1930TIP3    H127281   6.721   4.802  10.936  1.2132 -0.2518 -0.0056
 1930TIP3    H227282   6.708   4.952  10.928 -2.8944 -0.4675  0.3420
 1931TIP3   OH227283   4.291   4.634  16.087  0.2986  0.3734 -0.2883
 1931TIP3    H127284   4.251   4.616  16.002 -1.2354  0.7367  0.3283
 1931TIP3    H227285   4.338   4.717  16.075  0.5540  0.1444 -0.9116
 1932TIP3   OH227286   2.573   4.846   2.408 -0.3199 -0.2594 -0.1110
 1932TIP3    H127287   2.496   4.902   2.396 -1.6723 -2.0795 -0.4629
 1932TIP3    H227288   2.578   4.833   2.503 -0.9629 -0.7559 -0.1320
 1933TIP3   OH227289   5.827   2.625  15.611  0.0948 -0.3993 -0.5436
 1933TIP3    H127290   5.810   2.676  15.532  0.9062  0.2176 -0.3269
 1933TIP3    H227291   5.860   2.689  15.675  3.4858 -1.4959 -1.0048
 1934TIP3   OH227292   5.828   2.446   1.549  0.6825  0.4608 -0.7000
 1934TIP3    H127293   5.828   2.449   1.453 -1.2194 -0.0266 -0.7571
 1934TIP3    H227294   5.782   2.526   1.576  0.5219  0.2222 -0.2422
 1935TIP3   OH227295   0.630   6.010  13.067 -0.3363  0.6534  0.4812
 1935TIP3    H127296   0.603   5.933  13.117 -0.6188  0.0878 -0.5225
 1935TIP3    H227297   0.629   6.082  13.131 -1.4350  0.1001  1.1190
 1936TIP3   OH227298   2.373   2.436   2.183 -0.5786  0.1942  0.0753
 1936TIP3    H127299   2.302   2.435   2.247 -0.7362 -2.2201 -0.0536
 1936TIP3    H227300   2.351   2.507   2.123 -2.0314  0.5116  0.9403
 1937TIP3   OH227301   6.747   3.409   4.094  0.4991  0.4046  0.6844
 1937TIP3    H127302   6.773   3.495   4.129 -0.7079  1.4766 -0.8991
 1937TIP3    H227303   6.809   3.393   4.023 -0.7186  1.1671 -0.6067
 1938TIP3   OH227304   0.793   2.178  17.161  0.3137 -0.3775 -0.6085
 1938TIP3    H127305   0.819   2.088  17.140  1.3344 -0.2609  0.1451
 1938TIP3    H227306   0.865   2.232  17.130  0.1155  0.1154 -0.2171
 1939TIP3   OH227307   2.029   2.910   2.658 -0.1255 -0.3251 -0.2644
 1939TIP3    H127308   2.071   2.827   2.683  0.8147  0.5129  1.0419
 1939TIP3    H227309   2.099   2.975   2.667 -1.6463  1.1324  2.0165
 1940TIP3   OH227310   1.680   5.512   4.588 -0.8778 -0.1270  0.1118
 1940TIP3    H127311   1.750   5.473   4.536 -1.9720 -1.0236 -0.7527
 1940TIP3    H227312   1.698   5.606   4.587  2.0030 -0.5134  2.4728
 1941TIP3   OH227313   1.169   3.421   4.721 -0.8684 -0.1583 -0.0119
 1941TIP3    H127314   1.208   3.465   4.797 -0.1894 -0.8697  0.0609
 1941TIP3    H227315   1.195   3.474   4.646 -0.2885 -0.2859  0.1005
 1942TIP3   OH227316   4.845   4.278   1.141 -0.1127 -0.0849  0.1790
 1942TIP3    H127317   4.829   4.331   1.063 -2.1349 -0.9396 -0.0520
 1942TIP3    H227318   4.822   4.189   1.115  0.3572 -0.5938  1.4064
 1943TIP3   OH227319   3.377   6.202   3.009 -0.5355  0.3263  0.0355
 1943TIP3    H127320   3.449   6.144   3.035 -0.2756  0.7329  0.2392
 1943TIP3    H227321   3.398   6.229   2.920 -0.2976  0.6537  0.1900
 1944TIP3   OH227322   1.564   5.818   3.659  0.0890 -0.2084 -0.2601
 1944TIP3    H127323   1.573   5.885   3.592 -1.0115  1.2463  0.9831
 1944TIP3    H227324   1.581   5.736   3.613  2.2481  0.9409 -1.6616
 1945TIP3   OH227325   5.455   3.820   3.034 -0.3702 -0.0436 -0.7297
 1945TIP3    H127326   5.404   3.758   2.982  0.6109  0.1180 -1.9305
 1945TIP3    H227327   5.490   3.768   3.106 -1.6906 -0.2865 -0.2485
 1946TIP3   OH227328   2.145   5.889  13.950 -0.0109 -0.3861  0.4484
 1946TIP3    H127329   2.179   5.806  13.982 -0.4559 -1.5300 -1.8092
 1946TIP3    H227330   2.153   5.883  13.854  2.9308  3.4618  0.1720
 1947TIP3   OH227331   4.892   3.111  17.150 -0.7539 -0.2735 -0.3096
 1947TIP3    H127332   4.884   3.062  17.232 -0.5446  1.1182  0.5739
 1947TIP3    H227333   4.966   3.070  17.105  0.6073  0.3497  1.2565
 1948TIP3   OH227334   4.106   0.532  12.358 -0.3145 -0.4118  0.4793
 1948TIP3    H127335   4.136   0.481  12.433  0.3724  0.5986  0.9110
 1948TIP3    H227336   4.066   0.610  12.396  1.5326  0.9431 -0.1781
 1949TIP3   OH227337   4.173   1.585   3.610 -0.2945 -0.4863  0.5203
 1949TIP3    H127338   4.246   1.593   3.672  0.1407  0.0466 -0.0448
 1949TIP3    H227339   4.117   1.517   3.647 -0.5238  0.4426  1.9755
 1950TIP3   OH227340   0.219   4.079  17.114  0.1833  0.7723  0.0449
 1950TIP3    H127341   0.261   3.993  17.118 -1.1054 -0.0003 -1.7369
 1950TIP3    H227342   0.286   4.136  17.077  0.5138  0.1356 -0.3693
 1951TIP3   OH227343   1.373   4.725   4.752 -0.1268 -0.3722  0.3312
 1951TIP3    H127344   1.288   4.763   4.774  0.1576 -0.3723  1.5242
 1951TIP3    H227345   1.357   4.630   4.754  0.1776 -0.4330  1.9781
 1952TIP3   OH227346   6.683   6.099   4.392  0.0335  0.6852 -0.0877
 1952TIP3    H127347   6.652   6.166   4.332 -0.0970  0.5992 -0.1155
 1952TIP3    H227348   6.710   6.147   4.471  0.9506  0.8858 -0.5087
 1953TIP3   OH227349   3.945   5.301  10.584  0.0884 -0.2136 -0.0202
 1953TIP3    H127350   3.869   5.312  10.641  1.0979 -4.9803  2.9043
 1953TIP3    H227351   4.020   5.314  10.642  1.6425  2.7336 -2.4248
 1954TIP3   OH227352   3.527   2.247   0.572  0.5981  0.2879  0.7083
 1954TIP3    H127353   3.551   2.155   0.579 -0.0649  0.2052  2.6565
 1954TIP3    H227354   3.456   2.249   0.507  2.0054 -0.2285 -0.9185
 1955TIP3   OH227355   0.705   4.848  11.446  0.1689  0.0183 -0.2476
 1955TIP3    H127356   0.699   4.888  11.359 -0.4007 -1.8295 -1.1164
 1955TIP3    H227357   0.614   4.825  11.468  0.4503 -0.6649  0.2449
 1956TIP3   OH227358   1.361   1.823  15.085  0.8263 -0.3339 -0.6127
 1956TIP3    H127359   1.386   1.746  15.035 -0.1272 -1.7468  0.9965
 1956TIP3    H227360   1.438   1.879  15.083  1.9802 -1.8784 -0.8006
 1957TIP3   OH227361   1.431   0.606   3.665  0.1541 -0.4009 -0.3462
 1957TIP3    H127362   1.522   0.634   3.669  0.5470 -1.0885 -2.8838
 1957TIP3    H227363   1.434   0.511   3.665 -0.7491 -0.4867  1.3829
 1958TIP3   OH227364   3.232   1.983  12.575 -0.0754  0.2550 -0.4542
 1958TIP3    H127365   3.280   1.995  12.492 -0.0619  2.2350 -0.2168
 1958TIP3    H227366   3.300   1.991  12.642 -0.2980  0.0414 -0.2047
 1959TIP3   OH227367   0.356   4.993   2.702  0.1490 -0.2192 -0.2578
 1959TIP3    H127368   0.322   4.905   2.687  0.2023 -0.4103  0.7193
 1959TIP3    H227369   0.316   5.046   2.633  2.0590 -1.4650 -2.4873
 1960TIP3   OH227370   1.366   0.790   4.585  0.1610 -0.4565  0.3344
 1960TIP3    H127371   1.291   0.843   4.611  0.2486  0.1001 -0.5206
 1960TIP3    H227372   1.442   0.836   4.619  0.1973 -0.3676  0.1320
 1961TIP3   OH227373   5.132   4.887   6.611 -0.1136 -0.4120 -0.3193
 1961TIP3    H127374   5.043   4.868   6.640  0.7390 -1.7031  1.7269
 1961TIP3    H227375   5.143   4.839   6.529 -0.8612 -1.4069  0.1541
 1962TIP3   OH227376   0.261   4.520   5.963  0.3576  0.1378  0.0167
 1962TIP3    H127377   0.176   4.508   5.921 -1.5116  2.9073  2.5083
 1962TIP3    H227378   0.245   4.496   6.054  2.1158  1.0980  0.6140
 1963TIP3   OH227379   1.019   2.798   6.460 -0.0638  0.1600  0.5091
 1963TIP3    H127380   1.072   2.752   6.525 -2.2123 -2.3450  0.6867
 1963TIP3    H227381   0.929   2.790   6.492 -0.8709  1.8079 -1.1143
 1964TIP3   OH227382   6.246   2.908   1.922 -0.0549  0.6967  0.0178
 1964TIP3    H127383   6.311   2.929   1.988 -1.2861  2.6869  0.6841
 1964TIP3    H227384   6.169   2.881   1.971  0.2523 -1.9116 -0.7649
 1965TIP3   OH227385   5.376   0.476   1.143 -0.6898 -0.4758 -0.1189
 1965TIP3    H127386   5.400   0.463   1.051  1.1418  0.0847  0.2300
 1965TIP3    H227387   5.321   0.401   1.165  0.6426 -1.7750 -1.0770
 1966TIP3   OH227388   0.276   3.024  13.530  0.9700 -0.1238  0.1686
 1966TIP3    H127389   0.368   3.002  13.516  0.7096 -1.4223  0.3709
 1966TIP3    H227390   0.277   3.116  13.557  2.2423 -0.2478  0.6131
 1967TIP3   OH227391   6.804   2.712   4.772  0.4907 -0.1487  0.1200
 1967TIP3    H127392   6.781   2.694   4.864 -0.4217 -0.6161 -0.1828
 1967TIP3    H227393   6.862   2.788   4.776 -1.2794  1.2341  0.9487
 1968TIP3   OH227394   0.560   6.680  13.846  0.3301  0.2096  0.1729
 1968TIP3    H127395   0.612   6.619  13.794  2.9099 -0.6219  3.3609
 1968TIP3    H227396   0.598   6.766  13.827  0.6878  0.0259  0.0398
 1969TIP3   OH227397   4.212   0.445   1.681  0.2768 -0.4043 -0.0779
 1969TIP3    H127398   4.242   0.481   1.598 -0.0372 -0.1357 -0.0791
 1969TIP3    H227399   4.291   0.410   1.722  0.6833  0.6917  0.1202
 1970TIP3   OH227400   3.492   5.713  11.169  0.1483 -0.0325  0.1379
 1970TIP3    H127401   3.514   5.620  11.164  0.7276  0.0504  0.9112
 1970TIP3    H227402   3.397   5.716  11.160  0.3251 -0.4444 -2.8683
 1971TIP3   OH227403   5.070   6.602  16.209 -0.3304  0.3147  0.5739
 1971TIP3    H127404   5.081   6.670  16.143  2.0796 -0.6321 -0.1379
 1971TIP3    H227405   5.029   6.529  16.161 -0.2301  0.2520  0.5833
 1972TIP3   OH227406   2.183   5.270   0.353  0.2804 -0.4687 -0.3001
 1972TIP3    H127407   2.140   5.243   0.273 -0.2183  1.0106 -0.5627
 1972TIP3    H227408   2.242   5.198   0.375 -0.4750 -1.4146 -1.3149
 1973TIP3   OH227409   2.895   1.907  15.371  0.3570  0.0838 -0.0110
 1973TIP3    H127410   2.848   1.826  15.386 -0.4425  0.2457 -1.4243
 1973TIP3    H227411   2.905   1.947  15.457 -0.6308 -0.7588  0.5011
 1974TIP3   OH227412   3.817   5.640  15.840  0.6250 -0.1340 -0.0024
 1974TIP3    H127413   3.816   5.550  15.807 -0.0536 -1.2381  2.6980
 1974TIP3    H227414   3.902   5.648  15.885  0.8624  0.7420 -0.5827
 1975TIP3   OH227415   3.527   4.298   5.223  0.8706 -1.0917  0.2574
 1975TIP3    H127416   3.533   4.215   5.177  0.0292 -0.6382 -0.7155
 1975TIP3    H227417   3.433   4.317   5.228  1.0716  0.1904 -0.2902
 1976TIP3   OH227418   4.692   0.176  16.161 -0.2964  0.2535  0.1734
 1976TIP3    H127419   4.757   0.247  16.166 -0.8403  0.6714  1.9776
 1976TIP3    H227420   4.731   0.105  16.211 -0.5796 -0.0514 -0.0380
 1977TIP3   OH227421   1.121   4.141   0.844 -0.4081 -0.4133 -0.3514
 1977TIP3    H127422   1.106   4.100   0.759 -2.3131  0.9661 -0.7454
 1977TIP3    H227423   1.036   4.178   0.869  0.1708 -0.5000  2.0231
 1978TIP3   OH227424   2.541   3.732  11.937 -1.0806 -0.3183 -0.3352
 1978TIP3    H127425   2.616   3.676  11.959 -0.5508  0.1831 -0.8479
 1978TIP3    H227426   2.510   3.698  11.853  0.6420  1.5277 -1.7992
 1979TIP3   OH227427   6.050   3.137  16.584 -0.1351 -0.0280 -0.7207
 1979TIP3    H127428   6.026   3.133  16.491 -0.9646 -1.2768 -0.4668
 1979TIP3    H227429   5.990   3.202  16.621  1.4959  1.9676 -1.3992
 1980TIP3   OH227430   0.448   1.949   3.304  0.3479  0.6590  0.6114
 1980TIP3    H127431   0.355   1.932   3.318 -0.1893  2.9512  0.3025
 1980TIP3    H227432   0.459   1.943   3.209  0.4252  0.7794  0.6129
 1981TIP3   OH227433   6.489   0.046  14.197  1.0747  0.3911 -0.0377
 1981TIP3    H127434   6.503   0.029  14.104  0.3926  2.5238 -0.5828
 1981TIP3    H227435   6.567   0.013  14.240  1.4271 -0.5735 -1.3683
 1982TIP3   OH227436   3.347   3.735  13.220  0.5019  0.2286 -0.2138
 1982TIP3    H127437   3.432   3.754  13.260  0.6913  0.0279 -0.5111
 1982TIP3    H227438   3.323   3.649  13.256  0.4042  0.3083 -0.0919
 1983TIP3   OH227439   3.024   4.902   0.088 -0.9052  0.3107 -0.0035
 1983TIP3    H127440   2.933   4.914   0.059 -0.6898 -1.0433 -1.3883
 1983TIP3    H227441   3.068   4.862   0.012 -0.1382 -2.9828  1.9597
 1984TIP3   OH227442   3.789   6.618   1.704  0.4395  0.2183 -0.4136
 1984TIP3    H127443   3.831   6.571   1.632 -0.8807 -1.4290 -0.1712
 1984TIP3    H227444   3.836   6.590   1.782  0.5922  0.4425 -0.4257
 1985TIP3   OH227445   5.219   3.356  14.858 -0.4894  0.1094  0.2283
 1985TIP3    H127446   5.300   3.318  14.894 -1.2265 -0.4169  1.3689
 1985TIP3    H227447   5.199   3.302  14.782 -0.3859 -0.4810  0.6174
 1986TIP3   OH227448   4.480   0.496  15.294  0.3416 -0.1488  0.0089
 1986TIP3    H127449   4.543   0.560  15.328 -1.4838  0.6799  2.0627
 1986TIP3    H227450   4.395   0.531  15.320 -0.7602 -3.2498  0.9470
 1987TIP3   OH227451   6.606   1.086  15.291 -0.0887  0.0294  0.6807
 1987TIP3    H127452   6.661   1.143  15.345  0.5438 -0.5365  0.6447
 1987TIP3    H227453   6.667   1.028  15.247 -0.4391  1.4519 -1.8755
 1988TIP3   OH227454   0.352   4.472  13.737  0.0991 -0.4458  0.1279
 1988TIP3    H127455   0.401   4.508  13.663 -0.0756 -1.8088 -0.6976
 1988TIP3    H227456   0.261   4.471  13.707 -0.8947  3.5874  2.2270
 1989TIP3   OH227457   6.345   0.699   0.502  0.3450  0.0437 -0.1739
 1989TIP3    H127458   6.328   0.615   0.459  0.6941 -0.1223  0.0110
 1989TIP3    H227459   6.421   0.734   0.456  2.6433 -1.5078  2.1799
 1990TIP3   OH227460   5.293   1.128  15.274  0.0821 -0.2580 -0.4731
 1990TIP3    H127461   5.346   1.055  15.244  0.5758  0.7869 -2.2859
 1990TIP3    H227462   5.255   1.166  15.195 -1.2492  0.6464  0.5339
 1991TIP3   OH227463   3.925   6.276  10.911  0.0974 -0.3827  0.2291
 1991TIP3    H127464   3.957   6.193  10.874 -1.5509 -0.5365 -0.9525
 1991TIP3    H227465   3.840   6.289  10.869 -0.4454  1.0428  1.7062
 1992TIP3   OH227466   0.750   3.386   2.075 -0.4470 -0.2226 -0.0172
 1992TIP3    H127467   0.741   3.292   2.088 -0.5322 -0.4238 -1.3318
 1992TIP3    H227468   0.808   3.394   1.999 -0.7778  0.7818 -0.1810
 1993TIP3   OH227469   3.100   1.320  16.295  0.6540  0.0536  0.0663
 1993TIP3    H127470   3.068   1.337  16.384  1.6748  2.3073  0.0567
 1993TIP3    H227471   3.191   1.350  16.296  1.2960 -1.6391 -1.2603
 1994TIP3   OH227472   5.382   1.663  12.257  0.2843  0.7209 -0.7565
 1994TIP3    H127473   5.400   1.717  12.180 -0.8367  0.6390 -1.0812
 1994TIP3    H227474   5.334   1.588  12.223 -1.5306  1.3965  0.2050
 1995TIP3   OH227475   5.811   5.141   6.064 -0.1256  0.1618 -0.9095
 1995TIP3    H127476   5.843   5.112   6.149 -0.8144 -2.8882 -1.5699
 1995TIP3    H227477   5.719   5.163   6.079 -0.2906 -0.5278 -0.8595
 1996TIP3   OH227478   4.571   0.851   3.081 -0.5212 -0.3125  0.1279
 1996TIP3    H127479   4.626   0.788   3.033 -1.4389 -2.4809  1.7499
 1996TIP3    H227480   4.513   0.888   3.015  1.5472  0.6249 -1.2808
 1997TIP3   OH227481   6.754   1.861  12.264 -0.0683 -0.2535  0.3976
 1997TIP3    H127482   6.692   1.923  12.225  0.1392 -1.2608 -1.6971
 1997TIP3    H227483   6.770   1.895  12.352 -0.5525  2.2088 -0.3951
 1998TIP3   OH227484   1.168   0.281  13.970  0.2376  0.3787 -0.1955
 1998TIP3    H127485   1.225   0.351  13.940  0.3247  1.0854  1.5323
 1998TIP3    H227486   1.091   0.326  14.005 -0.5619 -0.4856 -0.7932
 1999TIP3   OH227487   3.330   4.158   4.943 -0.1302  0.3459 -0.0822
 1999TIP3    H127488   3.295   4.229   4.998  0.9656  0.0837  0.9867
 1999TIP3    H227489   3.425   4.170   4.946 -0.0253  0.0619 -1.5968
 2000TIP3   OH227490   1.746   3.082   2.926  0.4982 -0.0542 -0.1288
 2000TIP3    H127491   1.796   3.095   3.007  1.0582  0.6086 -0.5654
 2000TIP3    H227492   1.656   3.069   2.955  0.8609 -0.9120  0.6562
 2001TIP3   OH227493   1.700   3.267   3.964 -0.2699  0.5543  0.2347
 2001TIP3    H127494   1.668   3.351   3.932 -0.8835 -0.1534 -1.1094
 2001TIP3    H227495   1.695   3.209   3.888 -0.0324 -0.7502  1.1748
 2002TIP3   OH227496   6.549   4.702   3.569 -0.0391  0.1184 -0.0429
 2002TIP3    H127497   6.604   4.668   3.640 -0.3342  1.5172  0.9117
 2002TIP3    H227498   6.475   4.743   3.615  0.0789  1.5993 -1.1238
 2003TIP3   OH227499   6.018   3.994  14.058  0.2163 -0.0738  0.7552
 2003TIP3    H127500   5.955   4.065  14.050 -0.4214 -0.7677 -1.0225
 2003TIP3    H227501   6.047   3.997  14.149 -1.2755  1.1941  1.2297
 2004TIP3   OH227502   5.530   4.687  11.118  0.3785  0.0278  0.1804
 2004TIP3    H127503   5.512   4.681  11.025  1.2026  0.2478  0.0025
 2004TIP3    H227504   5.579   4.608  11.138  1.1652  0.5114  0.1966
 2005TIP3   OH227505   5.792   1.838   0.745 -0.2855  0.0469  0.2372
 2005TIP3    H127506   5.737   1.814   0.819  1.4234 -1.2460  1.1584
 2005TIP3    H227507   5.730   1.852   0.673 -1.7872 -2.3232  0.9383
 2006TIP3   OH227508   0.653   0.902   3.018 -0.1350  0.3486  0.0093
 2006TIP3    H127509   0.651   0.871   3.109 -0.5162  0.6643  0.1134
 2006TIP3    H227510   0.612   0.833   2.968  0.8250 -0.1998 -0.0447
 2007TIP3   OH227511   4.222   6.039   1.426  0.3708  0.5827  0.4065
 2007TIP3    H127512   4.207   6.113   1.485 -0.2589  1.1611 -0.4483
 2007TIP3    H227513   4.299   6.063   1.375  0.3937  0.4738  0.3880
 2008TIP3   OH227514   0.510   6.055  14.641 -0.2510  0.1199 -0.1135
 2008TIP3    H127515   0.577   6.007  14.591  0.3865  0.2123  0.6253
 2008TIP3    H227516   0.427   6.020  14.610  0.1652 -0.4916 -0.5612
 2009TIP3   OH227517   0.882   0.709  11.284  0.0302 -0.4562 -0.3758
 2009TIP3    H127518   0.905   0.802  11.283  0.2134 -0.4926  0.0380
 2009TIP3    H227519   0.879   0.684  11.192 -0.6821  0.1180 -0.5229
 2010TIP3   OH227520   5.643   3.234  11.091 -0.1587  0.3926  0.3995
 2010TIP3    H127521   5.668   3.285  11.014  0.5327  0.9792  0.9978
 2010TIP3    H227522   5.643   3.143  11.061 -3.3097  0.7777 -1.2267
 2011TIP3   OH227523   0.204   1.792   4.104 -0.0711 -0.0807 -0.2730
 2011TIP3    H127524   0.115   1.772   4.134  0.1822 -1.8411 -0.6139
 2011TIP3    H227525   0.255   1.799   4.184 -0.6986  2.1854  0.0081
 2012TIP3   OH227526   1.726   0.343  11.228  0.5107 -0.1216  0.5639
 2012TIP3    H127527   1.673   0.420  11.249  1.5442  1.2063 -1.3426
 2012TIP3    H227528   1.816   0.374  11.238  0.9457 -0.9839 -0.5158
 2013TIP3   OH227529   2.966   2.691   6.073  0.4698  0.0467 -0.2284
 2013TIP3    H127530   2.982   2.690   6.168  1.3081  0.5138 -0.3489
 2013TIP3    H227531   2.990   2.603   6.044 -0.4665 -0.3219  0.0850
 2014TIP3   OH227532   4.923   4.062  16.149 -0.4047 -0.5049 -0.2345
 2014TIP3    H127533   4.892   3.982  16.190 -3.5280  0.9493  0.5176
 2014TIP3    H227534   4.878   4.064  16.064 -2.1217  1.3893  0.6365
 2015TIP3   OH227535   6.332   2.139   1.413  0.5319  0.5591 -0.1942
 2015TIP3    H127536   6.373   2.223   1.434 -0.4535  0.7565  1.1244
 2015TIP3    H227537   6.242   2.149   1.443  0.3963 -0.9759 -0.0152
 2016TIP3   OH227538   6.161   6.566  15.347  0.4045  0.2193  0.2979
 2016TIP3    H127539   6.220   6.491  15.349 -0.9157 -0.8313  1.0148
 2016TIP3    H227540   6.216   6.638  15.316  1.8411 -0.9006  0.1229
 2017TIP3   OH227541   6.252   4.774  12.543 -0.2401 -0.6709 -0.2802
 2017TIP3    H127542   6.254   4.708  12.612  2.2117 -1.5939 -1.1070
 2017TIP3    H227543   6.206   4.732  12.470 -1.0607 -0.4309  0.0858
 2018TIP3   OH227544   1.671   2.992   2.685  0.1565 -0.2371 -0.5525
 2018TIP3    H127545   1.716   3.043   2.751 -0.1692  1.8844 -1.8903
 2018TIP3    H227546   1.710   2.904   2.692  3.3365  1.0436 -0.5538
 2019TIP3   OH227547   1.600   1.563  12.790  0.2353  0.1455  0.0972
 2019TIP3    H127548   1.541   1.511  12.735  0.3156 -0.3863  0.4937
 2019TIP3    H227549   1.547   1.586  12.867  0.6618 -0.7318  0.6736
 2020TIP3   OH227550   1.081   3.335   0.212 -0.3538  0.2224  0.0227
 2020TIP3    H127551   1.067   3.289   0.130 -0.4482 -0.6521  0.5163
 2020TIP3    H227552   1.171   3.366   0.207  0.0324 -0.8406  0.0662
 2021TIP3   OH227553   0.509   4.124   2.400  0.0191  1.0631  0.1621
 2021TIP3    H127554   0.589   4.115   2.452  0.3295  0.9612 -0.3294
 2021TIP3    H227555   0.438   4.102   2.461  0.4364  0.1213  0.3160
 2022TIP3   OH227556   2.974   2.629  10.743  0.2037 -0.1634 -0.1396
 2022TIP3    H127557   3.068   2.624  10.763 -0.4898 -1.0017  3.8163
 2022TIP3    H227558   2.949   2.718  10.767 -0.0489  0.0747 -1.2340
 2023TIP3   OH227559   6.704   4.933  15.340 -0.1085  0.3562 -0.2374
 2023TIP3    H127560   6.774   4.888  15.386 -0.6198  0.7949  1.0061
 2023TIP3    H227561   6.692   4.882  15.260  0.2653 -0.8998  0.4801
 2024TIP3   OH227562   5.807   0.794   2.848 -0.1007  0.4510 -0.9315
 2024TIP3    H127563   5.774   0.875   2.886  0.1516 -0.6814  1.9895
 2024TIP3    H227564   5.866   0.759   2.914 -1.5759 -2.9934 -1.2103
 2025TIP3   OH227565   4.169   0.230  13.517  0.4069 -0.4585 -0.8350
 2025TIP3    H127566   4.233   0.177  13.470  1.6193 -1.1531  1.4839
 2025TIP3    H227567   4.217   0.308  13.546 -0.1336 -0.3383 -0.2228
 2026TIP3   OH227568   1.254   0.751  13.806  0.2130 -0.0799 -0.0510
 2026TIP3    H127569   1.315   0.821  13.830 -0.2593  0.8126 -1.3357
 2026TIP3    H227570   1.268   0.683  13.872  0.9120  1.0921  1.0577
 2027TIP3   OH227571   1.196   4.600   1.002 -0.9026 -0.3312 -0.2657
 2027TIP3    H127572   1.137   4.571   1.072 -0.1685 -0.1417  0.4441
 2027TIP3    H227573   1.209   4.522   0.949 -0.5844 -0.7819  0.4548
 2028TIP3   OH227574   3.386   1.926  14.461  0.3676  0.1714  0.3865
 2028TIP3    H127575   3.354   1.849  14.509  0.9181 -0.7703 -0.6978
 2028TIP3    H227576   3.478   1.908  14.445  0.1143  0.2236 -1.3875
 2029TIP3   OH227577   4.530   0.098   2.386  0.2068 -0.3934 -0.3603
 2029TIP3    H127578   4.543   0.180   2.340 -1.9954 -0.3031 -0.9455
 2029TIP3    H227579   4.468   0.049   2.332  0.2777 -1.7935  0.7391
 2030TIP3   OH227580   6.368   4.822  12.837 -0.2500 -0.2306  0.3985
 2030TIP3    H127581   6.300   4.887  12.819  0.7323  0.6499 -0.2454
 2030TIP3    H227582   6.412   4.809  12.753 -1.6869 -3.2850  0.0016
 2031TIP3   OH227583   5.508   2.037   0.217 -0.3852  0.5350  0.2592
 2031TIP3    H127584   5.417   2.009   0.223 -1.3235  3.2872  0.1027
 2031TIP3    H227585   5.533   2.019   0.126 -0.5910 -0.6312  0.4210
 2032TIP3   OH227586   2.661   6.506  11.170  0.3370 -0.3854 -0.2016
 2032TIP3    H127587   2.648   6.411  11.168 -2.7716 -0.1426  1.9118
 2032TIP3    H227588   2.579   6.542  11.136  0.9018  1.5474  0.3880
 2033TIP3   OH227589   1.042   2.410  16.031 -0.4095  0.0298  0.4434
 2033TIP3    H127590   0.989   2.379  16.105  0.5841 -1.2205  0.6568
 2033TIP3    H227591   1.033   2.342  15.965 -0.3709  0.5959 -0.1481
 2034TIP3   OH227592   4.247   6.459  10.945 -0.3210  0.0723  0.2068
 2034TIP3    H127593   4.305   6.406  10.999 -0.9803 -0.1839  0.6817
 2034TIP3    H227594   4.274   6.549  10.962  0.8299 -0.0883 -0.6314
 2035TIP3   OH227595   2.314   4.219  13.587  0.5480 -1.1240  0.0689
 2035TIP3    H127596   2.303   4.158  13.660  0.5152  0.1454  1.1518
 2035TIP3    H227597   2.266   4.178  13.514 -1.3118 -1.3604  1.3637
 2036TIP3   OH227598   5.692   4.585  16.216 -0.1629 -0.3184  0.5228
 2036TIP3    H127599   5.601   4.564  16.237 -0.2286 -0.4587  0.1060
 2036TIP3    H227600   5.702   4.676  16.244 -1.0997  0.4565 -1.4647
 2037TIP3   OH227601   6.688   3.818   0.805 -0.4781 -0.2470 -0.1720
 2037TIP3    H127602   6.650   3.787   0.887  0.4814  1.5475  1.0095
 2037TIP3    H227603   6.755   3.880   0.831  0.3220 -0.1160 -2.3190
 2038TIP3   OH227604   3.993   5.682   4.945  0.5032  0.1458  0.3675
 2038TIP3    H127605   3.965   5.592   4.962  0.9240 -0.2649 -0.9701
 2038TIP3    H227606   3.912   5.727   4.922  0.4287 -0.1526  0.0291
 2039TIP3   OH227607   2.410   0.496   5.163 -0.0703  0.0492  0.5421
 2039TIP3    H127608   2.475   0.442   5.118  1.3286  1.9411  0.1681
 2039TIP3    H227609   2.444   0.506   5.252 -0.7001 -0.2746  0.8227
 2040TIP3   OH227610   3.470   2.221  13.013 -0.6161 -0.1140  0.3426
 2040TIP3    H127611   3.539   2.222  13.080  1.0146  1.6687 -1.2389
 2040TIP3    H227612   3.388   2.219  13.063  0.5331  0.6900  2.3976
 2041TIP3   OH227613   5.378   2.064  17.204  0.1951  0.0445 -0.2112
 2041TIP3    H127614   5.342   2.050  17.292  0.7520 -1.1141 -0.1509
 2041TIP3    H227615   5.307   2.038  17.145  0.2166 -0.2536 -0.1032
 2042TIP3   OH227616   0.323   4.793   5.679 -0.3065 -0.0384 -0.7483
 2042TIP3    H127617   0.380   4.716   5.685 -1.0956 -0.5190  2.9937
 2042TIP3    H227618   0.237   4.758   5.659 -0.0219  0.3365 -2.8252
 2043TIP3   OH227619   2.571   5.233   5.721  0.1872 -0.0174 -0.1452
 2043TIP3    H127620   2.538   5.218   5.632  1.6641 -1.3571 -0.5144
 2043TIP3    H227621   2.662   5.201   5.718  1.3545  2.8463  0.9698
 2044TIP3   OH227622   6.057   6.758  14.110 -0.7796 -0.4606 -0.2863
 2044TIP3    H127623   5.983   6.750  14.050 -0.1195 -1.1073 -1.0312
 2044TIP3    H227624   6.134   6.749  14.054 -0.0986  1.1630  0.3212
 2045TIP3   OH227625   5.787   1.401   1.340  0.2018  0.4602 -0.1011
 2045TIP3    H127626   5.776   1.486   1.383  1.1873 -0.2578  1.6839
 2045TIP3    H227627   5.821   1.344   1.409  3.6075 -0.3624 -2.2386
 2046TIP3   OH227628   3.303   5.193  13.564 -0.0854  0.0870  0.1769
 2046TIP3    H127629   3.284   5.118  13.508 -3.3335  1.2317 -0.4890
 2046TIP3    H227630   3.385   5.170  13.608 -0.7573 -3.6844 -0.1939
 2047TIP3   OH227631   4.804   0.956  13.560  0.4588 -0.0580  0.0626
 2047TIP3    H127632   4.845   0.894  13.499  1.3392  0.1925  0.3808
 2047TIP3    H227633   4.736   0.904  13.604  0.7127 -0.6065 -0.1728
 2048TIP3   OH227634   4.397   2.764   6.074  0.3911  0.0145 -0.2896
 2048TIP3    H127635   4.461   2.768   6.145  1.2084  1.4059 -1.0546
 2048TIP3    H227636   4.322   2.814   6.106 -0.0172 -0.9605  0.3065
 2049TIP3   OH227637   2.323   5.224   5.504 -0.0869 -0.3419  0.1392
 2049TIP3    H127638   2.368   5.164   5.444 -0.6328 -0.6676  0.0535
 2049TIP3    H227639   2.232   5.223   5.474 -0.1083  0.4995  0.1609
 2050TIP3   OH227640   0.782   5.781  14.766 -0.9452  0.1172 -0.1428
 2050TIP3    H127641   0.834   5.739  14.835 -1.8558 -0.5040  0.1925
 2050TIP3    H227642   0.704   5.813  14.811 -0.7699  1.2131 -0.6034
 2051TIP3   OH227643   5.606   3.133  16.291 -0.8120 -0.1523 -0.0513
 2051TIP3    H127644   5.632   3.077  16.217  0.0665  2.7768 -2.1660
 2051TIP3    H227645   5.525   3.094  16.324  0.7857 -3.7529  0.0166
 2052TIP3   OH227646   0.815   3.815   4.496  0.1282 -0.1192 -0.3526
 2052TIP3    H127647   0.787   3.754   4.565 -2.0937 -0.2168 -1.2606
 2052TIP3    H227648   0.735   3.861   4.470  0.8566 -0.1480 -2.9418
 2053TIP3   OH227649   6.548   2.887   0.260  0.0170 -0.1029 -0.3769
 2053TIP3    H127650   6.486   2.868   0.189 -0.6364  0.2796  0.0790
 2053TIP3    H227651   6.614   2.818   0.252 -1.0714 -1.2094 -0.1896
 2054TIP3   OH227652   5.794   3.692  13.012 -1.0808 -0.3699  0.3835
 2054TIP3    H127653   5.719   3.736  13.053 -0.7711 -0.2317  0.8190
 2054TIP3    H227654   5.818   3.748  12.939 -1.4782 -0.4791  0.1659
 2055TIP3   OH227655   1.351   4.689   4.081  0.1128 -0.0030  0.0380
 2055TIP3    H127656   1.412   4.615   4.084 -0.1695 -0.2415 -0.0386
 2055TIP3    H227657   1.373   4.742   4.157 -0.0538 -0.4603  0.4061
 2056TIP3   OH227658   4.878   0.313   2.001 -0.1879 -0.4161  0.2777
 2056TIP3    H127659   4.862   0.408   2.000  1.1281 -0.1827 -1.0551
 2056TIP3    H227660   4.891   0.293   2.094  1.9098  1.1599  0.3985
 2057TIP3   OH227661   2.211   3.044  15.453 -0.0484 -0.2530  0.9747
 2057TIP3    H127662   2.269   2.985  15.502 -0.0991 -1.2451 -0.1221
 2057TIP3    H227663   2.125   3.004  15.460  0.1045 -0.9652 -0.7092
 2058TIP3   OH227664   5.725   1.684  16.687  0.4383 -0.6698  0.1118
 2058TIP3    H127665   5.737   1.771  16.651 -3.3730  0.8102  1.9351
 2058TIP3    H227666   5.747   1.693  16.780  2.2289 -2.3531 -0.0578
 2059TIP3   OH227667   3.034   4.866   3.532 -0.1575  0.2617 -0.0966
 2059TIP3    H127668   3.064   4.836   3.447  2.5511 -1.5725  1.3559
 2059TIP3    H227669   2.956   4.814   3.550  1.0546 -1.6905 -0.2039
 2060TIP3   OH227670   3.386   4.433   2.656 -0.2991 -0.0468  0.7510
 2060TIP3    H127671   3.292   4.445   2.663 -0.3370  0.0979  0.0770
 2060TIP3    H227672   3.412   4.484   2.579  0.4465  0.5158  1.3514
 2061TIP3   OH227673   5.964   4.403  12.337 -0.3026  0.1048 -0.5886
 2061TIP3    H127674   5.869   4.415  12.331 -0.3293 -0.3828 -1.3814
 2061TIP3    H227675   5.998   4.491  12.349 -0.9469  0.1291  1.4922
 2062TIP3   OH227676   4.557   0.409  14.645  0.1925  0.0178 -0.2664
 2062TIP3    H127677   4.571   0.362  14.727  0.5909  0.1541 -0.2526
 2062TIP3    H227678   4.645   0.417  14.607 -0.1269 -1.2130 -1.3567
 2063TIP3   OH227679   5.595   0.446  11.919 -0.0524 -0.0298 -0.5336
 2063TIP3    H127680   5.682   0.473  11.890 -0.3327  2.0288  0.3607
 2063TIP3    H227681   5.538   0.466  11.844  0.0536 -0.2197 -0.6670
 2064TIP3   OH227682   1.957   2.569   5.877 -0.0766  0.1558  0.3831
 2064TIP3    H127683   1.939   2.518   5.798  0.5475 -1.4085  1.2154
 2064TIP3    H227684   1.880   2.556   5.932  0.5777 -0.8847  1.0825
 2065TIP3   OH227685   2.703   4.557   1.531  0.6287 -0.1446  0.3292
 2065TIP3    H127686   2.705   4.485   1.467  0.7267 -0.2742  0.4779
 2065TIP3    H227687   2.684   4.514   1.614  1.6374 -0.1158  0.5842
 2066TIP3   OH227688   5.565   6.523  13.851  0.3822  0.1386 -0.0328
 2066TIP3    H127689   5.543   6.440  13.894  2.2456 -0.2828  0.2135
 2066TIP3    H227690   5.612   6.573  13.919 -0.4798  1.2958 -0.2649
 2067TIP3   OH227691   6.075   1.483   4.652  0.0587 -0.3661 -0.1273
 2067TIP3    H127692   6.027   1.466   4.570  0.5558 -1.6622 -0.1850
 2067TIP3    H227693   6.063   1.576   4.668 -0.4661 -0.1827 -1.4188
 2068TIP3   OH227694   2.980   4.612   6.498  0.2854  0.1315 -0.7868
 2068TIP3    H127695   2.930   4.644   6.423 -1.8841  1.2598  0.9958
 2068TIP3    H227696   3.038   4.685   6.521  1.2615 -0.3731 -1.5638
 2069TIP3   OH227697   5.794   5.252   0.133 -0.0083  0.0496 -0.2023
 2069TIP3    H127698   5.706   5.249   0.172  0.2217 -0.8348  0.2688
 2069TIP3    H227699   5.778   5.271   0.041 -0.5826  1.8670  0.2167
 2070TIP3   OH227700   0.517   4.680  10.720 -0.1924 -0.3056  0.7834
 2070TIP3    H127701   0.476   4.625  10.653 -0.1356  0.6314 -0.0590
 2070TIP3    H227702   0.476   4.766  10.709  0.8129  0.2247  1.0157
 2071TIP3   OH227703   3.465   3.888   2.035  0.0835  0.3730 -0.1391
 2071TIP3    H127704   3.466   3.982   2.052  1.1564  0.1755  1.0274
 2071TIP3    H227705   3.556   3.860   2.050 -0.1971 -0.8278 -0.5806
 2072TIP3   OH227706   6.713   2.256   4.819 -0.2400 -0.5550  0.2047
 2072TIP3    H127707   6.780   2.187   4.825 -0.4910 -0.7887  0.3141
 2072TIP3    H227708   6.650   2.223   4.755 -1.8234 -1.6823  2.2359
 2073TIP3   OH227709   0.379   2.243  11.806 -0.3992  0.5553  0.0856
 2073TIP3    H127710   0.338   2.285  11.882 -1.7168  0.0056 -0.2954
 2073TIP3    H227711   0.330   2.277  11.731  0.8111  1.0053 -0.5443
 2074TIP3   OH227712   1.383   6.713  15.236  0.2476  0.1257  0.2966
 2074TIP3    H127713   1.337   6.701  15.318  1.7725  0.2631  1.2125
 2074TIP3    H227714   1.344   6.650  15.176  0.3679 -1.3076  1.6752
 2075TIP3   OH227715   0.031   1.874   0.512  0.3146 -0.0672 -0.1602
 2075TIP3    H127716   0.091   1.894   0.585 -0.4011  0.8344  0.2091
 2075TIP3    H227717  -0.050   1.847   0.555  0.2872 -0.7888 -0.6532
 2076TIP3   OH227718   6.192   6.514   2.259  0.0793  0.3210 -0.2302
 2076TIP3    H127719   6.258   6.497   2.326 -0.9744  0.6805  0.9351
 2076TIP3    H227720   6.108   6.500   2.303 -0.6509  0.8624 -1.3833
 2077TIP3   OH227721   5.820   0.922   0.511 -0.3794 -0.5797 -0.3600
 2077TIP3    H127722   5.777   0.991   0.562 -1.1724  1.8387 -3.9364
 2077TIP3    H227723   5.748   0.870   0.476  0.1345 -1.9192  0.5065
 2078TIP3   OH227724   3.273   0.976   0.782  0.4360 -0.2685 -0.5299
 2078TIP3    H127725   3.288   0.927   0.863  2.3735  1.3050  0.1637
 2078TIP3    H227726   3.218   1.050   0.809  2.0544  0.9203 -0.3038
 2079TIP3   OH227727   1.295   4.342   2.342 -0.8644 -0.2553 -0.0660
 2079TIP3    H127728   1.248   4.323   2.424  1.2234  0.0977  1.3010
 2079TIP3    H227729   1.267   4.272   2.282 -0.3151 -2.2804  1.8890
 2080TIP3   OH227730   3.875   5.781   2.519  0.1402  0.2797  0.0577
 2080TIP3    H127731   3.865   5.737   2.603  1.1316 -1.3320 -0.6327
 2080TIP3    H227732   3.786   5.787   2.484 -0.3039  1.1359  1.2703
 2081TIP3   OH227733   1.326   4.621   3.623 -0.0045 -0.0253  0.1166
 2081TIP3    H127734   1.390   4.643   3.691 -2.0776  1.3990  1.7453
 2081TIP3    H227735   1.301   4.705   3.586  1.5361 -0.8076 -3.0052
 2082TIP3   OH227736   1.515   4.182  10.436  0.2534  0.5366 -0.4431
 2082TIP3    H127737   1.487   4.203  10.525  0.5048  1.9635 -0.6772
 2082TIP3    H227738   1.434   4.185  10.384  0.1444 -0.0523 -0.3134
 2083TIP3   OH227739   4.251   6.037   1.922  0.3821  0.8673  0.0432
 2083TIP3    H127740   4.176   5.993   1.882 -0.2563  0.7348  1.3435
 2083TIP3    H227741   4.242   6.021   2.016  1.9837  0.9505  0.2467
 2084TIP3   OH227742   2.828   3.605   2.528 -0.0656  0.1516 -0.1811
 2084TIP3    H127743   2.756   3.601   2.591  0.5903 -2.6708  0.5483
 2084TIP3    H227744   2.882   3.678   2.558 -2.1586  1.8616 -0.3221
 2085TIP3   OH227745   1.810   6.563  12.507  0.2756 -0.3573 -0.3066
 2085TIP3    H127746   1.795   6.607  12.424  0.5589  1.5019  0.5670
 2085TIP3    H227747   1.727   6.519  12.526 -1.2358  2.4686  0.2613
 2086TIP3   OH227748   6.513   6.349   5.677 -0.0439 -0.8746  0.0332
 2086TIP3    H127749   6.478   6.319   5.593  1.0345  2.0077 -1.5949
 2086TIP3    H227750   6.438   6.390   5.720 -0.4654 -1.8319  0.2281
 2087TIP3   OH227751   2.275   0.176   3.697 -0.1141  0.9869  0.0866
 2087TIP3    H127752   2.320   0.103   3.739 -0.4210 -1.2088 -3.0548
 2087TIP3    H227753   2.185   0.172   3.731 -0.5752 -1.2437 -1.1751
 2088TIP3   OH227754   1.114   3.406   5.152  0.0984  0.0199 -0.1937
 2088TIP3    H127755   1.131   3.461   5.229  0.4927 -0.9089  0.4049
 2088TIP3    H227756   1.069   3.463   5.091  0.3720  0.9671  0.4712
 2089TIP3   OH227757   3.968   1.452  13.256  0.2548  0.3276  0.0059
 2089TIP3    H127758   3.898   1.482  13.313  1.3909  0.3035  1.4860
 2089TIP3    H227759   4.032   1.524  13.257  0.8083 -0.1476 -0.2995
 2090TIP3   OH227760   3.107   6.372  12.008 -0.0937  0.1393  0.1498
 2090TIP3    H127761   3.069   6.355  11.922 -1.7388 -0.5944  0.9632
 2090TIP3    H227762   3.031   6.381  12.066  0.9680  0.8191  1.4929
 2091TIP3   OH227763   1.759   5.640  15.049  0.3517 -0.0894  0.8529
 2091TIP3    H127764   1.736   5.595  14.967  1.2253 -1.3856  1.2778
 2091TIP3    H227765   1.855   5.637  15.051  0.4888  2.4321  0.6020
 2092TIP3   OH227766   0.225   4.703  17.014  0.3613 -0.1891  0.3247
 2092TIP3    H127767   0.155   4.767  17.031 -0.1186 -0.0030 -2.0263
 2092TIP3    H227768   0.191   4.621  17.048 -1.2507 -0.1974 -1.1745
 2093TIP3   OH227769   1.961   6.621  15.489 -0.2635 -0.4717  0.7339
 2093TIP3    H127770   1.872   6.655  15.493  0.5945  2.0231  0.7294
 2093TIP3    H227771   2.008   6.683  15.433  1.6928 -1.1315  1.5301
 2094TIP3   OH227772   2.190   1.633   4.134 -0.0921 -0.4161 -0.0814
 2094TIP3    H127773   2.108   1.684   4.137  0.0837 -0.1396  0.0308
 2094TIP3    H227774   2.185   1.577   4.212  0.3026  0.3426  0.5046
 2095TIP3   OH227775   6.351   2.311   3.036 -0.1900 -0.0847 -0.1389
 2095TIP3    H127776   6.429   2.329   2.985  0.3549 -1.8656 -0.0154
 2095TIP3    H227777   6.375   2.335   3.126 -0.1088  0.2293 -0.2436
 2096TIP3   OH227778   2.513   2.918  14.491  0.2720  0.1328  0.1311
 2096TIP3    H127779   2.562   2.946  14.568  0.0336 -0.9560  0.7059
 2096TIP3    H227780   2.429   2.887  14.526  1.0228 -2.6067 -0.2126
 2097TIP3   OH227781   0.471   3.347  14.128  0.5561  0.4429 -0.0849
 2097TIP3    H127782   0.408   3.399  14.178 -0.8819 -1.8961  0.6937
 2097TIP3    H227783   0.420   3.309  14.056  1.2973 -0.6503 -0.0596
 2098TIP3   OH227784   3.612   0.655   1.459 -0.3841  0.2375  0.7146
 2098TIP3    H127785   3.620   0.716   1.532  3.1330  0.7475  0.0737
 2098TIP3    H227786   3.552   0.587   1.491 -1.8015  2.2841  2.6549
 2099TIP3   OH227787   4.013   4.514  11.457 -0.0140  0.2604 -0.0346
 2099TIP3    H127788   4.067   4.452  11.409 -0.1035  0.0605  0.1228
 2099TIP3    H227789   4.007   4.478  11.546 -0.0239  0.5179  0.0700
 2100TIP3   OH227790   6.225   0.452  14.410 -0.2611 -0.4626 -0.1500
 2100TIP3    H127791   6.265   0.510  14.345 -0.1453 -1.7842 -1.3045
 2100TIP3    H227792   6.285   0.454  14.484  0.8370 -0.6951 -0.9928
 2101TIP3   OH227793   0.179   3.333   5.679  0.0104  0.0642 -0.5645
 2101TIP3    H127794   0.121   3.376   5.742 -0.2768  1.8750 -1.9481
 2101TIP3    H227795   0.125   3.325   5.600  0.7912 -0.8183 -1.0216
 2102TIP3   OH227796   3.168   5.613  17.035 -1.6917  0.1638 -0.0733
 2102TIP3    H127797   3.180   5.659  17.118 -1.1450 -0.8247  0.4014
 2102TIP3    H227798   3.242   5.553  17.029 -2.1275 -0.3057 -0.9279
 2103TIP3   OH227799   5.092   4.921   0.070 -0.2037  0.0365  0.0164
 2103TIP3    H127800   5.025   4.974   0.113  1.4940  1.6034  0.9221
 2103TIP3    H227801   5.117   4.856   0.136 -0.8738 -0.6015 -0.3518
 2104TIP3   OH227802   0.425   4.589  15.890  0.3510 -0.1385 -0.5571
 2104TIP3    H127803   0.476   4.651  15.942 -1.3097  0.8114  0.0093
 2104TIP3    H227804   0.411   4.633  15.806 -0.2300 -0.0395 -0.4120
 2105TIP3   OH227805   6.700   1.747   2.670 -0.2289  0.3986 -0.2196
 2105TIP3    H127806   6.618   1.705   2.697 -0.2150  0.0545 -0.6982
 2105TIP3    H227807   6.674   1.810   2.604 -0.3823  1.9188  1.2289
 2106TIP3   OH227808   5.252   4.254  14.380  0.2971  0.3360  0.1373
 2106TIP3    H127809   5.220   4.170  14.413  3.2759 -0.9387  0.1826
 2106TIP3    H227810   5.208   4.265  14.296 -0.0643 -1.4030  0.0534
 2107TIP3   OH227811   5.494   4.010   4.540 -0.3368  0.4360  0.0435
 2107TIP3    H127812   5.556   4.013   4.613 -0.0179  0.2571 -0.2154
 2107TIP3    H227813   5.421   4.064   4.569  0.4174  1.5692 -0.0732
 2108TIP3   OH227814   5.446   1.565   4.605  0.0226 -0.0321  0.6064
 2108TIP3    H127815   5.525   1.602   4.644 -0.9784  1.0142  1.7229
 2108TIP3    H227816   5.411   1.636   4.551  0.7471 -1.0695 -1.3598
 2109TIP3   OH227817   5.153   0.312   1.192  0.2425 -0.1259  0.2184
 2109TIP3    H127818   5.183   0.225   1.218 -0.3579 -0.7229 -1.0206
 2109TIP3    H227819   5.059   0.312   1.209 -0.4969 -1.0741 -3.1243
 2110TIP3   OH227820   3.021   0.642  16.486 -0.0602 -0.0805  0.3678
 2110TIP3    H127821   2.945   0.679  16.530  0.2408  0.7781  0.1798
 2110TIP3    H227822   3.007   0.662  16.393 -0.1093 -0.8399  0.2023
 2111TIP3   OH227823   0.158   0.303   1.368 -0.1221  0.1857  0.3038
 2111TIP3    H127824   0.224   0.322   1.302  0.1243 -1.1615  0.1454
 2111TIP3    H227825   0.193   0.229   1.417 -2.4904 -2.1641 -1.2804
 2112TIP3   OH227826   1.258   6.185   5.884 -0.3530 -0.0048  1.0275
 2112TIP3    H127827   1.168   6.172   5.854 -0.1194 -0.2552  0.4220
 2112TIP3    H227828   1.311   6.128   5.828  0.2001  0.2327  1.2967
 2113TIP3   OH227829   2.043   6.532   3.608 -0.2818 -0.1418  0.3174
 2113TIP3    H127830   2.026   6.443   3.641 -0.9044 -0.9955 -2.0914
 2113TIP3    H227831   1.956   6.570   3.597 -0.5707 -1.4481 -4.0497
 2114TIP3   OH227832   2.450   4.901  15.017  0.1551 -0.5344  0.0120
 2114TIP3    H127833   2.474   4.883  14.926 -1.6798 -1.0785 -0.4079
 2114TIP3    H227834   2.461   4.817  15.061  0.0407 -0.5237  0.0602
 2115TIP3   OH227835   3.354   3.943   4.059 -0.0292  0.4374 -0.3190
 2115TIP3    H127836   3.422   3.929   3.993 -0.4811 -0.6469 -0.5773
 2115TIP3    H227837   3.399   3.933   4.143  0.6483  2.2709 -0.4157
 2116TIP3   OH227838   0.724   4.148   5.758 -0.0971  0.5020 -0.5069
 2116TIP3    H127839   0.719   4.150   5.662 -0.8362 -1.8430 -0.5680
 2116TIP3    H227840   0.796   4.088   5.777 -0.1776  0.6838  0.4278
 2117TIP3   OH227841   6.581   4.586  13.888 -0.1076 -0.3822  0.2255
 2117TIP3    H127842   6.626   4.503  13.876 -0.4117 -0.6640  0.9778
 2117TIP3    H227843   6.502   4.579  13.834  0.5720 -0.0043 -0.8593
 2118TIP3   OH227844   5.440   5.993  16.867 -0.0403 -0.7633  0.5849
 2118TIP3    H127845   5.482   6.079  16.856 -0.4062 -0.5393  0.9303
 2118TIP3    H227846   5.509   5.930  16.845  0.2163 -0.3821  0.2705
 2119TIP3   OH227847   1.566   5.472  13.853  0.4716 -0.1119  0.5598
 2119TIP3    H127848   1.611   5.505  13.776 -1.0873  1.2403  0.1808
 2119TIP3    H227849   1.588   5.535  13.922 -1.1747  0.8468  0.2488
 2120TIP3   OH227850   3.294   5.815  11.454  0.0271  0.4224  0.4761
 2120TIP3    H127851   3.322   5.735  11.499 -0.2298 -0.4462 -0.8492
 2120TIP3    H227852   3.375   5.866  11.443  0.4150 -0.2176  0.2763
 2121TIP3   OH227853   5.496   1.040  15.547 -0.1028  0.1599  0.0146
 2121TIP3    H127854   5.460   1.126  15.527  0.6878  0.3314 -0.7437
 2121TIP3    H227855   5.426   0.994  15.592 -1.5045  0.2663 -1.9318
 2122TIP3   OH227856   5.823   1.391  15.839 -0.8136 -0.5598  0.5412
 2122TIP3    H127857   5.891   1.457  15.825  0.1203 -1.1069  2.3344
 2122TIP3    H227858   5.758   1.435  15.893 -0.5912 -0.8556  1.0501
 2123TIP3   OH227859   6.697   4.334   3.237 -0.1346 -0.2265 -0.8651
 2123TIP3    H127860   6.625   4.350   3.299  0.7265 -0.6627  0.2889
 2123TIP3    H227861   6.699   4.411   3.181  0.7369  1.4691  1.3500
 2124TIP3   OH227862   1.121   4.236  16.366  0.5281  0.3887  0.6390
 2124TIP3    H127863   1.035   4.278  16.360  0.4109 -0.0527 -2.1748
 2124TIP3    H227864   1.107   4.161  16.423 -0.4712  1.3613  1.7220
 2125TIP3   OH227865   0.646   3.318   3.010  0.4769  0.4539  0.5264
 2125TIP3    H127866   0.741   3.312   2.999  0.4301  0.6896 -0.0554
 2125TIP3    H227867   0.611   3.241   2.964  0.4642 -0.5714  2.1676
 2126TIP3   OH227868   1.427   1.581  11.995 -0.2971 -0.0185 -0.3079
 2126TIP3    H127869   1.477   1.544  11.922 -2.5790 -2.3463 -0.8045
 2126TIP3    H227870   1.397   1.506  12.045 -0.5319  1.4462  1.8993
 2127TIP3   OH227871   0.195   3.618   6.265  0.6295  0.0678  0.7562
 2127TIP3    H127872   0.248   3.694   6.290  1.3036 -0.2038  0.1963
 2127TIP3    H227873   0.138   3.651   6.196  2.4460 -0.4050 -1.0801
 2128TIP3   OH227874   1.852   2.580   0.020  0.2858  0.7054 -0.0111
 2128TIP3    H127875   1.928   2.521   0.017 -1.2902 -1.3941 -0.7918
 2128TIP3    H227876   1.807   2.566  -0.064 -0.9166  2.0139  0.3664
 2129TIP3   OH227877   3.258   4.676  12.049  0.4599 -0.3361 -0.2535
 2129TIP3    H127878   3.282   4.767  12.066 -2.5908  0.3827  0.8984
 2129TIP3    H227879   3.209   4.680  11.967 -1.2558 -0.5800  0.7255
 2130TIP3   OH227880   0.296   2.177   2.544  0.6176 -0.1460 -0.4934
 2130TIP3    H127881   0.306   2.169   2.449 -0.1352  1.2147 -0.7170
 2130TIP3    H227882   0.221   2.122   2.565  0.5592 -0.1642 -0.7463
 2131TIP3   OH227883   5.393   4.150  11.772  0.4818  0.5243 -0.1369
 2131TIP3    H127884   5.434   4.098  11.841  1.0006  0.7759 -0.2531
 2131TIP3    H227885   5.299   4.138  11.786  0.5877  0.3024  0.4032
 2132TIP3   OH227886   0.191   3.281   0.864  0.0381 -0.4247 -0.3435
 2132TIP3    H127887   0.181   3.265   0.770  0.8818 -0.4963 -0.4289
 2132TIP3    H227888   0.210   3.374   0.871 -0.6711 -0.2817 -0.1790
 2133TIP3   OH227889   4.117   6.332   1.819 -0.7771 -0.0609 -0.7139
 2133TIP3    H127890   4.111   6.250   1.867  1.0372 -0.3923 -1.0016
 2133TIP3    H227891   4.163   6.391   1.879 -1.9163  0.7129 -0.5735
 2134TIP3   OH227892   2.884   4.882   3.119  0.0076  0.4668 -0.4303
 2134TIP3    H127893   2.850   4.794   3.106  1.6874 -0.5220  1.2469
 2134TIP3    H227894   2.822   4.924   3.179  0.9410 -0.8346  1.5337
 2135TIP3   OH227895   3.468   4.143  11.274 -0.5018 -0.6868 -0.4957
 2135TIP3    H127896   3.464   4.234  11.303 -0.9854  0.1256 -2.8209
 2135TIP3    H227897   3.548   4.108  11.312  0.5128  1.2012 -0.8052
 2136TIP3   OH227898   6.074   5.556  15.446 -1.0788  0.2964 -0.2024
 2136TIP3    H127899   6.153   5.610  15.443 -0.9328  0.0453 -1.6529
 2136TIP3    H227900   6.004   5.618  15.469 -0.8672  1.0939 -1.5266
 2137TIP3   OH227901   1.063   1.629   1.132  0.0049 -0.2393  0.0056
 2137TIP3    H127902   1.069   1.682   1.053  1.2342 -1.5672 -0.8324
 2137TIP3    H227903   0.973   1.598   1.134 -0.1087  0.0354 -0.7403
 2138TIP3   OH227904   5.771   0.750   3.924 -0.3761  0.0172  0.4622
 2138TIP3    H127905   5.739   0.839   3.914  2.4722  1.0622 -0.5059
 2138TIP3    H227906   5.786   0.740   4.018  1.5486  1.5453  0.3889
 2139TIP3   OH227907   4.776   4.126   0.211 -0.5116  0.2522  0.0763
 2139TIP3    H127908   4.690   4.156   0.183 -0.7730 -1.1226 -0.6356
 2139TIP3    H227909   4.816   4.089   0.132 -0.0263 -0.8447  0.8138
 2140TIP3   OH227910   6.140   3.792   6.452  0.6512 -0.1602 -0.3737
 2140TIP3    H127911   6.217   3.849   6.454  1.2728 -0.9041  3.0160
 2140TIP3    H227912   6.066   3.851   6.440  1.4998  0.9633 -0.2281
 2141TIP3   OH227913   4.483   4.543   1.548  0.2528  0.0995  0.0369
 2141TIP3    H127914   4.542   4.605   1.592  1.2812 -1.0238  0.3178
 2141TIP3    H227915   4.488   4.567   1.456 -0.0859  1.0043  0.2423
 2142TIP3   OH227916   6.419   4.779  14.017  0.3519 -0.3929 -0.5179
 2142TIP3    H127917   6.372   4.707  14.059  0.2623  0.5500  1.1044
 2142TIP3    H227918   6.494   4.738  13.974  0.1533 -1.4949  0.1602
 2143TIP3   OH227919   3.191   4.128  12.317  0.8643 -0.6505  0.2117
 2143TIP3    H127920   3.131   4.200  12.299  0.1740 -0.4912  2.8563
 2143TIP3    H227921   3.134   4.056  12.345  1.5164 -2.3913 -2.4854
 2144TIP3   OH227922   2.002   1.821  14.127  0.3074  0.2701  0.5641
 2144TIP3    H127923   1.962   1.785  14.207 -1.3746 -0.1387 -0.3970
 2144TIP3    H227924   2.015   1.744  14.071  2.7810  0.3564  0.9221
 2145TIP3   OH227925   0.274   0.541  15.114 -0.1174  0.0626 -0.0553
 2145TIP3    H127926   0.241   0.631  15.117 -0.2859 -0.0179  1.5790
 2145TIP3    H227927   0.203   0.488  15.151 -0.6976 -1.0149 -2.4624
 2146TIP3   OH227928   4.360   2.820  15.245  0.4279  0.2354  0.4224
 2146TIP3    H127929   4.385   2.906  15.278 -0.9140  0.6175  0.4690
 2146TIP3    H227930   4.434   2.763  15.268  2.3593  1.7679 -1.5117
 2147TIP3   OH227931   5.355   2.303   4.319 -0.3123  0.6660  0.1537
 2147TIP3    H127932   5.400   2.310   4.235  0.3164  2.0503  0.5727
 2147TIP3    H227933   5.266   2.333   4.300 -0.5374 -0.2266 -0.2658
 2148TIP3   OH227934   3.826   3.689   6.644  0.3714 -0.9337 -0.0048
 2148TIP3    H127935   3.764   3.672   6.715  0.0035  0.1280 -0.0563
 2148TIP3    H227936   3.840   3.603   6.603  0.6943 -1.5918  1.4131
 2149TIP3   OH227937   2.421   1.279   4.586  0.2709 -0.3077  0.0935
 2149TIP3    H127938   2.481   1.259   4.658 -0.8873  1.3868  1.6216
 2149TIP3    H227939   2.345   1.224   4.603  0.1157 -0.1204  0.0129
 2150TIP3   OH227940   4.587   3.416  12.943  0.1859  0.5346 -1.1434
 2150TIP3    H127941   4.539   3.481  12.892  0.7942  1.2240 -0.8419
 2150TIP3    H227942   4.547   3.419  13.030  0.6725  1.0178 -0.9286
 2151TIP3   OH227943   5.129   4.343   1.161  0.4420  0.0404  0.2214
 2151TIP3    H127944   5.153   4.292   1.084 -1.8533  0.6270 -0.9923
 2151TIP3    H227945   5.050   4.301   1.194 -0.1763  1.4203  0.5696
 2152TIP3   OH227946   5.952   2.824  13.553 -0.1336 -0.2358  0.2572
 2152TIP3    H127947   5.984   2.738  13.580 -1.2138 -0.4682  0.8359
 2152TIP3    H227948   6.009   2.849  13.480  1.3528 -0.6282  1.2451
 2153TIP3   OH227949   6.366   4.344  10.962 -0.1777 -0.1388 -0.1502
 2153TIP3    H127950   6.299   4.391  10.913 -0.5505  0.1091  0.5845
 2153TIP3    H227951   6.411   4.290  10.896 -1.3312 -0.5911 -0.5955
 2154TIP3   OH227952   3.286   5.772  14.102  0.5053  0.3788  0.0493
 2154TIP3    H127953   3.325   5.765  14.190  0.0508 -0.9056  0.1648
 2154TIP3    H227954   3.192   5.782  14.118  0.4351  0.2676 -0.2863
 2155TIP3   OH227955   5.195   6.276   2.072 -0.2030 -0.4623  0.2673
 2155TIP3    H127956   5.221   6.335   2.001 -0.8612  0.6030  0.8875
 2155TIP3    H227957   5.104   6.298   2.090 -0.6599 -2.1287  0.0946
 2156TIP3   OH227958   1.447   2.263  13.845 -0.2664 -0.0681 -0.1101
 2156TIP3    H127959   1.363   2.305  13.862  0.7051  1.0048  2.5363
 2156TIP3    H227960   1.511   2.334  13.848  0.9436 -1.0999 -0.3227
 2157TIP3   OH227961   3.601   0.832   3.123  0.4020  0.0369  0.1447
 2157TIP3    H127962   3.573   0.752   3.078 -1.3235  0.7836 -0.1931
 2157TIP3    H227963   3.573   0.902   3.064  2.7404  0.9008 -0.0254
 2158TIP3   OH227964   5.749   5.549   3.540 -0.0143 -0.1084 -0.9314
 2158TIP3    H127965   5.691   5.625   3.530 -0.4188 -0.4509 -1.1738
 2158TIP3    H227966   5.783   5.558   3.629  1.4114  1.3967 -1.5688
 2159TIP3   OH227967   5.810   0.695   4.199 -0.0241  0.0702  0.7544
 2159TIP3    H127968   5.738   0.704   4.261 -0.9863  0.5597 -0.3937
 2159TIP3    H227969   5.869   0.767   4.220 -0.6956  0.6623  0.6725
 2160TIP3   OH227970   1.976   5.104  15.389  0.1852  0.1264 -0.4489
 2160TIP3    H127971   1.906   5.143  15.337  0.3821  0.7315 -0.2643
 2160TIP3    H227972   1.930   5.058  15.460  0.0123  1.7987  0.5592
 2161TIP3   OH227973   5.548   1.530   5.016 -0.2395  0.3112 -0.1117
 2161TIP3    H127974   5.561   1.435   5.015 -1.4539  0.1259 -0.0210
 2161TIP3    H227975   5.627   1.565   4.975  0.8229 -0.6469  1.0316
 2162TIP3   OH227976   6.253   6.725  15.809  0.2875  0.2208  0.1327
 2162TIP3    H127977   6.165   6.696  15.833 -0.1014  1.8730  0.8234
 2162TIP3    H227978   6.247   6.820  15.804  2.4365  0.5597  2.0006
 2163TIP3   OH227979   4.754   2.021  11.304  0.0831  0.0507 -0.3309
 2163TIP3    H127980   4.775   2.047  11.214 -1.6145  2.3369 -0.1677
 2163TIP3    H227981   4.828   2.054  11.355  1.4651 -1.9878 -0.9057
 2164TIP3   OH227982   4.920   1.491   0.381  0.3178  0.6888 -1.1469
 2164TIP3    H127983   4.976   1.521   0.453  0.0535 -3.3483  1.0029
 2164TIP3    H227984   4.837   1.535   0.397 -0.3053 -1.3766  2.2817
 2165TIP3   OH227985   2.359   3.794  16.911 -0.3676  0.2228  0.2743
 2165TIP3    H127986   2.348   3.704  16.879 -0.7224 -0.1687  1.4126
 2165TIP3    H227987   2.425   3.786  16.980  1.4226  1.2623 -1.2185
 2166TIP3   OH227988   1.936   2.391  14.220  0.0828 -0.0824  0.3525
 2166TIP3    H127989   2.029   2.405  14.209  0.0848 -0.6091 -0.3852
 2166TIP3    H227990   1.905   2.469  14.267  1.0121 -0.2601  1.3062
 2167TIP3   OH227991   3.165   3.257  17.046  0.4961 -0.2412 -0.1989
 2167TIP3    H127992   3.179   3.294  17.133 -0.8001  2.0219 -0.8860
 2167TIP3    H227993   3.245   3.207  17.028  0.8122 -0.7209  2.2287
 2168TIP3   OH227994   3.892   6.485  16.528 -0.2148  0.3585  0.3611
 2168TIP3    H127995   3.821   6.537  16.566 -0.0515  0.0914  1.0390
 2168TIP3    H227996   3.855   6.451  16.446 -2.0615 -2.4023  2.1592
 2169TIP3   OH227997   4.959   6.102  14.704 -0.1207  0.2299  0.4025
 2169TIP3    H127998   4.935   6.101  14.611  0.3416  2.8132  0.1859
 2169TIP3    H227999   5.041   6.052  14.708 -0.2336 -0.0526 -0.5352
 2170TIP3   OH228000   0.607   6.084  13.617 -0.5481 -0.2339 -0.2756
 2170TIP3    H128001   0.677   6.073  13.681 -1.0387 -1.6811  0.0491
 2170TIP3    H228002   0.607   6.002  13.566  0.0791  1.0088 -2.4105
 2171TIP3   OH228003   1.061   4.536   5.337 -0.0795 -0.1968  1.0781
 2171TIP3    H128004   0.973   4.536   5.376 -1.6487 -2.7914 -1.9638
 2171TIP3    H228005   1.105   4.462   5.379 -1.2810 -2.1086 -0.7826
 2172TIP3   OH228006   3.617   1.055   1.036 -0.4622 -0.2336  0.5072
 2172TIP3    H128007   3.634   1.048   0.942  1.6486  0.0331  0.8384
 2172TIP3    H228008   3.527   1.088   1.041 -0.5636 -0.1206 -1.4197
 2173TIP3   OH228009   3.987   3.579  14.237 -0.1847  0.4050 -0.6110
 2173TIP3    H128010   3.954   3.499  14.197 -2.9171  2.1716 -2.2149
 2173TIP3    H228011   4.033   3.624  14.167 -1.6480  1.7565 -0.7493
 2174TIP3   OH228012   6.692   2.392  14.065  0.3411  0.1810 -0.1155
 2174TIP3    H128013   6.757   2.448  14.107 -0.1081  0.1374  0.6537
 2174TIP3    H228014   6.695   2.416  13.973  1.0010  0.6211  0.0157
 2175TIP3   OH228015   3.536   5.981  11.419 -0.1199  0.2869  0.2858
 2175TIP3    H128016   3.513   6.029  11.339 -1.9566 -0.3078  0.4081
 2175TIP3    H228017   3.628   5.960  11.408 -0.3606  0.0369 -1.8169
 2176TIP3   OH228018   4.843   6.477  14.733  0.2069 -0.3367 -0.1286
 2176TIP3    H128019   4.789   6.442  14.803  1.4099 -0.7638  0.6256
 2176TIP3    H228020   4.899   6.543  14.776 -0.0272  0.4289 -0.9674
 2177TIP3   OH228021   2.796   6.157   2.733  0.3248 -0.1489 -0.1899
 2177TIP3    H128022   2.814   6.212   2.657 -1.1900 -1.0438 -1.2767
 2177TIP3    H228023   2.746   6.083   2.697 -0.9424 -0.3183  1.7489
 2178TIP3   OH228024   3.850   3.545   4.324  0.1447 -0.7139 -0.0534
 2178TIP3    H128025   3.866   3.470   4.381  0.9556  1.5681  2.9508
 2178TIP3    H228026   3.938   3.569   4.293 -0.0897 -0.8242 -0.8285
 2179TIP3   OH228027   1.266   5.408   1.083  0.1929 -0.6467 -0.2189
 2179TIP3    H128028   1.344   5.431   1.032  0.6494 -1.0122  0.3036
 2179TIP3    H228029   1.199   5.390   1.017  0.4717 -0.0720 -0.6675
 2180TIP3   OH228030   3.047   5.917  12.070 -0.4275 -0.0428 -0.2747
 2180TIP3    H128031   2.990   5.989  12.097  0.0939 -0.0775  0.9753
 2180TIP3    H228032   3.093   5.951  11.993 -0.0437  1.0407  0.4162
 2181TIP3   OH228033   6.584   5.086   0.801  0.1380  0.3068 -0.3223
 2181TIP3    H128034   6.663   5.042   0.834  0.0179  0.4041  0.0983
 2181TIP3    H228035   6.512   5.030   0.829  0.1490 -1.0199 -2.6421
 2182TIP3   OH228036   0.000   0.116  13.137  0.2218  0.1469  0.0555
 2182TIP3    H128037   0.066   0.119  13.067 -0.7825 -0.3809 -0.9551
 2182TIP3    H228038   0.025   0.186  13.197  1.5874  0.0849 -0.3957
 2183TIP3   OH228039   5.035   4.346  12.110 -0.7198  0.0759 -0.0560
 2183TIP3    H128040   5.041   4.254  12.137 -0.6712  0.4020  1.0782
 2183TIP3    H228041   5.097   4.392  12.166  0.1117  0.6543 -1.4011
 2184TIP3   OH228042   4.980   3.448   5.620 -0.3299  0.8002 -0.0399
 2184TIP3    H128043   5.058   3.393   5.630 -1.6417 -0.7982  2.3802
 2184TIP3    H228044   5.011   3.525   5.572  2.7138  0.2088  0.7446
 2185TIP3   OH228045   1.533   3.431   2.078  0.1675 -0.5524 -0.9639
 2185TIP3    H128046   1.574   3.371   2.141 -0.6340 -0.7423 -0.5993
 2185TIP3    H228047   1.508   3.507   2.131 -2.7959 -1.7429 -0.4396
 2186TIP3   OH228048   0.098   1.062  13.606 -0.0860 -0.4763 -0.4359
 2186TIP3    H128049   0.150   1.039  13.683  2.4282 -1.8332 -2.4145
 2186TIP3    H228050   0.095   0.982  13.554 -0.1548  0.8707 -2.6124
 2187TIP3   OH228051   4.654   1.111  13.885 -0.4669 -0.3433 -0.4413
 2187TIP3    H128052   4.560   1.115  13.870 -0.4025  1.4554 -0.5635
 2187TIP3    H228053   4.664   1.123  13.979 -0.4063 -2.2635 -0.1617
 2188TIP3   OH228054   5.281   1.493   3.132 -0.1351  0.1015 -0.5593
 2188TIP3    H128055   5.296   1.407   3.171 -0.7120  0.0570 -0.4253
 2188TIP3    H228056   5.223   1.538   3.193 -0.0669  0.4817 -0.7691
 2189TIP3   OH228057   1.694   4.521  13.378  0.0771  0.2838 -0.5080
 2189TIP3    H128058   1.643   4.507  13.458  0.8520 -1.2348 -0.2511
 2189TIP3    H228059   1.754   4.593  13.401  1.0352 -0.8436  0.6764
 2190TIP3   OH228060   1.618   1.133  16.563 -0.3283 -0.0749  0.2005
 2190TIP3    H128061   1.537   1.105  16.605 -0.1949  0.1931  0.6496
 2190TIP3    H228062   1.685   1.120  16.630 -0.0047 -0.2591 -0.1542
 2191TIP3   OH228063   6.620   1.200  16.949 -0.2611 -0.0303  0.1044
 2191TIP3    H128064   6.566   1.121  16.951 -1.2910  0.6627  0.5222
 2191TIP3    H228065   6.671   1.192  16.868 -2.2644  0.0953 -1.2443
 2192TIP3   OH228066   0.479   0.788  15.895 -0.4009  0.1502  0.4922
 2192TIP3    H128067   0.497   0.833  15.812 -0.3956  0.0355  0.4310
 2192TIP3    H228068   0.564   0.752  15.922  0.1507  2.2260  1.7825
 2193TIP3   OH228069   3.986   5.004   4.634 -0.0768  0.2029  0.2611
 2193TIP3    H128070   3.933   5.078   4.662  0.6982  0.6072  0.6913
 2193TIP3    H228071   4.030   4.975   4.714 -1.5060 -1.6862  0.4428
 2194TIP3   OH228072   4.402   5.913   0.232  0.2067 -0.0767  0.4661
 2194TIP3    H128073   4.493   5.932   0.212 -0.1318  1.0866 -0.0505
 2194TIP3    H228074   4.357   5.997   0.221 -0.8018 -0.4645  1.4407
 2195TIP3   OH228075   1.112   5.353  13.750  0.0917 -0.6229 -0.2534
 2195TIP3    H128076   1.157   5.426  13.793  1.9430 -1.8174 -0.0600
 2195TIP3    H228077   1.106   5.380  13.658  0.0530  0.0881 -0.0510
 2196TIP3   OH228078   2.507   1.518   0.259 -0.1343  0.1936 -0.5942
 2196TIP3    H128079   2.557   1.527   0.178 -0.0340  1.7657 -0.3831
 2196TIP3    H228080   2.531   1.595   0.310 -2.3072  0.6914 -0.2334
 2197TIP3   OH228081   3.431   2.507   5.102 -0.3756 -0.6583 -1.0020
 2197TIP3    H128082   3.475   2.512   5.017 -1.3042  2.2447 -1.4445
 2197TIP3    H228083   3.476   2.572   5.156 -0.3282 -1.8850  0.5051
 2198TIP3   OH228084   4.879   5.137  12.583 -0.3396  0.5939  0.0764
 2198TIP3    H128085   4.883   5.194  12.660  0.7916  0.8027 -0.1085
 2198TIP3    H228086   4.934   5.062  12.606 -1.4519 -0.2089  0.1399
 2199TIP3   OH228087   0.472   6.270  16.621 -0.1837 -0.2682 -0.5014
 2199TIP3    H128088   0.491   6.183  16.585  0.2157  0.5324 -2.3456
 2199TIP3    H228089   0.557   6.310  16.636 -0.3659 -0.1658  0.3256
 2200TIP3   OH228090   5.962   3.598  17.089 -0.0860  0.7311  1.1413
 2200TIP3    H128091   5.879   3.605  17.042 -1.3866 -0.2452  3.1423
 2200TIP3    H228092   5.950   3.653  17.167  2.1715  2.6871  0.2019
 2201TIP3   OH228093   4.570   3.210   0.740  0.3272  0.7658  0.1153
 2201TIP3    H128094   4.478   3.222   0.716  0.6193  0.1527 -1.4403
 2201TIP3    H228095   4.575   3.120   0.773  0.5445  0.3922 -0.8824
 2202TIP3   OH228096   1.206   1.968  15.680 -0.5713 -0.3360 -0.3604
 2202TIP3    H128097   1.125   1.935  15.641 -0.3928 -1.3033  0.0428
 2202TIP3    H228098   1.274   1.911  15.644 -0.1232  0.2168 -0.3913
 2203TIP3   OH228099   4.993   4.755  13.656 -0.1217  0.2852  0.4472
 2203TIP3    H128100   5.031   4.802  13.731 -1.1868  2.2982 -0.2095
 2203TIP3    H228101   4.980   4.822  13.590 -3.6493 -0.4741  0.1889
 2204TIP3   OH228102   4.306   4.248   5.252  0.7283  0.0986  0.2718
 2204TIP3    H128103   4.321   4.241   5.158 -1.4282 -0.1600 -0.0956
 2204TIP3    H228104   4.280   4.338   5.266  1.1733  0.1721  0.6625
 2205TIP3   OH228105   1.605   5.299  13.010  0.1757  0.3873 -0.3295
 2205TIP3    H128106   1.510   5.304  13.005  0.0023 -2.3836 -2.9057
 2205TIP3    H228107   1.623   5.211  13.044  1.7721  0.2905 -1.2976
 2206TIP3   OH228108   5.567   4.615  14.302 -0.1146  0.0473  0.5314
 2206TIP3    H128109   5.591   4.523  14.313  0.9826  0.2190 -0.2282
 2206TIP3    H228110   5.647   4.664  14.323 -0.5238  0.8008  0.3873
 2207TIP3   OH228111   6.164   3.713   1.937  0.1344 -0.6108  0.1714
 2207TIP3    H128112   6.150   3.807   1.949  3.8709  0.1535 -0.1738
 2207TIP3    H228113   6.215   3.706   1.857 -2.2014 -3.2874 -1.2757
 2208TIP3   OH228114   5.240   2.645  10.469 -0.1085  0.2469 -0.4189
 2208TIP3    H128115   5.159   2.687  10.497  0.5502  1.3554 -0.1131
 2208TIP3    H228116   5.241   2.655  10.374 -0.7676 -0.5981 -0.5222
 2209TIP3   OH228117   0.182   4.604   4.152  0.1660 -0.3117  0.1790
 2209TIP3    H128118   0.220   4.688   4.177  1.1988  0.3729 -3.2673
 2209TIP3    H228119   0.255   4.554   4.116 -1.1873 -1.0716 -1.6402
 2210TIP3   OH228120   2.246   6.649   3.037  0.5424 -0.3293 -0.3840
 2210TIP3    H128121   2.232   6.617   3.126  1.8748  1.2981  0.4742
 2210TIP3    H228122   2.236   6.572   2.981 -1.3802 -1.1890  1.0424
 2211TIP3   OH228123   0.833   3.772  13.903  0.5738 -0.3155 -0.1957
 2211TIP3    H128124   0.837   3.848  13.961  0.2936 -0.6061  0.2140
 2211TIP3    H228125   0.747   3.777  13.863 -0.0787 -1.2510  1.0121
 2212TIP3   OH228126   4.141   6.289   6.331  0.1218  0.0722 -0.6674
 2212TIP3    H128127   4.193   6.214   6.360  1.5237  1.4833  0.6377
 2212TIP3    H228128   4.178   6.314   6.247 -0.5712 -0.8691 -1.2706
 2213TIP3   OH228129   0.730   5.493  14.250 -0.2816  0.0984 -0.0207
 2213TIP3    H128130   0.824   5.488  14.231 -0.8222  0.7090 -3.6663
 2213TIP3    H228131   0.725   5.524  14.340  2.9929 -0.1323  0.3653
 2214TIP3   OH228132   6.364   5.724   3.592 -0.1384  0.2280 -0.3003
 2214TIP3    H128133   6.280   5.679   3.587 -0.6074  0.9946  0.3461
 2214TIP3    H228134   6.423   5.662   3.636  0.0976 -0.9226 -2.1314
 2215TIP3   OH228135   0.387   3.944   3.574  0.0782  0.7537  0.2552
 2215TIP3    H128136   0.402   3.946   3.669  2.2677  1.4974 -0.0657
 2215TIP3    H228137   0.388   4.036   3.548  0.1269  0.5243 -0.5828
 2216TIP3   OH228138   4.357   2.851   6.509 -0.0249 -0.1100  0.0387
 2216TIP3    H128139   4.294   2.780   6.520 -0.7714  0.8188  2.0281
 2216TIP3    H228140   4.429   2.828   6.567 -0.2413  0.7115  0.6457
 2217TIP3   OH228141   0.949   2.246   2.934  0.1536 -0.3184  0.2516
 2217TIP3    H128142   1.015   2.179   2.916 -0.1053  0.0013 -2.2391
 2217TIP3    H228143   0.991   2.305   2.997  2.2725 -0.1302 -1.2384
 2218TIP3   OH228144   6.815   3.537   5.370 -0.2213  0.0178 -0.0976
 2218TIP3    H128145   6.831   3.497   5.284  0.6043 -0.8292  0.4192
 2218TIP3    H228146   6.764   3.472   5.418  1.1227 -0.4701  0.7509
 2219TIP3   OH228147   6.776   1.252   0.216  0.1967 -0.2300 -0.4250
 2219TIP3    H128148   6.708   1.212   0.162 -1.0834  0.5612  0.5444
 2219TIP3    H228149   6.773   1.345   0.194  2.3639 -0.4376 -1.8298
 2220TIP3   OH228150   4.957   3.220  11.658  0.1479 -0.2427  0.4701
 2220TIP3    H128151   5.018   3.293  11.647  1.6108 -1.3236  1.0554
 2220TIP3    H228152   4.931   3.225  11.750  1.9029 -1.6344  1.0982
 2221TIP3   OH228153   5.562   5.599  12.964  0.2312  0.0222 -0.0521
 2221TIP3    H128154   5.644   5.648  12.960 -0.2693  0.7988 -1.2927
 2221TIP3    H228155   5.555   5.572  13.056  1.5779  0.4279  0.1937
 2222TIP3   OH228156   4.187   0.751  13.121  0.7600  0.1950 -0.2211
 2222TIP3    H128157   4.245   0.816  13.083  0.7640  0.4935  0.2858
 2222TIP3    H228158   4.108   0.800  13.146  0.7396  0.0005  0.1074
 2223TIP3   OH228159   2.548   2.730   0.463 -0.1038 -0.2878 -0.0742
 2223TIP3    H128160   2.587   2.734   0.550  1.9591 -0.2355 -0.9508
 2223TIP3    H228161   2.617   2.758   0.404 -1.7614  0.6430 -1.6727
 2224TIP3   OH228162   0.772   3.078  13.433 -0.1677  0.1003 -0.4279
 2224TIP3    H128163   0.860   3.042  13.444 -0.6473 -2.3793 -3.5401
 2224TIP3    H228164   0.721   3.040  13.504  0.6568 -0.6363 -0.2183
 2225TIP3   OH228165   6.659   0.345   2.187 -0.3732  0.0793  0.1748
 2225TIP3    H128166   6.694   0.287   2.120 -2.3243  0.4224 -1.2383
 2225TIP3    H228167   6.574   0.308   2.210 -0.3551  0.7524  1.4549
 2226TIP3   OH228168   5.927   3.645  13.349 -0.3108  0.0226  0.8744
 2226TIP3    H128169   5.860   3.707  13.321 -0.5196  0.2712  1.8647
 2226TIP3    H228170   5.943   3.668  13.441  0.5973 -0.5112  0.8588
 2227TIP3   OH228171   6.234   0.712   3.810 -0.5129 -0.1019  0.4051
 2227TIP3    H128172   6.274   0.783   3.860  2.2308 -1.4564  0.2966
 2227TIP3    H228173   6.260   0.730   3.719  0.2233 -1.2042  0.3785
 2228TIP3   OH228174   6.537   1.226   5.522 -0.3192 -0.3016  0.5832
 2228TIP3    H128175   6.586   1.307   5.533 -1.7828  0.5443  1.2222
 2228TIP3    H228176   6.592   1.158   5.561  1.4169  0.1820 -0.9448
 2229TIP3   OH228177   3.163   3.483   0.309 -0.1550 -0.2465 -0.1341
 2229TIP3    H128178   3.222   3.558   0.303  0.5300 -0.6292  1.3742
 2229TIP3    H228179   3.078   3.522   0.330  0.0226  0.1532 -0.1531
 2230TIP3   OH228180   0.118   0.365  11.076  0.0741  0.1760 -0.2628
 2230TIP3    H128181   0.076   0.301  11.019 -2.1854  0.3220  1.1287
 2230TIP3    H228182   0.105   0.449  11.031  1.7778 -0.1057 -1.3818
 2231TIP3   OH228183   1.179   4.156  10.481  0.6048  0.8533  0.6822
 2231TIP3    H128184   1.245   4.196  10.538  0.3886  0.7781  0.9942
 2231TIP3    H228185   1.184   4.063  10.500 -0.5572  0.9787  1.7872
 2232TIP3   OH228186   1.794   0.274  16.841 -0.3252  0.0444 -0.1094
 2232TIP3    H128187   1.868   0.214  16.832 -1.6924 -1.9806  1.2367
 2232TIP3    H228188   1.809   0.318  16.925 -0.6398 -0.3943  0.1823
 2233TIP3   OH228189   6.523   2.764   5.616  0.3904 -0.2002  0.1855
 2233TIP3    H128190   6.463   2.833   5.585  2.1967  1.0494 -0.6937
 2233TIP3    H228191   6.561   2.728   5.536  1.4764 -0.3419  0.7492
 2234TIP3   OH228192   1.007   6.276   6.060 -0.4218 -0.9309 -0.0056
 2234TIP3    H128193   1.050   6.215   6.120 -0.6901  0.0287  1.2049
 2234TIP3    H228194   0.930   6.307   6.108 -0.3522  0.2784 -0.6322
 2235TIP3   OH228195   0.104   0.233  11.336 -0.7320 -0.3696 -0.6420
 2235TIP3    H128196   0.093   0.140  11.313  0.4058 -0.6344 -0.2395
 2235TIP3    H228197   0.095   0.279  11.253 -2.2090 -0.7348 -0.7137
 2236TIP3   OH228198   3.349   2.403  17.162 -0.3494 -0.0136  0.1174
 2236TIP3    H128199   3.419   2.410  17.227  0.0795  0.5846 -0.3938
 2236TIP3    H228200   3.294   2.332  17.194 -0.1667  0.2854  1.1481
 2237TIP3   OH228201   1.612   1.331  12.192  0.4263 -0.2560  0.0113
 2237TIP3    H128202   1.691   1.372  12.157 -0.6893  1.7255 -0.2939
 2237TIP3    H228203   1.617   1.346  12.287  0.0490  0.5346 -0.0936
 2238TIP3   OH228204   2.402   2.338   3.563  0.1645  0.7922 -0.8437
 2238TIP3    H128205   2.479   2.300   3.520  0.7545  1.3613 -0.3130
 2238TIP3    H228206   2.438   2.406   3.620 -0.3911 -1.0051  1.8381
 2239TIP3   OH228207   3.866   5.219   4.286 -0.3683 -0.3772 -0.3711
 2239TIP3    H128208   3.958   5.210   4.309 -0.3706 -0.8826 -0.5282
 2239TIP3    H228209   3.822   5.243   4.367 -0.4333 -2.4992  0.2880
 2240TIP3   OH228210   5.075   5.492   5.432 -0.1474 -0.4635 -0.6719
 2240TIP3    H128211   5.085   5.455   5.519  0.4081  0.2818 -0.4070
 2240TIP3    H228212   5.158   5.472   5.388 -0.5267 -1.0734 -1.1334
 2241TIP3   OH228213   4.667   0.121   1.492  0.3864 -0.2785 -0.2726
 2241TIP3    H128214   4.651   0.215   1.485 -0.3536 -0.3059  0.7312
 2241TIP3    H228215   4.651   0.101   1.584  2.3311 -1.0842 -0.0791
 2242TIP3   OH228216   5.902   5.004   5.156 -0.7204 -0.3438 -0.2018
 2242TIP3    H128217   5.940   4.953   5.085 -0.3930  0.1719 -0.4050
 2242TIP3    H228218   5.888   4.941   5.226  2.5249 -0.2467  0.7089
 2243TIP3   OH228219   0.333   0.305   3.583  0.1834  0.5685  0.2229
 2243TIP3    H128220   0.305   0.287   3.494  2.0127  0.0939 -0.3057
 2243TIP3    H228221   0.379   0.226   3.611  0.8910  1.2310  1.0428
 2244TIP3   OH228222   0.730   5.507   1.526 -0.2331  1.2300 -0.1767
 2244TIP3    H128223   0.702   5.418   1.544  1.5908  0.4756 -0.8155
 2244TIP3    H228224   0.651   5.550   1.492 -1.5822  0.3960  1.7288
 2245TIP3   OH228225   1.938   5.899  11.116  0.2145  0.1335 -0.5401
 2245TIP3    H128226   2.028   5.920  11.141  0.0953  0.5021 -0.4192
 2245TIP3    H228227   1.889   5.903  11.198 -0.0708  0.7681 -0.7405
 2246TIP3   OH228228   5.056   3.309   0.806 -0.3206 -0.1096  0.6624
 2246TIP3    H128229   5.105   3.295   0.887 -2.0742  1.2217  2.0419
 2246TIP3    H228230   4.971   3.343   0.834 -0.4484  1.9423 -1.7953
 2247TIP3   OH228231   2.744   3.474   0.951 -0.2747 -0.9126 -0.0419
 2247TIP3    H128232   2.768   3.441   1.038 -0.7842  1.3608  1.0219
 2247TIP3    H228233   2.826   3.510   0.916 -0.3693 -0.5306  0.1230
 2248TIP3   OH228234   6.595   0.593   0.846  0.0386  0.0808  0.4640
 2248TIP3    H128235   6.505   0.563   0.840  0.0083 -0.0871  1.5318
 2248TIP3    H228236   6.619   0.617   0.757 -0.8877 -0.3702  0.0877
 2249TIP3   OH228237   6.178   3.009  12.302 -0.5146 -0.1220 -0.4036
 2249TIP3    H128238   6.098   2.959  12.283 -1.2582  0.0273  2.0749
 2249TIP3    H228239   6.148   3.099  12.310 -0.5011 -0.2906  2.3392
 2250TIP3   OH228240   1.378   1.143   4.110  0.4785  0.2899 -0.2205
 2250TIP3    H128241   1.445   1.181   4.053  0.7673 -1.8802 -1.4409
 2250TIP3    H228242   1.301   1.133   4.053  0.1133 -0.0605  0.3239
 2251TIP3   OH228243   1.583   2.115   0.424  0.1952 -0.0863  0.0425
 2251TIP3    H128244   1.589   2.163   0.341 -1.5215 -2.9061 -1.8897
 2251TIP3    H228245   1.490   2.091   0.431  0.8585 -2.6802  1.0993
 2252TIP3   OH228246   2.184   5.711   3.962 -0.1129  0.0108  0.0697
 2252TIP3    H128247   2.182   5.619   3.938 -1.2919  0.6955 -2.8924
 2252TIP3    H228248   2.099   5.726   4.005  0.2980 -0.3573  1.0373
 2253TIP3   OH228249   3.489   1.139   5.922  0.3922  0.2221 -0.0882
 2253TIP3    H128250   3.406   1.141   5.969 -0.5210  0.5241 -1.6357
 2253TIP3    H228251   3.472   1.084   5.845  1.3667  0.9653 -0.8718
 2254TIP3   OH228252   0.594   5.648   3.941  0.6229 -0.4346 -0.2363
 2254TIP3    H128253   0.499   5.635   3.938  0.4458  0.9044 -0.7235
 2254TIP3    H228254   0.629   5.568   3.900 -0.3389 -0.3926 -1.2117
 2255TIP3   OH228255   0.464   2.254  12.393 -0.2378  0.3992  0.0495
 2255TIP3    H128256   0.373   2.229  12.411 -0.1939  0.5306  0.4742
 2255TIP3    H228257   0.480   2.328  12.451  0.2702  0.1049  0.2908
 2256TIP3   OH228258   0.481   3.933  13.086 -0.1989 -0.1457  0.0119
 2256TIP3    H128259   0.460   3.881  13.163  0.2838  1.9607  1.6404
 2256TIP3    H228260   0.542   3.879  13.036 -1.1509 -1.8875  0.6547
 2257TIP3   OH228261   1.493   5.629  16.531  0.2570  0.5598 -0.5288
 2257TIP3    H128262   1.488   5.669  16.444 -1.6694 -1.5280 -1.4836
 2257TIP3    H228263   1.463   5.539  16.518  1.5748 -0.3598  2.0180
 2258TIP3   OH228264   0.901   0.536  13.627  0.1030  0.1267  0.0347
 2258TIP3    H128265   0.986   0.580  13.633 -0.5786  1.6085 -0.5391
 2258TIP3    H228266   0.859   0.556  13.711  0.9860 -2.1795  1.1015
 2259TIP3   OH228267   6.388   6.206   1.136 -0.3202 -0.2148 -0.0025
 2259TIP3    H128268   6.419   6.170   1.053  0.6808  0.5299  0.0319
 2259TIP3    H228269   6.441   6.163   1.203  1.0951  1.4717  0.0208
 2260TIP3   OH228270   3.911   2.367   1.963  0.0968  0.5173  0.7086
 2260TIP3    H128271   3.836   2.383   2.021  0.0861 -1.2047  1.2281
 2260TIP3    H228272   3.986   2.403   2.010 -0.2557  1.4441  0.5908
 2261TIP3   OH228273   0.308   2.801   4.917 -0.9602  0.5851 -0.5915
 2261TIP3    H128274   0.322   2.860   4.843 -1.8094  1.5885  0.0132
 2261TIP3    H228275   0.229   2.835   4.960 -0.5819 -0.0597  0.6697
 2262TIP3   OH228276   4.406   6.080  14.734 -0.2204 -0.5183 -0.2283
 2262TIP3    H128277   4.350   6.050  14.662  0.7127 -2.0097 -0.3920
 2262TIP3    H228278   4.459   6.150  14.696  0.3321 -1.3589 -1.0658
 2263TIP3   OH228279   5.560   5.553   3.900 -0.5558  0.3534  0.1737
 2263TIP3    H128280   5.632   5.608   3.868  0.1700  0.0622  1.2497
 2263TIP3    H228281   5.484   5.581   3.850  0.0487  1.5329 -0.1126
 2264TIP3   OH228282   1.604   2.491   6.237  0.4395  0.2171 -0.5046
 2264TIP3    H128283   1.542   2.420   6.252 -0.7057  0.5723 -2.9949
 2264TIP3    H228284   1.664   2.487   6.311 -1.9513 -0.7730  1.4981
 2265TIP3   OH228285   4.362   4.214   2.714  0.4057 -0.4674  0.0947
 2265TIP3    H128286   4.395   4.222   2.624  1.5301 -0.4315  0.4961
 2265TIP3    H228287   4.331   4.124   2.720  2.0070 -1.0452  0.1993
 2266TIP3   OH228288   1.344   3.207  12.671  0.2847 -0.5559  0.2464
 2266TIP3    H128289   1.347   3.143  12.599 -2.0509 -0.3473 -0.0969
 2266TIP3    H228290   1.265   3.184  12.720 -0.1558  1.5562  0.6089
 2267TIP3   OH228291   3.807   3.708  13.552  0.1309 -1.1416 -0.1394
 2267TIP3    H128292   3.721   3.746  13.571  0.7899  1.6267 -2.0307
 2267TIP3    H228293   3.862   3.734  13.625  0.5320  1.6704 -1.3342
 2268TIP3   OH228294   2.433   5.382   0.950 -0.6971  0.0956 -0.3446
 2268TIP3    H128295   2.376   5.417   0.882 -1.0360  0.4198  0.0986
 2268TIP3    H228296   2.445   5.455   1.012 -1.8721 -0.7142  0.8924
 2269TIP3   OH228297   0.375   5.654   3.586 -0.0427 -0.0538 -0.5386
 2269TIP3    H128298   0.469   5.667   3.604 -0.1722  1.1266 -0.6507
 2269TIP3    H228299   0.372   5.628   3.494  0.1872 -0.4648 -0.4384
 2270TIP3   OH228300   2.156   6.701  14.276  0.1347 -0.5040 -0.2642
 2270TIP3    H128301   2.194   6.788  14.291  0.1505 -0.6120  0.3418
 2270TIP3    H228302   2.217   6.659  14.215 -0.2319  0.1500 -1.0922
 2271TIP3   OH228303   3.653   1.800  13.338 -0.0245 -0.3512 -0.0746
 2271TIP3    H128304   3.628   1.719  13.293 -0.5199 -2.3882  3.5224
 2271TIP3    H228305   3.743   1.816  13.310  0.1354 -2.2158 -0.7857
 2272TIP3   OH228306   5.247   4.851  12.310 -0.0077 -0.3061  0.2672
 2272TIP3    H128307   5.172   4.904  12.282  1.9242  1.7827 -1.4698
 2272TIP3    H228308   5.299   4.911  12.364  2.2561 -0.2704 -1.7508
 2273TIP3   OH228309   0.590   5.296  11.238 -0.1481 -0.4506 -0.0072
 2273TIP3    H128310   0.663   5.243  11.206 -0.3266 -1.6651  1.4781
 2273TIP3    H228311   0.516   5.271  11.183  0.1403 -0.5295 -0.3636
 2274TIP3   OH228312   4.491   0.623  14.353 -0.3493 -0.3318  0.3129
 2274TIP3    H128313   4.563   0.565  14.376  0.5447 -0.0029 -1.4474
 2274TIP3    H228314   4.525   0.711  14.368 -1.4577 -0.1874  2.3009
 2275TIP3   OH228315   0.871   3.471  14.653 -0.3568  0.1072  0.0197
 2275TIP3    H128316   0.957   3.491  14.615 -1.0418 -0.4498 -1.9831
 2275TIP3    H228317   0.890   3.443  14.742  1.5134  0.2851 -0.2792
 2276TIP3   OH228318   6.118   3.803  12.483  0.0703 -0.5076 -0.0574
 2276TIP3    H128319   6.118   3.892  12.449 -2.2004  0.6197  2.4946
 2276TIP3    H228320   6.208   3.772  12.471  1.1715  2.4519 -0.1721
 2277TIP3   OH228321   3.133   2.291   2.892  0.1894 -0.1542 -0.0584
 2277TIP3    H128322   3.081   2.211   2.898  0.1131 -0.1028 -0.0221
 2277TIP3    H228323   3.092   2.351   2.955  0.0125  0.0455 -0.3640
 2278TIP3   OH228324   1.555   4.082   1.570 -0.2821 -0.3768  0.3138
 2278TIP3    H128325   1.603   4.096   1.488 -0.8123  1.6355  0.2739
 2278TIP3    H228326   1.608   4.127   1.636 -1.5331  1.0207  0.4330
 2279TIP3   OH228327   3.516   3.070   3.733 -0.0478  0.0324 -0.0999
 2279TIP3    H128328   3.566   3.019   3.670 -0.1468 -0.6395  0.3477
 2279TIP3    H228329   3.469   3.004   3.785  0.0348  0.5630  0.6690
 2280TIP3   OH228330   1.214   3.624   4.543  0.2805 -0.1134 -0.0818
 2280TIP3    H128331   1.191   3.680   4.469 -1.8813 -0.6398  0.1241
 2280TIP3    H228332   1.268   3.680   4.599 -0.5177  1.2670 -0.6340
 2281TIP3   OH228333   4.534   3.427   4.750 -0.3855 -0.2962  0.1169
 2281TIP3    H128334   4.564   3.400   4.663 -0.1791 -0.5375  0.2614
 2281TIP3    H228335   4.439   3.433   4.742 -0.3681 -0.3418 -0.1203
 2282TIP3   OH228336   5.458   0.549   1.705  0.0541  0.5315 -0.0051
 2282TIP3    H128337   5.395   0.493   1.660 -0.3359 -0.8512  2.1190
 2282TIP3    H228338   5.425   0.557   1.794  1.8832  1.3425  0.6636
 2283TIP3   OH228339   1.143   0.481  16.772 -0.3620 -0.5169 -0.0367
 2283TIP3    H128340   1.182   0.460  16.857 -0.0592 -1.1354 -0.3187
 2283TIP3    H228341   1.218   0.494  16.714 -0.4652  2.6292  0.3651
 2284TIP3   OH228342   3.874   2.690  11.202  1.0694 -0.3663 -0.1936
 2284TIP3    H128343   3.868   2.751  11.275 -0.4455 -1.0175  0.2664
 2284TIP3    H228344   3.783   2.680  11.172  1.6084 -0.4612 -1.8696
 2285TIP3   OH228345   3.746   4.823  11.475 -0.0986  0.4187  0.4983
 2285TIP3    H128346   3.800   4.836  11.553  0.7632 -3.3680  0.7399
 2285TIP3    H228347   3.806   4.833  11.401 -0.1011  0.5315  0.5111
 2286TIP3   OH228348   4.146   0.869   2.565 -0.0258  0.1124 -0.2579
 2286TIP3    H128349   4.125   0.845   2.474  0.1679 -0.3215 -0.1943
 2286TIP3    H228350   4.230   0.825   2.582 -0.5101 -0.5593  0.4296
 2287TIP3   OH228351   3.797   2.558   4.875  0.2752  0.1550 -0.0906
 2287TIP3    H128352   3.796   2.465   4.852  0.0706 -0.2087  1.3038
 2287TIP3    H228353   3.887   2.574   4.903  0.4297  0.5009 -0.7728
 2288TIP3   OH228354   3.027   3.622   3.024  0.4360 -0.0730 -0.8788
 2288TIP3    H128355   3.045   3.673   3.103  2.5167 -1.3716 -0.4277
 2288TIP3    H228356   2.932   3.615   3.020  0.2857 -0.6469  1.9729
 2289TIP3   OH228357   6.365   2.688   0.180  0.1527  0.0845  0.1585
 2289TIP3    H128358   6.416   2.648   0.250  1.4722 -0.1031 -0.8556
 2289TIP3    H228359   6.278   2.651   0.189 -0.3089  1.6279  2.9293
 2290TIP3   OH228360   5.303   6.207  14.967 -0.0255  0.0773 -0.0270
 2290TIP3    H128361   5.304   6.111  14.965 -0.3246  0.0738 -0.1116
 2290TIP3    H228362   5.250   6.231  14.891 -0.1965  0.3027  0.1646
 2291TIP3   OH228363   0.005   2.775  10.647 -0.1210 -0.1529 -0.2726
 2291TIP3    H128364   0.036   2.746  10.733  1.1231 -1.1629 -1.0266
 2291TIP3    H228365   0.082   2.814  10.605 -0.9046  1.0630 -0.6500
 2292TIP3   OH228366   0.764   0.135   5.685 -0.0129  0.0093 -0.2381
 2292TIP3    H128367   0.769   0.092   5.599  0.6747 -0.6212  0.1043
 2292TIP3    H228368   0.853   0.129   5.720 -0.6460 -1.3522  1.2774
 2293TIP3   OH228369   2.046   1.208  16.770 -0.0815 -0.3064  0.5853
 2293TIP3    H128370   2.050   1.293  16.727 -0.1190 -0.2837  0.6273
 2293TIP3    H228371   2.133   1.170  16.756  0.0519 -0.1094  0.8776
 2294TIP3   OH228372   1.922   2.332  13.053 -0.0351 -0.1004  0.0468
 2294TIP3    H128373   1.856   2.388  13.012  0.9949 -0.0336 -1.6263
 2294TIP3    H228374   1.999   2.388  13.062  0.1661 -0.4988  0.8955
 2295TIP3   OH228375   5.335   4.996  13.637 -0.2516 -0.6145  0.3473
 2295TIP3    H128376   5.399   4.977  13.568 -1.6599 -2.6581 -0.5055
 2295TIP3    H228377   5.272   5.054  13.595 -0.5261 -0.9864  0.2381
 2296TIP3   OH228378   1.405   4.313  12.683  0.3719  0.6538 -0.3395
 2296TIP3    H128379   1.400   4.314  12.779 -0.4477  2.4630 -0.3562
 2296TIP3    H228380   1.465   4.384  12.662 -0.3518  1.0452 -1.1692
 2297TIP3   OH228381   4.756   1.825   2.314  0.0705 -0.2391 -0.2713
 2297TIP3    H128382   4.812   1.902   2.305 -0.1141 -0.0598  0.1030
 2297TIP3    H228383   4.797   1.774   2.384  0.3103 -0.5887 -0.6569
 2298TIP3   OH228384   1.918   6.392  16.229  0.0438  0.6586 -0.4377
 2298TIP3    H128385   1.956   6.457  16.170  0.7218  0.3847 -0.3106
 2298TIP3    H228386   1.965   6.311  16.210 -0.6261  0.2537 -0.4232
 2299TIP3   OH228387   2.323   1.697   1.930  0.4664  0.4931 -0.0269
 2299TIP3    H128388   2.324   1.660   2.018  1.1773  0.9867  0.1795
 2299TIP3    H228389   2.351   1.788   1.941  0.7626  0.5041 -0.7884
 2300TIP3   OH228390   6.118   1.208   1.760 -0.3199  0.2773 -0.4564
 2300TIP3    H128391   6.047   1.157   1.798  0.3920 -0.7549 -0.4516
 2300TIP3    H228392   6.076   1.286   1.724 -1.3195  0.1220  0.3422
 2301TIP3   OH228393   1.077   3.327   2.432  0.6295  0.0545 -0.0150
 2301TIP3    H128394   1.136   3.384   2.383 -0.7667 -0.4823 -2.4696
 2301TIP3    H228395   0.990   3.364   2.416  0.1201  0.1387  2.5511
 2302TIP3   OH228396   3.522   0.461   5.309 -0.5109  0.2728  0.0391
 2302TIP3    H128397   3.601   0.483   5.259 -1.0328 -0.0387 -0.9537
 2302TIP3    H228398   3.503   0.540   5.359  1.2318 -0.1169  1.4253
 2303TIP3   OH228399   5.949   4.379   5.485  0.3586 -0.1903 -0.2856
 2303TIP3    H128400   5.931   4.339   5.570  0.7673 -0.2904 -0.2446
 2303TIP3    H228401   5.987   4.308   5.433  0.6867  0.0325 -0.3519
 2304TIP3   OH228402   6.389   2.614   2.831 -0.1510  0.2703 -0.3490
 2304TIP3    H128403   6.314   2.654   2.787  1.4252  1.9156 -1.7275
 2304TIP3    H228404   6.400   2.664   2.912 -0.3234  0.2720 -0.3272
 2305TIP3   OH228405   1.511   6.470   5.422  0.0260  0.1424 -0.1537
 2305TIP3    H128406   1.431   6.520   5.408 -1.0322 -1.2156  0.7528
 2305TIP3    H228407   1.532   6.483   5.514  0.2019 -0.4013 -0.1099
 2306TIP3   OH228408   6.495   4.772   0.217  0.1513 -0.4302 -0.0188
 2306TIP3    H128409   6.455   4.811   0.294  0.3496  0.4592 -0.3558
 2306TIP3    H228410   6.421   4.740   0.166  0.0516 -1.6249  0.8397
 2307TIP3   OH228411   4.511   6.800  15.471  0.1147 -0.2404  0.0611
 2307TIP3    H128412   4.449   6.773  15.403 -0.3062 -0.3399  0.4839
 2307TIP3    H228413   4.471   6.771  15.553  0.8106 -0.4742  0.3227
 2308TIP3   OH228414   6.517   2.570  10.722  0.7634 -0.0075  0.9201
 2308TIP3    H128415   6.487   2.647  10.675  0.2013  0.8159  2.5623
 2308TIP3    H228416   6.592   2.600  10.773  0.6639 -0.5910  1.4241
 2309TIP3   OH228417   0.707   6.706   5.258  0.5747 -0.0705 -0.4831
 2309TIP3    H128418   0.741   6.618   5.277 -1.5510 -0.7400  0.5051
 2309TIP3    H228419   0.614   6.701   5.281 -0.0221  1.9192 -2.1721
 2310TIP3   OH228420   2.590   4.367  16.297  0.6823  0.3666  0.1142
 2310TIP3    H128421   2.670   4.404  16.261  0.3658  0.7371 -0.2298
 2310TIP3    H228422   2.549   4.323  16.222  1.8139 -2.0810  0.8345
 2311TIP3   OH228423   3.060   0.887   2.781  0.3886 -0.0055  0.1244
 2311TIP3    H128424   3.142   0.858   2.820  0.5604  0.0546 -0.1824
 2311TIP3    H228425   3.012   0.807   2.762  0.4170 -0.0452  0.2235
 2312TIP3   OH228426   3.135   2.945  13.335 -0.0698 -0.5940  0.1550
 2312TIP3    H128427   3.212   2.893  13.358  0.2112 -1.0238 -1.5781
 2312TIP3    H228428   3.149   3.030  13.377  1.3128 -0.7027 -0.0516
 2313TIP3   OH228429   1.882   5.498  12.744 -0.1589 -0.1723 -0.2111
 2313TIP3    H128430   1.853   5.472  12.831 -0.5922 -1.3406 -0.6811
 2313TIP3    H228431   1.806   5.482  12.688 -0.1537  1.3162 -0.6951
 2314TIP3   OH228432   1.370   3.152   2.373 -0.3270 -0.4799  0.6675
 2314TIP3    H128433   1.381   3.064   2.409 -0.3784 -0.8679 -0.2326
 2314TIP3    H228434   1.284   3.181   2.405 -0.2598 -0.7015  1.0571
 2315TIP3   OH228435   3.029   6.534   4.651 -0.1666 -0.5792 -0.2915
 2315TIP3    H128436   3.048   6.441   4.639 -0.7012 -0.6153 -0.9077
 2315TIP3    H228437   2.996   6.563   4.566 -0.6422  0.0169  0.0858
 2316TIP3   OH228438   2.148   6.732  15.292 -0.2509  0.1357  0.0694
 2316TIP3    H128439   2.211   6.718  15.362  0.3408  0.3318 -0.4188
 2316TIP3    H228440   2.191   6.699  15.213 -0.6329  0.5456 -0.3169
 2317TIP3   OH228441   3.172   1.846   5.304 -0.3210 -0.1137 -0.0509
 2317TIP3    H128442   3.193   1.754   5.293  0.3435 -0.0673  0.7372
 2317TIP3    H228443   3.257   1.890   5.310 -0.6246  0.5842 -0.6626
 2318TIP3   OH228444   4.634   3.910  15.103  0.0105 -0.3853  0.1807
 2318TIP3    H128445   4.616   3.836  15.044  1.1164 -0.2226 -0.3919
 2318TIP3    H228446   4.729   3.908  15.115  0.2118  1.5745 -0.7158
 2319TIP3   OH228447   6.490   3.943  11.939  0.2872 -0.3616  0.1927
 2319TIP3    H128448   6.482   4.018  11.880  0.0402 -0.9235 -0.4974
 2319TIP3    H228449   6.580   3.912  11.925  0.4387 -0.1201  0.5868
 2320TIP3   OH228450   6.296   6.731  11.433 -0.3189  0.2241 -0.5793
 2320TIP3    H128451   6.208   6.728  11.472  0.5034 -0.7755  1.2716
 2320TIP3    H228452   6.314   6.825  11.425 -1.3524  0.4441 -0.5781
 2321TIP3   OH228453   1.856   3.458  15.354 -0.0403  0.1415  0.0576
 2321TIP3    H128454   1.784   3.421  15.304 -0.5703 -0.7946  1.4501
 2321TIP3    H228455   1.935   3.434  15.305 -0.6085  0.3520 -0.9706
 2322TIP3   OH228456   0.458   3.285  11.260 -0.0694 -0.1994  0.0868
 2322TIP3    H128457   0.403   3.276  11.182  0.1349 -2.1458  0.1197
 2322TIP3    H228458   0.398   3.317  11.327 -1.1715 -2.0112  0.0477
 2323TIP3   OH228459   0.269   0.383   3.944  0.2230 -0.2807  0.1357
 2323TIP3    H128460   0.270   0.293   3.912 -0.1111 -0.1307 -0.3057
 2323TIP3    H228461   0.176   0.400   3.963  0.0534  0.4775 -1.2550
 2324TIP3   OH228462   5.387   2.204  15.855  0.1967  0.5513  0.3224
 2324TIP3    H128463   5.378   2.226  15.948 -0.1679  1.8932 -0.0157
 2324TIP3    H228464   5.336   2.124  15.844 -1.5275  1.5353  0.8579
 2325TIP3   OH228465   1.591   3.620  14.262  0.0343  0.3897 -0.0795
 2325TIP3    H128466   1.539   3.573  14.196 -0.4379  1.1026 -0.2313
 2325TIP3    H228467   1.618   3.553  14.324 -1.8306  0.1180  0.5058
 2326TIP3   OH228468   6.220   0.695   3.534 -0.3200 -0.2507  0.2404
 2326TIP3    H128469   6.253   0.779   3.502 -0.3990  0.1062  1.0548
 2326TIP3    H228470   6.127   0.697   3.515 -0.4390  0.1307  0.8198
 2327TIP3   OH228471   5.980   6.677  15.606  0.4735  0.5468  0.1063
 2327TIP3    H128472   6.005   6.622  15.680 -1.4069 -0.5385 -0.0177
 2327TIP3    H228473   5.955   6.616  15.537  0.4990  1.5547 -0.8284
 2328TIP3   OH228474   4.536   3.281  15.015  0.0716  0.2226 -0.1173
 2328TIP3    H128475   4.549   3.295  14.921  1.6247  1.6757  0.2592
 2328TIP3    H228476   4.492   3.361  15.045  0.5885  0.2551  0.5782
 2329TIP3   OH228477   0.830   5.161  11.883  0.1320  0.2510  0.1371
 2329TIP3    H128478   0.763   5.121  11.828  1.0346 -0.8954 -0.1595
 2329TIP3    H228479   0.836   5.252  11.851  1.0195 -0.5121 -2.0936
 2330TIP3   OH228480   0.618   5.865   3.328  0.5006  0.1190  0.1964
 2330TIP3    H128481   0.606   5.824   3.414 -2.5806  0.1312 -0.1378
 2330TIP3    H228482   0.534   5.905   3.308 -0.0319 -2.5064 -4.2046
 2331TIP3   OH228483   0.353   3.501   0.955  0.1379 -0.3869  0.2261
 2331TIP3    H128484   0.438   3.458   0.945  1.0198  1.4291 -0.7031
 2331TIP3    H228485   0.366   3.587   0.915 -1.6835  0.5318  1.5120
 2332TIP3   OH228486   4.730   1.267   3.673  0.0294  0.5856 -0.2860
 2332TIP3    H128487   4.769   1.201   3.615 -0.8981 -2.3102  2.1229
 2332TIP3    H228488   4.642   1.281   3.637 -0.7995 -1.7118  0.6527
 2333TIP3   OH228489   2.137   4.059   1.665  0.1150  0.3503 -0.3943
 2333TIP3    H128490   2.119   4.153   1.670  2.4913  0.8067  2.0283
 2333TIP3    H228491   2.194   4.050   1.588  0.0013  0.9154 -0.5538
 2334TIP3   OH228492   0.869   2.047  13.420 -0.3360 -0.1042 -0.3394
 2334TIP3    H128493   0.927   1.991  13.471 -0.6838 -0.9320 -0.8463
 2334TIP3    H228494   0.781   2.023  13.449 -0.4658  0.9663  0.2417
 2335TIP3   OH228495   5.215   5.181   4.484  0.5695 -0.1993  0.1547
 2335TIP3    H128496   5.270   5.176   4.406  1.0723  0.8008  0.4270
 2335TIP3    H228497   5.144   5.241   4.461 -1.7156 -3.0763 -0.9236
 2336TIP3   OH228498   0.812   0.172  13.522 -0.2895 -0.2299  0.1950
 2336TIP3    H128499   0.895   0.210  13.551 -1.0424  0.6318  1.2998
 2336TIP3    H228500   0.815   0.179  13.426  0.2828  1.1505  0.2886
 2337TIP3   OH228501   1.122   3.848  11.572 -0.4441 -0.5872 -0.1877
 2337TIP3    H128502   1.039   3.844  11.525 -0.0819 -0.0297 -0.8918
 2337TIP3    H228503   1.106   3.799  11.653 -0.5763 -3.1174 -1.6352
 2338TIP3   OH228504   3.245   0.233  14.924 -0.3326 -0.1712 -0.1150
 2338TIP3    H128505   3.191   0.219  15.002  0.5700 -0.0335  0.5542
 2338TIP3    H228506   3.279   0.146  14.903  2.2996  0.2622  1.8301
 2339TIP3   OH228507   1.026   3.218   4.848 -0.0272 -0.3452  0.1080
 2339TIP3    H128508   1.066   3.304   4.840 -0.5647  0.1141  1.9979
 2339TIP3    H228509   1.101   3.157   4.849  0.5029  0.3042  1.1863
 2340TIP3   OH228510   4.488   3.610   0.033  0.0284  0.4129 -0.3567
 2340TIP3    H128511   4.553   3.630  -0.034  0.8038 -0.4771  0.1045
 2340TIP3    H228512   4.507   3.671   0.105  1.3600 -0.8439  0.3989
 2341TIP3   OH228513   0.976   3.676   2.141 -0.0465  0.3514  0.3535
 2341TIP3    H128514   1.051   3.723   2.106 -0.2245 -0.0322 -0.5761
 2341TIP3    H228515   0.926   3.649   2.064 -1.5209  1.1996  0.9724
 2342TIP3   OH228516   4.743   5.017  14.659  0.1701 -0.2375 -0.2682
 2342TIP3    H128517   4.747   5.111  14.642 -0.3604 -0.3397 -0.9797
 2342TIP3    H228518   4.677   5.009  14.728 -0.3398 -0.1468 -0.7338
 2343TIP3   OH228519   1.706   2.182   4.645 -0.2080  0.5195 -0.5457
 2343TIP3    H128520   1.654   2.245   4.694  0.5403  0.1749  0.7354
 2343TIP3    H228521   1.797   2.211   4.655  0.0057  0.1281 -1.2597
 2344TIP3   OH228522   6.682   2.521   2.198 -0.2973  0.0754 -0.6064
 2344TIP3    H128523   6.664   2.588   2.132 -0.9003  0.5254  0.0150
 2344TIP3    H228524   6.770   2.541   2.229 -0.5309  0.6636 -0.3196
 2345TIP3   OH228525   0.748   6.080   5.627  0.0589  0.7611 -0.0633
 2345TIP3    H128526   0.673   6.135   5.649 -2.2892 -0.9723 -2.9538
 2345TIP3    H228527   0.745   6.009   5.691  1.4238  2.3955  1.9408
 2346TIP3   OH228528   1.880   0.358  15.144 -0.3769 -0.0992 -0.2874
 2346TIP3    H128529   1.947   0.331  15.207  0.2358  0.6816 -0.6052
 2346TIP3    H228530   1.826   0.420  15.192 -0.1387  0.2053 -0.4138
 2347TIP3   OH228531   4.743   2.856  14.112  0.4903  0.0015 -0.1731
 2347TIP3    H128532   4.733   2.787  14.178  0.2560  1.4628  1.3704
 2347TIP3    H228533   4.838   2.861  14.097  0.7912  1.1321  1.7556
 2348TIP3   OH228534   5.222   3.273  12.793 -0.8433 -0.3821 -0.0863
 2348TIP3    H128535   5.177   3.201  12.838 -0.1469 -0.4616  0.4964
 2348TIP3    H228536   5.184   3.352  12.832 -0.4262 -0.4488  0.4655
 2349TIP3   OH228537   3.945   0.278  16.689 -0.5095 -0.0282 -0.1710
 2349TIP3    H128538   3.930   0.351  16.750 -1.6015 -0.2145 -0.1884
 2349TIP3    H228539   3.891   0.300  16.613  0.5742  0.0316 -0.9356
 2350TIP3   OH228540   1.973   5.772   2.706 -0.1375 -0.0387 -0.5106
 2350TIP3    H128541   1.974   5.808   2.617 -2.6888 -0.9294 -0.9855
 2350TIP3    H228542   1.918   5.694   2.699  0.8000 -0.9641  1.5896
 2351TIP3   OH228543   1.829   3.080  14.076  0.1942  0.0217  0.0922
 2351TIP3    H128544   1.791   3.167  14.090 -0.5007  0.0646 -1.8221
 2351TIP3    H228545   1.794   3.028  14.148  0.2575  1.1974  1.0162
 2352TIP3   OH228546   0.597   1.873  15.105 -0.4762  0.0391  0.2201
 2352TIP3    H128547   0.545   1.953  15.114 -0.4940  0.0020  0.4773
 2352TIP3    H228548   0.542   1.814  15.054 -0.5352  0.1315  0.1772
 2353TIP3   OH228549   0.324   5.183  14.212 -0.4732 -0.1846 -0.0423
 2353TIP3    H128550   0.283   5.270  14.212 -1.5141 -0.6608 -0.7877
 2353TIP3    H228551   0.409   5.197  14.170 -0.7087  0.4315 -0.3255
 2354TIP3   OH228552   5.112   3.590  16.284 -0.3429 -0.1798 -0.2028
 2354TIP3    H128553   5.135   3.626  16.198 -0.6084 -0.6331 -0.4717
 2354TIP3    H228554   5.135   3.659  16.346 -0.5761  0.3383 -0.6776
 2355TIP3   OH228555   4.640   6.365   4.801  0.3955  0.3241 -0.5314
 2355TIP3    H128556   4.616   6.437   4.860 -0.0143  1.2717 -1.7954
 2355TIP3    H228557   4.557   6.339   4.760  0.8662  0.8066 -1.8679
 2356TIP3   OH228558   3.346   5.747  12.769 -0.5684  0.1748 -0.0787
 2356TIP3    H128559   3.340   5.824  12.827  0.1238  0.6262 -0.5863
 2356TIP3    H228560   3.342   5.783  12.681  1.6074 -0.1389 -0.3750
 2357TIP3   OH228561   1.387   5.477  12.254  0.3834 -0.0566 -0.3231
 2357TIP3    H128562   1.433   5.402  12.292  0.7420  0.6073  0.5764
 2357TIP3    H228563   1.356   5.445  12.169 -1.7167 -2.0663  1.0762
 2358TIP3   OH228564   0.526   2.390  16.206  0.3645  0.3011 -1.1976
 2358TIP3    H128565   0.571   2.325  16.151  0.3457 -1.6246  0.9360
 2358TIP3    H228566   0.552   2.368  16.295 -1.1516  2.0857 -0.2568
 2359TIP3   OH228567   5.734   4.227   2.907 -0.0424  0.0222 -0.0045
 2359TIP3    H128568   5.756   4.199   2.818 -0.0342  0.7216 -0.2346
 2359TIP3    H228569   5.769   4.316   2.912 -0.6004  0.2163  0.4870
 2360TIP3   OH228570   2.246   5.137  15.307 -0.4967 -0.2487  0.2147
 2360TIP3    H128571   2.284   5.220  15.337  0.2114 -0.4211 -0.1653
 2360TIP3    H228572   2.153   5.144  15.327 -0.1139 -0.2994  2.3481
 2361TIP3   OH228573   2.033   2.462   5.332 -0.5300  0.4988 -0.1933
 2361TIP3    H128574   2.037   2.369   5.311 -0.9960  0.3877  0.1721
 2361TIP3    H228575   2.005   2.464   5.424  2.4661  0.9338  0.8269
 2362TIP3   OH228576   6.765   1.324  14.605 -0.0595  0.2348  0.0181
 2362TIP3    H128577   6.702   1.290  14.669  0.2632  0.5235  0.4960
 2362TIP3    H228578   6.765   1.419  14.620  0.3863  0.2490 -0.0745
 2363TIP3   OH228579   3.950   5.661  10.724  0.0714 -0.0059  0.2693
 2363TIP3    H128580   4.003   5.604  10.779  0.1430 -0.4650 -0.2602
 2363TIP3    H228581   3.895   5.601  10.673 -0.4226  0.4349  0.2833
 2364TIP3   OH228582   4.016   3.225   6.065  0.6131 -0.6611 -0.5959
 2364TIP3    H128583   3.946   3.184   6.117  1.5203 -1.5036 -0.0035
 2364TIP3    H228584   4.058   3.286   6.125 -0.4210  0.8431 -1.3400
 2365TIP3   OH228585   2.710   2.004   2.161  0.2137 -0.2813  0.1163
 2365TIP3    H128586   2.683   2.027   2.072  0.4882  1.5132  0.4639
 2365TIP3    H228587   2.712   2.087   2.207 -0.7785 -1.2754  2.0560
 2366TIP3   OH228588   0.290   1.140   1.784  0.0766 -0.2781  0.2437
 2366TIP3    H128589   0.303   1.172   1.873  1.0201  0.6173 -0.1931
 2366TIP3    H228590   0.242   1.211   1.740 -1.8136 -1.3682  0.4275
 2367TIP3   OH228591   5.878   6.122  16.452 -0.1492 -0.4728  0.0142
 2367TIP3    H128592   5.927   6.042  16.469 -1.3979 -1.0570  0.9812
 2367TIP3    H228593   5.786   6.097  16.457 -0.5837  0.6937 -1.3187
 2368TIP3   OH228594   4.295   6.399  13.914  0.5141 -0.3637  0.0774
 2368TIP3    H128595   4.215   6.380  13.962  2.2806 -2.8585  2.3478
 2368TIP3    H228596   4.332   6.476  13.958  0.0313 -0.0202 -0.1126
 2369TIP3   OH228597   4.390   6.614   4.367  0.2207  0.1835 -0.5365
 2369TIP3    H128598   4.376   6.524   4.338  1.1459 -0.0350 -0.3657
 2369TIP3    H228599   4.303   6.649   4.383 -0.1809 -0.4391 -1.3283
 2370TIP3   OH228600   6.633   4.898   3.865  0.5936  0.0161 -0.4738
 2370TIP3    H128601   6.587   4.831   3.915 -0.0593  1.3204  0.7315
 2370TIP3    H228602   6.563   4.958   3.835  1.4399  2.5216  2.1065
 2371TIP3   OH228603   5.020   3.064  11.921 -0.7318 -0.1748  0.4543
 2371TIP3    H128604   5.071   3.055  12.001 -1.4791 -1.6773  0.8034
 2371TIP3    H228605   4.961   3.138  11.937  1.4016  1.7459 -0.0453
 2372TIP3   OH228606   4.176   2.894   6.167  0.0186 -0.0078  0.4749
 2372TIP3    H128607   4.090   2.920   6.134 -0.1464 -0.8686  0.2133
 2372TIP3    H228608   4.158   2.843   6.246  0.4069  1.9436  1.9219
 2373TIP3   OH228609   1.509   1.507   5.998  0.1950  0.2312 -0.4513
 2373TIP3    H128610   1.546   1.536   5.915 -0.8455 -0.0016 -1.0235
 2373TIP3    H228611   1.471   1.421   5.979  1.6442 -0.7379  0.7681
 2374TIP3   OH228612   6.755   3.967  13.066 -0.9690 -0.1869  0.5437
 2374TIP3    H128613   6.816   3.936  12.999 -2.1305  0.1605 -0.7272
 2374TIP3    H228614   6.810   3.997  13.138  0.4304  1.2893 -1.0700
 2375TIP3   OH228615   1.722   6.698  13.327  0.9409  0.1815 -0.1581
 2375TIP3    H128616   1.731   6.648  13.409  0.9182 -1.2084 -0.9679
 2375TIP3    H228617   1.628   6.709  13.316  0.8270 -1.3787 -0.9782
 2376TIP3   OH228618   0.793   0.417   5.031  0.3003 -0.5078 -0.4878
 2376TIP3    H128619   0.777   0.413   4.937 -0.1284  0.1162 -0.4442
 2376TIP3    H228620   0.850   0.493   5.042  1.6284 -1.4789 -0.4060
 2377TIP3   OH228621   0.658   5.123   0.377 -0.3747  0.0197 -0.0566
 2377TIP3    H128622   0.618   5.156   0.457  1.3719 -1.3548  1.4636
 2377TIP3    H228623   0.753   5.130   0.392  0.0077 -1.5471 -1.4251
 2378TIP3   OH228624   2.927   2.736  11.629  0.2203  0.3453 -0.5823
 2378TIP3    H128625   2.937   2.777  11.715 -1.7959 -2.2668  1.0786
 2378TIP3    H228626   2.840   2.762  11.600  0.4810  0.3773 -1.3433
 2379TIP3   OH228627   5.723   0.773  13.224  0.2983 -0.7504  0.3613
 2379TIP3    H128628   5.648   0.768  13.165  0.6767 -0.4638 -0.1544
 2379TIP3    H228629   5.685   0.789  13.311 -0.3020 -1.8600  0.3222
 2380TIP3   OH228630   2.859   4.881  11.131  0.4241  0.2738  0.1301
 2380TIP3    H128631   2.856   4.890  11.036 -0.1907  0.0705  0.1286
 2380TIP3    H228632   2.768   4.872  11.158  0.6715 -1.0184  0.6058
 2381TIP3   OH228633   0.663   2.287   0.341 -0.0923 -0.9868 -0.3987
 2381TIP3    H128634   0.735   2.229   0.318  0.0983 -0.6170 -0.7357
 2381TIP3    H228635   0.689   2.373   0.307 -0.0744 -0.5587  0.6647
 2382TIP3   OH228636   5.716   3.234   4.740 -0.1083  0.1568 -0.5609
 2382TIP3    H128637   5.652   3.165   4.723 -0.2061  0.0816  0.1018
 2382TIP3    H228638   5.799   3.198   4.708 -0.4012  0.2832 -1.4858
 2383TIP3   OH228639   6.696   0.555   5.384 -0.1971  0.7575  0.0528
 2383TIP3    H128640   6.728   0.562   5.473  0.2788 -2.6402  0.2775
 2383TIP3    H228641   6.604   0.581   5.389  0.1017  1.6518  1.2573
 2384TIP3   OH228642   2.278   2.199  12.886 -0.0739 -0.8682  0.0109
 2384TIP3    H128643   2.291   2.114  12.928  1.8439 -1.1772 -1.0993
 2384TIP3    H228644   2.353   2.251  12.914 -0.4475 -0.0226 -0.5138
 2385TIP3   OH228645   1.394   3.032   5.267  0.3720 -0.1067 -0.0984
 2385TIP3    H128646   1.415   3.008   5.357 -2.6971 -0.7394  0.5476
 2385TIP3    H228647   1.338   2.961   5.235 -1.9376  1.9996 -1.0679
 2386TIP3   OH228648   5.348   2.735  14.846 -0.0674 -0.2672  0.9166
 2386TIP3    H128649   5.253   2.728  14.837  0.0692 -0.8193 -0.2011
 2386TIP3    H228650   5.381   2.651  14.816  0.8403  0.2888  0.3395
 2387TIP3   OH228651   4.415   2.462   5.219  0.4476 -0.2342  0.0110
 2387TIP3    H128652   4.454   2.485   5.134  0.9397 -0.4865  0.1661
 2387TIP3    H228653   4.386   2.372   5.208  0.8110 -0.3782  0.2139
 2388TIP3   OH228654   1.482   2.074  14.974  0.2182 -1.0265  0.3554
 2388TIP3    H128655   1.497   2.065  14.880 -0.2669 -3.5505  0.4584
 2388TIP3    H228656   1.449   2.164  14.984 -0.5027 -0.9638 -1.9938
 2389TIP3   OH228657   1.827   6.355  15.850  0.5436  0.3378 -0.3480
 2389TIP3    H128658   1.899   6.417  15.864 -0.6527  1.8413 -0.5698
 2389TIP3    H228659   1.821   6.346  15.755  1.3586 -0.9643 -0.3056
 2390TIP3   OH228660   3.742   2.410  14.631 -0.1979  0.2067 -0.1711
 2390TIP3    H128661   3.759   2.414  14.725 -0.7048 -1.2645  0.0127
 2390TIP3    H228662   3.823   2.377  14.593 -0.0941  0.5095 -0.2111
 2391TIP3   OH228663   3.658   0.357   0.947  0.7956 -0.2181 -0.2556
 2391TIP3    H128664   3.657   0.405   0.864 -1.7232  1.3234  0.5656
 2391TIP3    H228665   3.576   0.307   0.947  0.2250  0.6238  1.7099
 2392TIP3   OH228666   5.981   0.292  10.908 -0.0741  0.1781 -0.2433
 2392TIP3    H128667   5.928   0.213  10.903 -0.2799  0.3053 -0.1084
 2392TIP3    H228668   5.948   0.338  10.985  0.6288 -0.0242  0.1828
 2393TIP3   OH228669   5.983   4.307  16.437 -0.1137  0.1095 -0.3126
 2393TIP3    H128670   5.927   4.242  16.394 -0.0456 -2.0016  2.5164
 2393TIP3    H228671   5.925   4.380  16.458 -0.9106 -0.3595 -0.8432
 2394TIP3   OH228672   1.241   5.019  16.282  0.2073 -0.4265 -0.1951
 2394TIP3    H128673   1.147   5.018  16.302  0.4232 -1.8498  0.8663
 2394TIP3    H228674   1.246   5.005  16.187 -0.6212 -1.8336 -0.0491
 2395TIP3   OH228675   5.949   3.890   2.793  0.2332  0.3535 -0.2202
 2395TIP3    H128676   6.031   3.892   2.841 -0.3195  1.3287  0.7363
 2395TIP3    H228677   5.922   3.982   2.787 -0.6888  0.0717 -0.6760
 2396TIP3   OH228678   3.689   6.518  10.890  0.2836 -0.3620  0.5758
 2396TIP3    H128679   3.694   6.550  10.800 -1.3271 -1.1851  0.1533
 2396TIP3    H228680   3.674   6.424  10.881 -0.5859 -0.3468  1.6888
 2397TIP3   OH228681   4.333   4.319  10.620  0.3866  0.2199  0.4063
 2397TIP3    H128682   4.256   4.264  10.605  0.7663 -0.1685 -0.1818
 2397TIP3    H228683   4.401   4.258  10.648  0.9961  0.2779 -0.8780
 2398TIP3   OH228684   5.359   3.321   4.209  0.5438 -0.0374 -0.0785
 2398TIP3    H128685   5.427   3.286   4.152 -0.6670 -0.7008 -1.1612
 2398TIP3    H228686   5.336   3.248   4.266  1.1564  0.3765  0.7276
 2399TIP3   OH228687   6.053   1.713  15.999  0.1794  0.0477  0.9169
 2399TIP3    H128688   5.980   1.735  16.056  0.5675 -0.2309  1.5276
 2399TIP3    H228689   6.016   1.712  15.911 -0.8895 -1.5645  1.3481
 2400TIP3   OH228690   2.575   1.388  15.715 -0.4437  0.6305 -0.4219
 2400TIP3    H128691   2.627   1.339  15.651  0.0792  1.0434 -0.3238
 2400TIP3    H228692   2.501   1.331  15.736  0.8739 -0.7330  0.7356
 2401TIP3   OH228693   4.047   1.943  15.831 -0.2726  0.0747  0.1243
 2401TIP3    H128694   4.045   1.963  15.925  0.3372 -1.3440  0.4677
 2401TIP3    H228695   4.067   2.027  15.789 -1.4978  0.9206  1.1773
 2402TIP3   OH228696   3.403   5.313  14.820 -0.6110  0.3351 -0.3145
 2402TIP3    H128697   3.450   5.358  14.749  0.5410 -1.8198 -0.9996
 2402TIP3    H228698   3.426   5.362  14.899  0.0823  1.3047 -1.0932
 2403TIP3   OH228699   0.357   1.287   0.103  0.3081  0.2910 -0.2679
 2403TIP3    H128700   0.305   1.320   0.029  2.1212  1.1634 -1.2307
 2403TIP3    H228701   0.444   1.325   0.090  2.0160 -3.2020 -0.2727
 2404TIP3   OH228702   0.799   4.726   6.059  0.0491  0.2650 -0.0247
 2404TIP3    H128703   0.817   4.635   6.083  0.4686  0.3463 -0.0309
 2404TIP3    H228704   0.883   4.771   6.069 -0.1630  0.6566 -0.0011
 2405TIP3   OH228705   1.871   4.823   2.015 -0.3540 -0.5389 -0.4520
 2405TIP3    H128706   1.924   4.756   2.059  0.8948  0.9242  0.3867
 2405TIP3    H228707   1.933   4.869   1.958 -0.8002  0.9082  0.1774
 2406TIP3   OH228708   2.429   2.759  10.528  0.3098  0.3780  0.2498
 2406TIP3    H128709   2.463   2.805  10.452  0.1420  2.0022  1.1250
 2406TIP3    H228710   2.490   2.780  10.599 -0.8953  0.9394  1.1440
 2407TIP3   OH228711   3.346   2.964  11.906  0.1180 -0.4232 -0.3078
 2407TIP3    H128712   3.276   3.025  11.886  1.0426  0.7402 -0.1125
 2407TIP3    H228713   3.315   2.880  11.872 -0.3830  0.5304 -2.3446
 2408TIP3   OH228714   3.451   3.740  14.202 -0.4646 -0.2521  0.3931
 2408TIP3    H128715   3.478   3.654  14.232  1.6498  0.4467  0.6507
 2408TIP3    H228716   3.475   3.743  14.109 -0.7786 -0.0296  0.3142
 2409TIP3   OH228717   0.393   5.906  11.663 -0.4252  0.0462  0.3963
 2409TIP3    H128718   0.340   5.834  11.697  0.5017 -0.7367  0.2381
 2409TIP3    H228719   0.333   5.958  11.610 -1.6133  0.5863  2.1845
 2410TIP3   OH228720   3.614   4.853   0.847  0.3730  0.1840  0.2278
 2410TIP3    H128721   3.635   4.939   0.884  2.3286  0.0281 -0.4073
 2410TIP3    H228722   3.557   4.872   0.772  1.2513  0.9987 -0.2541
 2411TIP3   OH228723   3.594   2.046   3.847  0.7198 -0.1139  0.4265
 2411TIP3    H128724   3.650   2.105   3.796 -1.2625  1.5808  0.0500
 2411TIP3    H228725   3.505   2.072   3.824 -0.2494 -1.4422  2.3745
 2412TIP3   OH228726   3.072   2.069   5.540 -0.0682  0.4751  0.1525
 2412TIP3    H128727   3.013   2.073   5.465  1.3108  1.9598 -0.9245
 2412TIP3    H228728   3.128   1.993   5.523 -0.5400  0.0959  0.2928
 2413TIP3   OH228729   2.132   4.915   6.155 -0.1741  0.0709  0.4636
 2413TIP3    H128730   2.103   4.852   6.089 -2.1939 -0.6813  1.9776
 2413TIP3    H228731   2.150   4.995   6.105 -3.8228  0.2563 -0.8475
 2414TIP3   OH228732   4.342   4.618   0.472 -0.2750  0.1755  0.0360
 2414TIP3    H128733   4.255   4.586   0.448  0.1778 -1.6953  0.7297
 2414TIP3    H228734   4.335   4.640   0.565 -0.1349  0.5238 -0.0337
 2415TIP3   OH228735   4.433   1.524   3.679 -0.0229  0.5520 -0.3063
 2415TIP3    H128736   4.412   1.517   3.772 -0.2633 -1.2143 -0.4680
 2415TIP3    H228737   4.415   1.437   3.643  0.2002  1.1623 -1.9846
 2416TIP3   OH228738   2.567   4.821  11.172 -0.0291 -0.3148 -0.4271
 2416TIP3    H128739   2.571   4.789  11.262  0.9092 -0.0209 -0.3606
 2416TIP3    H228740   2.506   4.761  11.128  0.1879 -0.9892  0.1753
 2417TIP3   OH228741   3.055   6.049  13.834 -0.2919 -0.3027 -0.0666
 2417TIP3    H128742   3.039   5.955  13.834 -1.1885 -0.1637 -0.4537
 2417TIP3    H228743   3.129   6.061  13.774  1.1319 -0.9317  1.4893
 2418TIP3   OH228744   2.371   0.557  16.774 -0.0388  0.0400  0.1424
 2418TIP3    H128745   2.318   0.526  16.701  0.3823  0.3110 -0.2838
 2418TIP3    H228746   2.311   0.559  16.848 -0.8311  1.0760 -0.5036
 2419TIP3   OH228747   5.044   5.237  16.328 -0.1707  0.0862  0.0681
 2419TIP3    H128748   5.052   5.304  16.259 -0.2717 -1.0315 -1.0580
 2419TIP3    H228749   5.134   5.214  16.349 -0.1464  0.2069  0.1017
 2420TIP3   OH228750   3.577   1.981   0.446  0.3849  0.0145  0.4379
 2420TIP3    H128751   3.494   1.933   0.443 -0.4349  1.3910  0.3167
 2420TIP3    H228752   3.628   1.936   0.515  0.3386 -2.0134 -0.7552
 2421TIP3   OH228753   0.702   1.243   5.485  0.7578 -0.4898  0.4715
 2421TIP3    H128754   0.661   1.219   5.568  1.4512 -0.7051  0.7570
 2421TIP3    H228755   0.651   1.196   5.419  0.6390 -0.8791  0.8331
 2422TIP3   OH228756   0.877   1.013  13.041  0.1042 -0.2590  0.0855
 2422TIP3    H128757   0.911   1.010  12.952  1.3214 -1.2070  0.5526
 2422TIP3    H228758   0.784   0.994  13.032 -0.0498  0.8870 -1.0872
 2423TIP3   OH228759   4.621   3.524  15.237 -0.0513  0.0412  0.1603
 2423TIP3    H128760   4.534   3.563  15.230 -0.3372 -0.6495 -0.2031
 2423TIP3    H228761   4.605   3.434  15.266  0.5562 -0.0209  0.3178
 2424TIP3   OH228762   2.619   6.270   2.926  0.8647 -0.2857 -0.6378
 2424TIP3    H128763   2.570   6.324   2.864  0.1081  0.0955  0.2643
 2424TIP3    H228764   2.697   6.241   2.878  0.0365 -0.4320 -1.9184
 2425TIP3   OH228765   2.729   0.236  12.220  0.1066 -0.5805  0.0291
 2425TIP3    H128766   2.644   0.231  12.177 -0.0206  1.8342 -0.1510
 2425TIP3    H228767   2.733   0.157  12.274 -1.9728 -1.0577 -0.4112
 2426TIP3   OH228768   2.056   2.167   5.223  0.0157  0.9881 -0.1468
 2426TIP3    H128769   2.025   2.163   5.133  0.9931 -0.8691 -0.4596
 2426TIP3    H228770   2.148   2.193   5.215  0.6563 -1.0203  0.1053
 2427TIP3   OH228771   0.714   1.079  16.697  0.2177 -0.0210  0.2359
 2427TIP3    H128772   0.651   1.101  16.629  0.6482 -2.3276 -1.0261
 2427TIP3    H228773   0.763   1.160  16.712 -1.0154  0.9933 -0.9469
 2428TIP3   OH228774   3.054   3.135   6.408 -0.0691  0.2121  0.1145
 2428TIP3    H128775   3.061   3.042   6.429 -0.8054  0.2260  0.4526
 2428TIP3    H228776   3.104   3.146   6.327 -1.2780 -0.7767 -0.7991
 2429TIP3   OH228777   5.533   3.278   0.155 -0.3986  0.4436 -0.0163
 2429TIP3    H128778   5.597   3.213   0.126 -0.1204  1.0469 -0.7925
 2429TIP3    H228779   5.466   3.278   0.086 -0.7605  0.4843  0.3280
 2430TIP3   OH228780   3.903   3.980  17.239  0.0136  0.0214  0.0620
 2430TIP3    H128781   3.823   3.930  17.251  0.5364 -0.6851  0.6370
 2430TIP3    H228782   3.970   3.933  17.288  0.8370  0.4868 -0.5703
 2431TIP3   OH228783   6.069   2.936   6.560 -0.1063 -0.1058 -0.3493
 2431TIP3    H128784   6.007   2.864   6.568  0.3273 -0.4609 -0.1345
 2431TIP3    H228785   6.024   3.001   6.508  0.5526 -1.7468 -3.1987
 2432TIP3   OH228786   0.212   4.591  15.254  0.2010  0.2659  0.8467
 2432TIP3    H128787   0.177   4.620  15.170 -0.7431 -1.4995  0.5907
 2432TIP3    H228788   0.136   4.589  15.312  0.2209 -1.4935  0.8717
 2433TIP3   OH228789   1.722   4.236   1.143  0.9419 -0.2001  0.3172
 2433TIP3    H128790   1.706   4.284   1.225  0.0034  0.5378 -0.2835
 2433TIP3    H228791   1.733   4.145   1.171  0.9507  0.0842  1.2965
 2434TIP3   OH228792   4.104   1.412   0.357 -0.4715  0.7831  0.3901
 2434TIP3    H128793   4.147   1.346   0.303 -1.1005  1.0339 -0.4312
 2434TIP3    H228794   4.024   1.434   0.309 -0.2224  2.2294  0.5996
 2435TIP3   OH228795   6.098   0.843  10.917 -0.2163 -0.5322  0.2256
 2435TIP3    H128796   6.178   0.833  10.968 -0.0843 -0.0868  0.1134
 2435TIP3    H228797   6.069   0.754  10.899 -0.0021 -0.6901  0.6697
 2436TIP3   OH228798   1.942   4.521   1.250  0.2092  0.6973  0.1783
 2436TIP3    H128799   1.903   4.574   1.319 -0.0995  0.0326  0.5183
 2436TIP3    H228800   1.881   4.530   1.176 -0.5059 -0.1659  0.6386
 2437TIP3   OH228801   1.968   2.004  13.092  0.1834 -0.0604  0.1885
 2437TIP3    H128802   1.953   1.989  12.998 -0.9200 -1.8416  0.5932
 2437TIP3    H228803   2.041   1.946  13.114  1.0760  1.0728  0.2551
 2438TIP3   OH228804   3.291   4.361  13.185  0.1457 -0.4673  0.2412
 2438TIP3    H128805   3.221   4.377  13.122  1.0518 -1.8560 -1.1548
 2438TIP3    H228806   3.255   4.295  13.245  0.0656 -0.7902 -0.1600
 2439TIP3   OH228807   6.643   3.525  14.754  0.1298 -0.0507 -0.2924
 2439TIP3    H128808   6.703   3.598  14.741 -0.4538  0.2018 -1.8004
 2439TIP3    H228809   6.682   3.474  14.825  1.3018  0.9346 -0.1905
 2440TIP3   OH228810   5.303   4.438   0.180  0.5353  0.0513  0.5273
 2440TIP3    H128811   5.223   4.440   0.128 -1.3890 -1.5077  3.2142
 2440TIP3    H228812   5.354   4.366   0.142 -0.5368 -0.6439  0.3767
 2441TIP3   OH228813   3.653   4.452   1.174  0.4350  0.2584 -0.3110
 2441TIP3    H128814   3.565   4.418   1.190  0.9062 -1.0643 -0.3544
 2441TIP3    H228815   3.701   4.376   1.139  1.1510  1.3798 -1.8715
 2442TIP3   OH228816   0.853   3.200  14.523 -0.2525  0.5152  0.5405
 2442TIP3    H128817   0.770   3.199  14.475 -0.7175  0.1892  1.3398
 2442TIP3    H228818   0.853   3.283  14.570 -0.9036 -0.2044  1.8560
 2443TIP3   OH228819   4.947   1.224   5.856  0.3991 -0.3269  0.2403
 2443TIP3    H128820   5.032   1.265   5.838  0.9692 -1.5201  0.1626
 2443TIP3    H228821   4.968   1.142   5.899 -0.7562 -0.3457  0.8041
 2444TIP3   OH228822   2.900   5.257  16.715  0.1531 -0.1265 -0.4190
 2444TIP3    H128823   2.928   5.224  16.629 -0.0339  0.6514 -0.7848
 2444TIP3    H228824   2.978   5.300  16.751 -0.1668  0.8019 -0.8240
 2445TIP3   OH228825   6.699   4.908  12.352 -0.1115  0.2822 -0.4390
 2445TIP3    H128826   6.794   4.917  12.343  0.4195 -2.9107  0.6857
 2445TIP3    H228827   6.668   4.893  12.263  0.7330 -0.5781 -0.6052
 2446TIP3   OH228828   6.125   4.272   1.961 -0.7982  0.0969  0.1445
 2446TIP3    H128829   6.185   4.346   1.965 -0.5305 -0.0031 -1.3825
 2446TIP3    H228830   6.136   4.237   1.873  1.0177 -3.4119  1.5964
 2447TIP3   OH228831   5.597   4.861  11.454 -0.6609 -0.2329  0.0914
 2447TIP3    H128832   5.650   4.809  11.393 -1.8962 -1.2838 -0.1225
 2447TIP3    H228833   5.655   4.932  11.480 -0.1774  0.4856 -2.5792
 2448TIP3   OH228834   5.832   3.525   1.991 -0.4038 -0.6828 -0.3229
 2448TIP3    H128835   5.873   3.568   2.066 -0.8825  0.6254 -0.7783
 2448TIP3    H228836   5.846   3.586   1.918 -0.6574 -1.5537 -1.1204
 2449TIP3   OH228837   1.810   5.345  16.925  0.2202 -0.6041 -0.1185
 2449TIP3    H128838   1.827   5.439  16.920 -2.4677  0.1982  2.5685
 2449TIP3    H228839   1.735   5.331  16.867 -1.1936 -0.4079  1.5471
 2450TIP3   OH228840   0.992   1.921   1.837 -0.0384  0.0746  0.1695
 2450TIP3    H128841   1.049   1.903   1.762 -1.2793 -1.3459 -0.4895
 2450TIP3    H228842   0.940   1.841   1.847 -1.0454  0.8559  1.5220
 2451TIP3   OH228843   5.830   1.873   4.129 -0.0508 -0.4060  0.1956
 2451TIP3    H128844   5.845   1.880   4.223 -0.2721  2.9122  0.0962
 2451TIP3    H228845   5.906   1.917   4.089 -0.2556 -1.2167 -1.1632
 2452TIP3   OH228846   2.014   1.689   2.546 -0.0600 -0.1392 -0.1509
 2452TIP3    H128847   1.983   1.629   2.478 -1.6445  0.5059 -0.0421
 2452TIP3    H228848   1.982   1.775   2.519  2.5665  0.7999 -0.5521
 2453TIP3   OH228849   2.931   2.848   4.818  0.4352 -0.1917 -0.4398
 2453TIP3    H128850   3.026   2.862   4.810  0.8910 -1.4153  1.9182
 2453TIP3    H228851   2.914   2.768   4.769  0.8843 -0.7281  0.2702
 2454TIP3   OH228852   0.595   0.130   0.057 -0.2711 -0.5649  0.7131
 2454TIP3    H128853   0.530   0.065   0.082 -1.3081  1.2042  2.9547
 2454TIP3    H228854   0.658   0.131   0.130 -0.0008  0.5730  0.4901
 2455TIP3   OH228855   6.225   6.041  13.061 -0.2878  0.8586 -0.2277
 2455TIP3    H128856   6.254   6.010  13.147 -0.2580  1.5034  0.0025
 2455TIP3    H228857   6.293   6.011  13.001 -0.7723 -0.4081 -0.1792
 2456TIP3   OH228858   0.265   2.951   2.986 -0.2921  0.3219  0.6551
 2456TIP3    H128859   0.180   2.917   3.015 -0.9109 -0.4427 -1.7881
 2456TIP3    H228860   0.281   2.906   2.903  1.2042  2.5061 -0.3194
 2457TIP3   OH228861   2.193   3.812   1.033 -0.6748 -0.3892  0.4664
 2457TIP3    H128862   2.187   3.756   0.955 -0.5812  1.3809 -0.8565
 2457TIP3    H228863   2.283   3.843   1.033  0.6532 -3.5313  3.6496
 2458TIP3   OH228864   5.636   0.037   5.270  0.9546  0.2081 -0.6554
 2458TIP3    H128865   5.714  -0.015   5.289  0.7979 -0.2606 -1.2875
 2458TIP3    H228866   5.670   0.123   5.245  1.3219 -0.3087 -1.9854
 2459TIP3   OH228867   4.694   4.524   5.261 -0.4062 -0.5665  0.1504
 2459TIP3    H128868   4.632   4.577   5.312  1.5381  2.6424 -0.5587
 2459TIP3    H228869   4.648   4.505   5.179 -1.0823  0.2589  0.3281
 2460TIP3   OH228870   2.007   0.903  16.535  0.2435 -0.0105 -0.3441
 2460TIP3    H128871   2.076   0.845  16.569 -0.2355 -0.8545 -0.7744
 2460TIP3    H228872   2.052   0.984  16.513  1.0894 -0.5407 -0.5873
 2461TIP3   OH228873   4.326   1.980  15.440 -0.1898 -0.0467 -0.9665
 2461TIP3    H128874   4.362   1.922  15.507 -0.8665 -0.5190 -0.9943
 2461TIP3    H228875   4.343   2.068  15.472  0.1915 -0.2665 -0.5560
 2462TIP3   OH228876   1.076   2.528  12.122  0.1507 -0.7930  0.1021
 2462TIP3    H128877   1.162   2.550  12.085 -0.3697 -0.4297 -0.9386
 2462TIP3    H228878   1.047   2.453  12.071 -1.0059  0.3134 -0.9479
 2463TIP3   OH228879   0.311   2.321   3.774 -0.1793 -0.7560 -0.2338
 2463TIP3    H128880   0.403   2.345   3.762  0.0282 -0.6730  1.2690
 2463TIP3    H228881   0.282   2.291   3.688  0.8691  0.4859 -1.0486
 2464TIP3   OH228882   2.659   4.300   3.097 -0.3102  0.0179 -0.3215
 2464TIP3    H128883   2.707   4.282   3.178 -1.9231 -0.7155  0.5357
 2464TIP3    H228884   2.676   4.223   3.042 -2.6421 -1.6586  1.0986
 2465TIP3   OH228885   1.073   3.923  12.893  0.0758 -0.2311 -0.2869
 2465TIP3    H128886   1.137   3.915  12.963 -1.1595 -1.6148  0.7486
 2465TIP3    H228887   1.046   4.015  12.895 -0.3216 -0.3606  1.4305
 2466TIP3   OH228888   2.450   6.821  13.608 -0.0775  0.2192 -0.3583
 2466TIP3    H128889   2.493   6.747  13.650  1.7824  2.8023  2.7546
 2466TIP3    H228890   2.470   6.811  13.515 -1.6639 -4.1173 -0.4924
 2467TIP3   OH228891   6.077   5.492  12.345 -0.0501  0.1590 -0.5567
 2467TIP3    H128892   6.004   5.517  12.402  0.4258 -1.0989  0.6551
 2467TIP3    H228893   6.035   5.459  12.265 -0.8509 -0.8218  0.2374
 2468TIP3   OH228894   0.888   5.092  15.865 -0.1829 -0.2888 -0.8171
 2468TIP3    H128895   0.834   5.045  15.801  0.1868 -1.5611 -0.2144
 2468TIP3    H228896   0.824   5.135  15.923 -0.5437  1.9001 -2.6930
 2469TIP3   OH228897   0.858   5.532  12.266  0.1549  0.4085 -0.8845
 2469TIP3    H128898   0.866   5.541  12.171 -0.7007 -0.3755 -1.0428
 2469TIP3    H228899   0.947   5.546  12.298  0.7305 -0.6534 -1.9134
 2470TIP3   OH228900   4.951   1.253   3.156  0.6504  0.7125  0.5105
 2470TIP3    H128901   4.874   1.280   3.206  1.1403  1.6552  0.7692
 2470TIP3    H228902   4.948   1.305   3.076  1.1140  0.8832  0.6002
 2471TIP3   OH228903   4.310   5.078  13.510  0.1921  0.2873  0.0216
 2471TIP3    H128904   4.298   5.102  13.418  1.0820  0.6745 -0.0063
 2471TIP3    H228905   4.225   5.045  13.538 -0.0102 -0.1254 -1.0267
 2472TIP3   OH228906   5.843   4.013  14.411 -0.5463 -0.3045 -0.6079
 2472TIP3    H128907   5.868   3.927  14.444  1.3723 -0.7244 -2.9368
 2472TIP3    H228908   5.787   4.050  14.480  0.7430 -2.3131  1.6436
 2473TIP3   OH228909   5.964   0.664  11.186  0.2576 -0.3123 -0.0774
 2473TIP3    H128910   6.042   0.714  11.162  0.0904 -0.1728 -0.3397
 2473TIP3    H228911   5.957   0.597  11.118 -2.0462  2.0574 -2.3893
 2474TIP3   OH228912   2.130   0.696  14.416 -0.6195 -0.2484 -0.3307
 2474TIP3    H128913   2.198   0.721  14.353 -1.2899  1.6850 -0.3604
 2474TIP3    H228914   2.048   0.705  14.367 -0.9845 -1.5997 -0.0075
 2475TIP3   OH228915   3.418   2.629  13.666  0.3408 -0.3690  0.5573
 2475TIP3    H128916   3.430   2.698  13.732  2.9582 -0.0830 -0.1122
 2475TIP3    H228917   3.414   2.676  13.583  0.0706 -0.9176  0.2548
 2476TIP3   OH228918   6.790   5.256  15.146  0.1352  0.9484  0.3451
 2476TIP3    H128919   6.839   5.213  15.216 -1.7088 -1.9234  0.0653
 2476TIP3    H228920   6.854   5.267  15.075  0.3958 -3.7599 -0.4691
 2477TIP3   OH228921   2.171   2.803   4.407 -0.4437 -0.2135 -0.1345
 2477TIP3    H128922   2.135   2.852   4.333 -0.7915 -0.7074 -0.3034
 2477TIP3    H228923   2.237   2.861   4.445  0.0910 -0.1314 -1.1273
 2478TIP3   OH228924   6.425   2.074  12.603  0.4930 -0.0244  0.2215
 2478TIP3    H128925   6.347   2.075  12.549  1.3813  1.6081 -1.1134
 2478TIP3    H228926   6.394   2.049  12.690 -1.3150 -0.4692 -0.5147
 2479TIP3   OH228927   3.061   2.893  12.402  0.4838  0.6177  0.0224
 2479TIP3    H128928   2.967   2.890  12.382  0.4791  0.3973  0.0798
 2479TIP3    H228929   3.095   2.963  12.346  0.1946  1.0394  0.3576
 2480TIP3   OH228930   6.630   6.227   2.437  0.3817  0.4018  0.3867
 2480TIP3    H128931   6.558   6.290   2.439 -1.0820 -1.1759 -0.0398
 2480TIP3    H228932   6.633   6.190   2.525  0.8505  0.6457  0.4765
 2481TIP3   OH228933   2.988   1.537   1.334 -0.3611  0.5206  0.5411
 2481TIP3    H128934   3.010   1.451   1.368  1.8731  0.8563  0.0972
 2481TIP3    H228935   3.020   1.599   1.400  0.1897  1.0571 -0.2102
 2482TIP3   OH228936   5.219   2.151   0.423  0.3206  0.4245 -0.2484
 2482TIP3    H128937   5.270   2.108   0.491 -0.4693  1.2953  0.9423
 2482TIP3    H228938   5.277   2.220   0.390  0.5335  0.3189 -0.0964
 2483TIP3   OH228939   4.568   2.263   1.552  0.4189 -0.1057 -0.1170
 2483TIP3    H128940   4.497   2.208   1.517 -2.2991  1.7846  1.9771
 2483TIP3    H228941   4.596   2.217   1.631 -0.7536  0.6510  0.7729
 2484TIP3   OH228942   5.375   2.219  16.187  0.2699 -0.2373 -0.0315
 2484TIP3    H128943   5.366   2.189  16.278  1.8190  0.2586  0.2988
 2484TIP3    H228944   5.415   2.305  16.194 -0.2160  0.0992 -1.1819
 2485TIP3   OH228945   0.745   3.193   3.686 -0.1048 -0.3099  0.3296
 2485TIP3    H128946   0.834   3.219   3.665  0.0864 -0.1687  1.2718
 2485TIP3    H228947   0.753   3.104   3.720 -0.3150 -0.2794  0.4606
 2486TIP3   OH228948   3.565   5.335   6.506 -0.1486 -0.1051  0.3928
 2486TIP3    H128949   3.545   5.241   6.504  0.8231 -0.3298 -2.0507
 2486TIP3    H228950   3.514   5.372   6.434  0.2688  1.0601  0.6721
 2487TIP3   OH228951   2.433   0.609   2.497 -0.0047  0.1327  1.0932
 2487TIP3    H128952   2.354   0.590   2.547  0.6416 -0.6989  1.8428
 2487TIP3    H228953   2.485   0.529   2.502  0.3539  0.2311 -0.4291
 2488TIP3   OH228954   4.765   3.381   3.515  0.0114 -0.1778 -0.5541
 2488TIP3    H128955   4.672   3.361   3.511  0.1256 -0.7786 -0.3947
 2488TIP3    H228956   4.775   3.462   3.465 -0.8384  0.7918  0.7747
 2489TIP3   OH228957   4.529   1.258  13.027 -0.0269 -0.1061 -0.1143
 2489TIP3    H128958   4.440   1.228  13.007  0.3388 -1.2876 -0.0327
 2489TIP3    H228959   4.516   1.335  13.082 -0.9978 -0.1495 -0.2535
 2490TIP3   OH228960   5.406   4.071  15.908 -0.0941  0.3163  1.0025
 2490TIP3    H128961   5.467   4.017  15.859  1.3209  1.4681  1.4337
 2490TIP3    H228962   5.450   4.155  15.917 -2.3652  1.7410 -0.0243
 2491TIP3   OH228963   3.625   6.048  12.727  0.3285  0.3643  0.7529
 2491TIP3    H128964   3.619   6.119  12.664  0.2183  0.0463  0.4026
 2491TIP3    H228965   3.710   6.059  12.769  1.4267 -0.7284 -1.0333
 2492TIP3   OH228966   5.474   3.800  11.657 -0.2167  0.0482 -0.3512
 2492TIP3    H128967   5.450   3.779  11.747 -1.5253 -0.5697 -0.8064
 2492TIP3    H228968   5.542   3.867  11.664 -0.4638  0.1672  1.0855
 2493TIP3   OH228969   6.116   5.136  15.459 -0.4253 -0.0521  0.4545
 2493TIP3    H128970   6.197   5.084  15.455 -0.2058  0.3050  0.1495
 2493TIP3    H228971   6.104   5.153  15.552  0.0214  0.1477  0.4812
 2494TIP3   OH228972   2.072   3.117   5.786  0.1706 -0.2339 -0.0274
 2494TIP3    H128973   2.051   3.028   5.757 -1.5467  0.3848 -0.7984
 2494TIP3    H228974   2.166   3.126   5.769  0.1771 -1.5802 -0.8246
 2495TIP3   OH228975   3.190   6.389  15.407  0.5195 -0.6890  0.8408
 2495TIP3    H128976   3.217   6.425  15.322 -0.1557  3.0950  2.0594
 2495TIP3    H228977   3.259   6.416  15.467 -0.0921 -1.4003  1.8852
 2496TIP3   OH228978   3.695   4.513   6.148 -0.7070 -0.1188 -0.6519
 2496TIP3    H128979   3.720   4.582   6.208 -0.1868 -0.5775 -0.3269
 2496TIP3    H228980   3.617   4.474   6.187 -0.1305 -0.6923 -0.0260
 2497TIP3   OH228981   3.853   4.998   2.802  0.0349  0.0507 -0.2786
 2497TIP3    H128982   3.790   4.925   2.802 -1.1050  0.9916  0.5638
 2497TIP3    H228983   3.840   5.041   2.718  0.3725 -0.4420 -0.5824
 2498TIP3   OH228984   5.576   2.772   5.052  0.3688  0.1016 -0.3634
 2498TIP3    H128985   5.481   2.786   5.058  0.6162  1.2270  3.6098
 2498TIP3    H228986   5.586   2.678   5.038 -1.3609 -0.2159  0.2996
 2499TIP3   OH228987   3.426   4.651   2.030 -0.1392 -0.2475  0.1607
 2499TIP3    H128988   3.361   4.704   1.985 -0.2744  1.5396  2.2857
 2499TIP3    H228989   3.378   4.610   2.102  1.0627  1.5766  2.1287
 2500TIP3   OH228990   6.671   5.207   4.331 -0.4526 -0.6390 -0.2488
 2500TIP3    H128991   6.688   5.174   4.419  0.3505 -1.6053 -0.7545
 2500TIP3    H228992   6.727   5.285   4.323  1.7498 -2.2160 -0.9199
 2501TIP3   OH228993   4.988   5.838   5.103  0.0345  0.3009  0.3906
 2501TIP3    H128994   4.965   5.749   5.130  3.1860 -0.4630  0.9776
 2501TIP3    H228995   5.029   5.827   5.017 -1.2078  1.4808 -0.3847
 2502TIP3   OH228996   5.587   0.492   5.554  0.3088 -0.0906 -0.4917
 2502TIP3    H128997   5.629   0.526   5.475  0.6885  2.3891  0.6978
 2502TIP3    H228998   5.653   0.501   5.623  0.1028 -2.5259  0.1088
 2503TIP3   OH228999   3.307   4.008   5.934  0.4784 -0.4187 -0.3489
 2503TIP3    H129000   3.344   3.921   5.952  1.2511 -0.1056 -0.4084
 2503TIP3    H229001   3.245   4.022   6.006 -1.0450 -1.7847 -1.3068
 2504TIP3   OH229002   1.473   4.390   4.734 -0.0762 -0.2170  0.7213
 2504TIP3    H129003   1.470   4.352   4.646  0.0141  1.3125  0.0315
 2504TIP3    H229004   1.565   4.411   4.748  0.0274 -1.1359  1.5065
 2505TIP3   OH229005   1.524   5.724   4.297  0.1179  0.2214  0.6179
 2505TIP3    H129006   1.523   5.792   4.365 -0.7551  1.8147 -0.8962
 2505TIP3    H229007   1.601   5.743   4.245  0.7265 -0.9322  1.0661
 2506TIP3   OH229008   0.038   5.159  16.604  0.3926  0.1425  0.2537
 2506TIP3    H129009   0.062   5.216  16.677 -0.8457 -0.2158  0.9558
 2506TIP3    H229010   0.080   5.200  16.528  0.0222  1.6579  0.8386
 2507TIP3   OH229011   0.979   5.389   6.477 -0.2462  0.3440  0.6953
 2507TIP3    H129012   0.895   5.395   6.432 -0.3810  1.0464  1.0308
 2507TIP3    H229013   1.003   5.297   6.471 -0.1635  0.4526 -0.9911
 2508TIP3   OH229014   2.276   5.122  11.751  0.4212  0.3976 -0.1114
 2508TIP3    H129015   2.280   5.207  11.796  1.0454  0.0760  0.4531
 2508TIP3    H229016   2.350   5.073  11.785  1.2292  0.3195 -1.8839
 2509TIP3   OH229017   4.735   4.358  13.185  0.2005 -0.0244  0.0413
 2509TIP3    H129018   4.781   4.435  13.217  1.2209 -0.2983 -0.7132
 2509TIP3    H229019   4.706   4.312  13.264  0.3567  0.6745  0.5090
 2510TIP3   OH229020   3.690   3.787   2.119 -0.9141  0.3473  0.2416
 2510TIP3    H129021   3.744   3.739   2.056 -0.2568  1.2695  0.0759
 2510TIP3    H229022   3.749   3.852   2.157 -2.0876  1.9331 -0.5342
 2511TIP3   OH229023   3.601   1.890   3.221 -0.5637 -0.3199 -0.1926
 2511TIP3    H129024   3.505   1.885   3.216 -0.5525 -0.3925 -0.3440
 2511TIP3    H229025   3.625   1.818   3.280 -0.5853 -0.4632 -0.3574
 2512TIP3   OH229026   6.030   0.513   3.226  0.0273 -0.4403 -0.3769
 2512TIP3    H129027   6.041   0.424   3.259 -0.1507 -0.4475 -0.3381
 2512TIP3    H229028   6.009   0.566   3.303 -1.8794 -0.7140 -0.6640
 2513TIP3   OH229029   2.850   2.728   4.358 -0.0611  0.0408 -1.2806
 2513TIP3    H129030   2.857   2.746   4.264  1.0871  0.0771 -1.2011
 2513TIP3    H229031   2.875   2.810   4.400  0.6220 -0.3293 -0.9455
 2514TIP3   OH229032   3.687   4.298  16.975 -0.0422  0.2352  0.3662
 2514TIP3    H129033   3.619   4.238  16.946 -0.3088  2.2261 -3.8910
 2514TIP3    H229034   3.762   4.242  16.996 -1.1849 -1.7076 -0.4804
 2515TIP3   OH229035   3.975   0.277  16.251 -0.6601  0.1477  0.2265
 2515TIP3    H129036   3.997   0.358  16.203 -1.4719  0.6059  0.6073
 2515TIP3    H229037   3.925   0.307  16.327 -2.8996 -0.8460 -0.7775
 2516TIP3   OH229038   3.328   2.242  11.840  0.2200  0.5821  0.3234
 2516TIP3    H129039   3.254   2.181  11.829 -0.2309  1.0935  0.4789
 2516TIP3    H229040   3.288   2.329  11.839  0.4140  0.8213  3.1011
 2517TIP3   OH229041   1.215   6.434   0.599  0.2726  0.2798 -0.0319
 2517TIP3    H129042   1.299   6.467   0.568 -0.6482  2.4986 -0.3617
 2517TIP3    H229043   1.150   6.490   0.556 -1.2519  0.3466  2.1834
 2518TIP3   OH229044   3.695   1.931  11.459 -0.1369 -0.8082 -0.1272
 2518TIP3    H129045   3.634   1.909  11.389 -0.4860  0.5396 -0.2812
 2518TIP3    H229046   3.644   1.924  11.539 -0.1868 -0.7688 -0.1560
 2519TIP3   OH229047   0.101   0.213   4.183 -0.7109 -0.3856  0.2847
 2519TIP3    H129048   0.152   0.139   4.150 -0.1175 -0.7197  1.8701
 2519TIP3    H229049   0.153   0.247   4.256 -1.7354  0.6193  0.5661
 2520TIP3   OH229050   0.641   5.468   1.010 -0.0151  0.8731 -0.4703
 2520TIP3    H129051   0.594   5.529   1.067 -1.8674 -1.9394  1.2599
 2520TIP3    H229052   0.715   5.437   1.064 -0.0727  0.3467 -0.6914
 2521TIP3   OH229053   1.785   0.142  12.570 -0.5452  0.1139 -0.1072
 2521TIP3    H129054   1.784   0.228  12.611 -1.3959 -0.1824  0.5328
 2521TIP3    H229055   1.822   0.157  12.483  2.0218  0.6435  0.9865
 2522TIP3   OH229056   2.794   1.129  10.725  0.3448  0.1833 -0.1342
 2522TIP3    H129057   2.866   1.192  10.717  0.8446 -0.3112  0.3211
 2522TIP3    H229058   2.715   1.182  10.719  0.7163  0.5983 -1.9132
 2523TIP3   OH229059   5.396   4.598   0.883 -0.2122 -0.7277 -0.3647
 2523TIP3    H129060   5.304   4.618   0.903  0.1122 -1.2729  1.8082
 2523TIP3    H229061   5.441   4.681   0.895 -0.0183 -1.0517  1.3172
 2524TIP3   OH229062   5.163   6.052   6.151  0.7373  0.8250  0.2085
 2524TIP3    H129063   5.113   6.080   6.227  0.8147  3.2836 -0.5550
 2524TIP3    H229064   5.107   5.988   6.108  0.8724 -0.9416  2.4759
 2525TIP3   OH229065   6.491   1.729  16.983  0.1343  0.8768 -0.2987
 2525TIP3    H129066   6.514   1.671  16.910 -0.4418  0.9120 -0.5162
 2525TIP3    H229067   6.417   1.780  16.950  0.9312  2.0821 -0.2945
 2526TIP3   OH229068   3.224   1.902   2.653  0.3848  0.2359 -0.3799
 2526TIP3    H129069   3.143   1.880   2.699 -0.2635 -0.7705 -1.9256
 2526TIP3    H229070   3.196   1.929   2.566  1.6971  0.1187 -0.8727
 2527TIP3   OH229071   3.070   6.700   3.239  0.2684 -0.1588  0.0001
 2527TIP3    H129072   3.037   6.610   3.243  0.8016 -0.3369  0.5746
 2527TIP3    H229073   2.992   6.754   3.228  0.0192 -0.7526 -1.3592
 2528TIP3   OH229074   6.308   5.086   0.188  0.1436  0.6346 -0.1627
 2528TIP3    H129075   6.295   5.040   0.271 -0.0181 -1.5593 -1.3451
 2528TIP3    H229076   6.394   5.128   0.198  0.4659 -0.2197  0.8301
 2529TIP3   OH229077   2.962   5.779  13.836  0.2726  0.6313  0.4083
 2529TIP3    H129078   2.977   5.789  13.742  1.6574  0.0126  0.5422
 2529TIP3    H229079   2.945   5.685  13.848  0.1381  0.7012  0.7916
 2530TIP3   OH229080   5.488   0.668   5.123 -0.0618 -0.4602  0.1225
 2530TIP3    H129081   5.533   0.709   5.196  0.8462 -2.0738  0.5106
 2530TIP3    H229082   5.448   0.590   5.160  1.6305 -2.1021 -1.3263
 2531TIP3   OH229083   6.200   3.581   0.089  0.1966 -0.4524  0.3552
 2531TIP3    H129084   6.272   3.643   0.082  0.0941 -0.3358  0.3290
 2531TIP3    H229085   6.208   3.524   0.012  1.0007 -1.2278  0.9905
 2532TIP3   OH229086   4.387   1.141  15.442 -0.5922  0.3154 -0.6188
 2532TIP3    H129087   4.367   1.213  15.501 -0.7159 -0.5817  0.4634
 2532TIP3    H229088   4.312   1.082  15.449 -0.2193 -0.2190 -1.0136
 2533TIP3   OH229089   6.519   2.727  16.808 -0.6074 -0.0193  0.3406
 2533TIP3    H129090   6.429   2.730  16.776 -0.6400  1.7879  0.5046
 2533TIP3    H229091   6.545   2.819  16.814 -0.0979 -0.2580  4.0307
 2534TIP3   OH229092   0.735   0.488  14.380  0.2616  0.0574 -0.2204
 2534TIP3    H129093   0.821   0.485  14.339  0.2531  0.7815 -0.2984
 2534TIP3    H229094   0.703   0.398  14.374  1.2770 -0.3629  0.4003
 2535TIP3   OH229095   4.214   5.196   2.753 -0.3375 -0.2778 -0.3893
 2535TIP3    H129096   4.174   5.204   2.839 -0.2256 -1.7314 -0.1778
 2535TIP3    H229097   4.218   5.286   2.720  1.9880  0.6914  2.1596
 2536TIP3   OH229098   0.364   6.442   2.820  0.0292 -0.2514 -0.0880
 2536TIP3    H129099   0.405   6.385   2.755 -0.4187 -2.0707  1.1629
 2536TIP3    H229100   0.276   6.458   2.786  0.1406 -0.3436 -0.4232
 2537TIP3   OH229101   6.777   3.778  14.946  0.1916  0.3492  0.0259
 2537TIP3    H129102   6.839   3.707  14.966 -0.3892  0.1118  1.0750
 2537TIP3    H229103   6.832   3.848  14.910  0.9472 -0.1902  0.0928
 2538TIP3   OH229104   0.899   3.362   3.327 -0.3767 -0.9747  0.0455
 2538TIP3    H129105   0.823   3.411   3.297 -0.2359 -0.6487  0.2207
 2538TIP3    H229106   0.930   3.410   3.404  0.6107 -0.5123 -0.6188
 2539TIP3   OH229107   5.852   0.203  16.396 -0.0308 -0.1415  0.9444
 2539TIP3    H129108   5.848   0.296  16.375  2.9463 -0.3608 -1.2461
 2539TIP3    H229109   5.870   0.200  16.490  4.3549  1.8843  0.4522
 2540TIP3   OH229110   3.771   5.003   1.781  0.7796 -0.2084 -0.0129
 2540TIP3    H129111   3.789   4.910   1.790 -2.7143 -0.8890  1.6125
 2540TIP3    H229112   3.743   5.013   1.690 -2.3369 -1.6013  0.6838
 2541TIP3   OH229113   6.727   0.877  10.478 -0.0527  0.3830 -0.1473
 2541TIP3    H129114   6.659   0.941  10.456 -0.6825 -0.0917  0.3858
 2541TIP3    H229115   6.730   0.819  10.402  0.2372  0.7967 -0.4579
 2542TIP3   OH229116   2.887   0.602  11.520 -0.0565 -0.0424  0.0959
 2542TIP3    H129117   2.905   0.696  11.518 -0.5727  0.2438  3.4871
 2542TIP3    H229118   2.971   0.561  11.499  0.3851  1.1658 -0.5939
 2543TIP3   OH229119   5.584   4.160   1.928  0.3301 -0.2041 -0.0195
 2543TIP3    H129120   5.548   4.075   1.904  0.9439 -0.6953  0.7361
 2543TIP3    H229121   5.676   4.156   1.902  1.5632 -1.4737  3.7511
 2544TIP3   OH229122   4.797   4.527   3.442  0.1516  0.2316  0.4221
 2544TIP3    H129123   4.719   4.575   3.413  1.0349  1.1539 -0.5187
 2544TIP3    H229124   4.865   4.594   3.450  0.6141 -0.4062  2.2023
 2545TIP3   OH229125   6.455   6.032   3.229  0.4275  0.3740  0.8707
 2545TIP3    H129126   6.519   6.009   3.296 -0.5380  1.0226  2.0642
 2545TIP3    H229127   6.446   6.127   3.236 -0.9901  0.2534  1.0629
 2546TIP3   OH229128   2.330   2.183   2.397 -0.7189 -0.4765 -0.1703
 2546TIP3    H129129   2.266   2.243   2.435 -1.0401 -0.5617 -0.5683
 2546TIP3    H229130   2.363   2.133   2.471 -1.3600 -0.6606 -0.0026
 2547TIP3   OH229131   3.931   2.128  15.471  0.2785  0.2084 -0.5741
 2547TIP3    H129132   3.893   2.214  15.453  0.5848  0.6499  0.8229
 2547TIP3    H229133   3.960   2.133  15.562 -1.8983 -2.1741  0.3591
 2548TIP3   OH229134   1.925   3.207   4.813  0.0622  0.5905 -0.1265
 2548TIP3    H129135   1.993   3.149   4.847 -1.2510 -0.4831  0.7820
 2548TIP3    H229136   1.904   3.264   4.887 -0.4446  0.5064 -0.2043
 2549TIP3   OH229137   5.556   5.170   6.117  0.1930  0.2003  0.0068
 2549TIP3    H129138   5.574   5.245   6.173  0.8096  0.3547 -0.3834
 2549TIP3    H229139   5.507   5.206   6.043 -1.4999 -0.1669  0.9084
 2550TIP3   OH229140   3.126   2.225  11.482 -0.0155  0.3255  0.0465
 2550TIP3    H129141   3.199   2.265  11.529  0.4961  0.4341 -0.8086
 2550TIP3    H229142   3.157   2.136  11.463 -0.7921 -0.2019  1.1632
 2551TIP3   OH229143   4.934   5.972   4.343 -0.1921 -0.5744 -0.5775
 2551TIP3    H129144   4.998   5.984   4.414  0.9418  0.4933 -1.7288
 2551TIP3    H229145   4.884   6.053   4.342 -0.7495 -0.9148 -0.4808
 2552TIP3   OH229146   2.837   5.615   0.366  0.3036  0.1869  0.2592
 2552TIP3    H129147   2.832   5.534   0.417 -1.7194 -0.6705 -1.1730
 2552TIP3    H229148   2.782   5.677   0.413 -0.8871 -0.3442 -0.4039
 2553TIP3   OH229149   3.621   5.440  14.670 -0.1437  0.8525 -0.1123
 2553TIP3    H129150   3.651   5.530  14.680  0.8651  0.4423  0.8911
 2553TIP3    H229151   3.690   5.397  14.619 -1.1506  0.8885 -1.5509
 2554TIP3   OH229152   2.991   1.449   5.674  0.2726 -0.0634 -0.1133
 2554TIP3    H129153   2.979   1.389   5.747  0.5943  1.7259  1.4591
 2554TIP3    H229154   2.926   1.518   5.687  0.6136  0.5177 -1.2880
 2555TIP3   OH229155   2.549   2.495  15.513  0.2972 -0.1640  0.1839
 2555TIP3    H129156   2.562   2.425  15.450  0.8823 -0.9172  1.1253
 2555TIP3    H229157   2.508   2.453  15.588 -2.2208  1.0611 -0.3839
 2556TIP3   OH229158   4.892   1.787  15.489  0.4071 -0.1511  0.2196
 2556TIP3    H129159   4.934   1.710  15.449 -0.2319 -0.7675  0.7012
 2556TIP3    H229160   4.915   1.780  15.582 -1.0700 -0.7194  0.5621
 2557TIP3   OH229161   4.175   0.142  15.796  0.3038 -0.6923  0.4140
 2557TIP3    H129162   4.107   0.204  15.771 -0.3271 -0.8342  1.6812
 2557TIP3    H229163   4.155   0.062  15.748  0.9474 -0.0397 -1.0010
 2558TIP3   OH229164   4.055   5.485   4.353 -0.2326  0.5973  1.0842
 2558TIP3    H129165   4.065   5.400   4.310  1.7861  1.1913  0.2565
 2558TIP3    H229166   4.039   5.464   4.445  1.0435 -0.6975  1.0442
 2559TIP3   OH229167   1.942   2.725  11.894 -0.3975  0.0570 -0.1846
 2559TIP3    H129168   1.864   2.681  11.859 -1.1032  1.1249 -0.0148
 2559TIP3    H229169   1.907   2.792  11.952  0.7251 -0.7161  1.4535
 2560TIP3   OH229170   6.724   3.658   4.221 -0.4611 -0.3456 -0.4597
 2560TIP3    H129171   6.635   3.655   4.186 -1.1101  4.1462  0.1398
 2560TIP3    H229172   6.712   3.661   4.316  0.3757 -0.6169 -0.3401
 2561TIP3   OH229173   4.930   2.808  11.870 -0.2593 -0.2445 -0.6089
 2561TIP3    H129174   4.977   2.889  11.890  1.0646 -1.4906  1.6856
 2561TIP3    H229175   4.888   2.825  11.786  1.3092  2.2353 -0.9820
 2562TIP3   OH229176   3.288   0.868   1.484  0.0393  0.6728  0.6366
 2562TIP3    H129177   3.338   0.851   1.563  0.7061 -0.2632  0.0247
 2562TIP3    H229178   3.260   0.782   1.453  0.7779  0.9025 -0.7735
 2563TIP3   OH229179   6.444   0.507   4.444  0.0688  0.2684  0.2553
 2563TIP3    H129180   6.508   0.438   4.430 -1.4309 -1.0362 -0.4438
 2563TIP3    H229181   6.362   0.472   4.410 -0.8626  2.2043  0.3320
 2564TIP3   OH229182   0.596   0.470  16.650  0.3592  0.6709  0.0118
 2564TIP3    H129183   0.674   0.498  16.603  1.5037  2.0290  2.5304
 2564TIP3    H229184   0.525   0.521  16.609  0.6764 -0.6688 -2.3806
 2565TIP3   OH229185   0.598   3.963  13.495 -0.7073 -0.1326 -0.3461
 2565TIP3    H129186   0.674   3.978  13.438  0.3604 -0.2493  1.0025
 2565TIP3    H229187   0.587   3.868  13.494  1.4982 -0.5291  2.2696
 2566TIP3   OH229188   1.031   3.546  12.715 -0.1149  0.0042  0.0311
 2566TIP3    H129189   0.981   3.515  12.640  0.8086 -1.4389 -0.0415
 2566TIP3    H229190   1.044   3.639  12.699 -2.2125  0.2991 -0.2314
 2567TIP3   OH229191   0.872   3.541  14.047 -0.3626 -0.2978  0.1678
 2567TIP3    H129192   0.958   3.551  14.088 -1.7149  1.4243  2.9038
 2567TIP3    H229193   0.859   3.624  13.999 -0.3199 -0.7763 -0.6973
 2568TIP3   OH229194   0.139   1.540  13.675 -0.2459 -0.0984  0.6238
 2568TIP3    H129195   0.158   1.467  13.735  1.1840  0.1543  0.5116
 2568TIP3    H229196   0.053   1.519  13.639  0.4936 -2.2279 -0.0823
 2569TIP3   OH229197   5.076   6.201   0.177 -0.1769 -0.7354 -0.4783
 2569TIP3    H129198   5.129   6.228   0.252  0.4888 -0.4922 -1.0209
 2569TIP3    H229199   5.012   6.140   0.213 -2.3718  2.2196  0.9935
 2570TIP3   OH229200   0.551   4.491  13.550 -0.3118  0.1694  0.6781
 2570TIP3    H129201   0.633   4.537  13.569  0.0241  0.0127 -0.3239
 2570TIP3    H229202   0.579   4.409  13.510 -0.9382 -0.4169  1.4086
 2571TIP3   OH229203   6.213   1.724  11.696  0.3198 -0.6245 -0.2087
 2571TIP3    H129204   6.306   1.699  11.691  0.5717  0.2958 -0.3229
 2571TIP3    H229205   6.178   1.670  11.767  1.3027  0.0915  0.8653
 2572TIP3   OH229206   1.958   3.122   0.075  0.3533 -0.2652 -0.2762
 2572TIP3    H129207   1.958   3.044   0.020  0.9821 -0.8320  0.5076
 2572TIP3    H229208   1.865   3.140   0.092  0.2012 -0.7443 -0.5982
 2573TIP3   OH229209   0.312   3.977   4.811 -0.3226  0.1587 -0.2302
 2573TIP3    H129210   0.365   4.050   4.778 -0.4646  0.5966  0.4960
 2573TIP3    H229211   0.236   4.019   4.851 -0.6069 -0.4126 -0.1646
 2574TIP3   OH229212   4.963   1.162  11.948 -0.3559 -0.4639  0.2610
 2574TIP3    H129213   4.984   1.094  11.885  2.5943  0.2203  0.3437
 2574TIP3    H229214   4.949   1.116  12.031  0.5094 -1.0627  0.0812
 2575TIP3   OH229215   5.588   3.669   5.668 -0.4184 -0.1766  0.3941
 2575TIP3    H129216   5.571   3.646   5.759 -0.8872 -0.0116  0.3510
 2575TIP3    H229217   5.577   3.764   5.665  0.8330 -0.0162  0.4287
 2576TIP3   OH229218   3.560   3.814  13.546 -0.3048 -0.0734  0.3507
 2576TIP3    H129219   3.538   3.859  13.464 -1.2843 -1.6630 -0.3063
 2576TIP3    H229220   3.536   3.877  13.615 -0.2513  0.9668 -0.5584
 2577TIP3   OH229221   5.897   6.328  17.002 -0.4353 -0.1037 -0.1013
 2577TIP3    H129222   5.819   6.370  17.037 -1.0530 -1.4536  0.2049
 2577TIP3    H229223   5.873   6.303  16.912  0.2237  0.9373 -0.5896
 2578TIP3   OH229224   6.547   2.816  13.403  0.7466  0.4546  0.2858
 2578TIP3    H129225   6.616   2.879  13.383  0.0148  1.0516 -0.4363
 2578TIP3    H229226   6.591   2.731  13.404  1.5897  0.8831  0.4312
 2579TIP3   OH229227   0.520   0.748   2.102  0.3449  0.3343  0.3753
 2579TIP3    H129228   0.446   0.804   2.080  0.3194  0.0654 -0.2382
 2579TIP3    H229229   0.550   0.780   2.188  1.1084  2.1232 -0.5055
 2580TIP3   OH229230   5.648   0.330   1.259 -0.6573 -0.0991 -0.3266
 2580TIP3    H129231   5.567   0.289   1.226 -1.1533  0.9107 -0.3852
 2580TIP3    H229232   5.618   0.392   1.326  0.0995  0.0773 -0.1475
 2581TIP3   OH229233   4.545   4.035   5.773 -0.1501 -0.4757 -0.2232
 2581TIP3    H129234   4.565   3.947   5.741  0.4200 -0.5830  0.3903
 2581TIP3    H229235   4.470   4.023   5.831 -0.6780 -0.4018 -0.8788
 2582TIP3   OH229236   1.115   0.351   1.381  0.3213  0.4309  0.4115
 2582TIP3    H129237   1.194   0.331   1.430  1.3583  0.4857 -1.1686
 2582TIP3    H229238   1.101   0.274   1.325  0.3245  1.1619 -0.6353
 2583TIP3   OH229239   2.302   2.994  16.344 -0.3300 -0.2000  0.4824
 2583TIP3    H129240   2.302   2.959  16.433 -1.9810 -0.6617  0.3330
 2583TIP3    H229241   2.296   2.917  16.288  1.7637  0.0146 -0.1120
 2584TIP3   OH229242   2.332   0.690   3.830  0.4027 -0.2247  0.0954
 2584TIP3    H129243   2.314   0.624   3.762 -1.1656 -0.4592  0.7016
 2584TIP3    H229244   2.354   0.769   3.781 -2.4891  0.1407 -0.8446
 2585TIP3   OH229245   5.977   0.300   4.628  0.6761  0.3040 -0.2516
 2585TIP3    H129246   6.066   0.277   4.656  0.4002  0.5466  0.8766
 2585TIP3    H229247   5.937   0.216   4.605  0.7697  0.0182  0.5724
 2586TIP3   OH229248   0.806   5.602   0.534  0.0769  0.2810 -0.5577
 2586TIP3    H129249   0.733   5.562   0.486  0.0445  0.9616 -1.0902
 2586TIP3    H229250   0.784   5.590   0.627 -0.8519  0.7102 -0.7096
 2587TIP3   OH229251   3.152   2.330   0.538 -0.2432  0.3253 -0.0142
 2587TIP3    H129252   3.063   2.350   0.568 -1.1270 -1.6232 -1.1773
 2587TIP3    H229253   3.206   2.397   0.580 -2.1488  1.1696  1.2662
 2588TIP3   OH229254   3.745   5.300   4.568  0.3618  0.0077 -0.3137
 2588TIP3    H129255   3.674   5.247   4.532  1.7671 -1.7514 -0.6484
 2588TIP3    H229256   3.703   5.356   4.634 -1.0971 -2.0610  0.5916
 2589TIP3   OH229257   5.089   3.887  10.578 -0.5967 -0.1294 -0.4448
 2589TIP3    H129258   5.142   3.858  10.504  2.3857  2.2853  0.5372
 2589TIP3    H229259   5.028   3.815  10.594  3.5839 -4.1745 -0.5178
 2590TIP3   OH229260   0.155   5.081  16.988 -0.1546  0.6065 -0.5816
 2590TIP3    H129261   0.097   5.157  16.987  0.8962  1.4246 -0.8222
 2590TIP3    H229262   0.166   5.060  17.081 -2.5215 -0.9305 -0.5466
 2591TIP3   OH229263   2.042   6.170  15.440 -0.0266 -0.0956 -0.3097
 2591TIP3    H129264   2.065   6.234  15.373 -0.1080 -0.6409 -0.8676
 2591TIP3    H229265   1.956   6.137  15.413 -0.6765  0.6341  0.7853
 2592TIP3   OH229266   0.747   4.095   3.690 -0.3041  0.5312  0.6250
 2592TIP3    H129267   0.743   4.012   3.642  1.1290 -0.1901  1.6793
 2592TIP3    H229268   0.794   4.154   3.631 -0.1638  0.1962  0.3973
 2593TIP3   OH229269   6.404   0.118   3.158 -0.4031  0.2788 -0.0922
 2593TIP3    H129270   6.379   0.179   3.228  0.2748 -0.0685  0.4632
 2593TIP3    H229271   6.329   0.118   3.098 -2.2431 -1.4747  2.0173
 2594TIP3   OH229272   4.306   3.672  13.032 -0.8028  0.6378  0.2422
 2594TIP3    H129273   4.355   3.649  12.953 -0.2828  2.1203  0.1072
 2594TIP3    H229274   4.371   3.710  13.091 -1.2773 -0.0154  1.2104
 2595TIP3   OH229275   2.177   6.382  16.376 -0.4107 -0.3230 -0.7310
 2595TIP3    H129276   2.171   6.304  16.320  1.5307 -0.6814 -0.5148
 2595TIP3    H229277   2.247   6.434  16.337  3.0239 -1.8561  2.6533
 2596TIP3   OH229278   3.225   6.405   2.188  0.0332 -0.4243  0.1463
 2596TIP3    H129279   3.178   6.335   2.142  0.4540  1.1417 -3.0031
 2596TIP3    H229280   3.169   6.482   2.176  1.5866  0.6667 -0.3980
 2597TIP3   OH229281   4.847   1.681   5.088 -0.8192 -0.2560 -0.0721
 2597TIP3    H129282   4.937   1.648   5.091 -1.1657 -1.4504 -1.6272
 2597TIP3    H229283   4.839   1.734   5.167  1.4615  0.4563 -0.2332
 2598TIP3   OH229284   2.816   2.850  15.700 -0.5372 -0.4762  0.2432
 2598TIP3    H129285   2.762   2.911  15.752 -0.4413 -0.7627  0.6795
 2598TIP3    H229286   2.768   2.841  15.618 -0.3534  0.5033  0.0128
 2599TIP3   OH229287   0.532   2.953  17.187 -0.3882 -0.7452  0.3783
 2599TIP3    H129288   0.445   2.949  17.226  0.3649  0.2479  2.2764
 2599TIP3    H229289   0.560   3.043  17.200  0.8633 -0.9986 -0.3859
 2600TIP3   OH229290   5.039   5.809   0.744  0.1212 -0.4455 -0.0548
 2600TIP3    H129291   5.055   5.743   0.812  2.4273  0.6284  0.5643
 2600TIP3    H229292   5.090   5.885   0.773 -2.4677  1.6932 -0.7001
 2601TIP3   OH229293   1.250   6.637   2.896  0.8915  0.1403 -0.0555
 2601TIP3    H129294   1.260   6.664   2.987  1.0724 -1.1108  0.3213
 2601TIP3    H229295   1.325   6.675   2.851  1.0108  0.4516  0.3955
 2602TIP3   OH229296   4.045   6.611  17.112  0.4497  0.5134 -0.0738
 2602TIP3    H129297   4.109   6.622  17.182 -1.7043  1.9473  1.7981
 2602TIP3    H229298   4.030   6.516  17.107  1.6061  0.2940  0.4587
 2603TIP3   OH229299   3.209   4.473   3.309  0.1792 -0.0253  0.1413
 2603TIP3    H129300   3.279   4.414   3.280 -1.3066 -0.8313 -2.0784
 2603TIP3    H229301   3.156   4.487   3.231 -1.7033  1.1838  1.5575
 2604TIP3   OH229302   5.795   6.236   3.752  0.2226  0.1433 -0.5325
 2604TIP3    H129303   5.825   6.253   3.663  1.9953  0.9041  0.1619
 2604TIP3    H229304   5.712   6.283   3.759  0.5859  0.9484 -1.4670
 2605TIP3   OH229305   5.301   1.614   3.749  0.4226  0.3673  0.7589
 2605TIP3    H129306   5.280   1.577   3.663 -0.5311 -1.4273  1.7165
 2605TIP3    H229307   5.224   1.667   3.771  0.3705  0.2687  0.8123
 2606TIP3   OH229308   3.731   6.003   1.993  0.0751 -0.2532 -0.6334
 2606TIP3    H129309   3.706   6.051   1.914  0.2897 -1.7958 -1.6866
 2606TIP3    H229310   3.825   6.020   2.002 -0.3037  1.4959  0.4509
 2607TIP3   OH229311   4.459   6.368  11.115 -0.5004  0.2965  0.1487
 2607TIP3    H129312   4.529   6.433  11.107  0.9946 -1.2260  0.2364
 2607TIP3    H229313   4.418   6.386  11.199 -0.0004  1.0289  0.2416
 2608TIP3   OH229314   5.924   5.013  15.040  0.3679  0.4447  0.0256
 2608TIP3    H129315   5.831   5.024  15.019 -0.3220 -1.2669  1.8552
 2608TIP3    H229316   5.963   5.097  15.018 -1.5280  1.0991 -1.1544
 2609TIP3   OH229317   6.258   4.254  14.147  0.3342  0.0972 -0.1308
 2609TIP3    H129318   6.243   4.348  14.137 -0.5509 -0.0730 -0.5186
 2609TIP3    H229319   6.322   4.232  14.079  0.5073  0.4104 -0.0691
 2610TIP3   OH229320   3.310   2.212   5.014 -0.1275 -0.0083  0.2424
 2610TIP3    H129321   3.346   2.290   5.057  1.3044 -0.4622 -0.0922
 2610TIP3    H229322   3.373   2.143   5.033 -1.2971 -1.0705  0.4021
 2611TIP3   OH229323   3.035   2.339  11.031  0.4507  0.0967  0.2156
 2611TIP3    H129324   3.002   2.266  10.979  0.1437 -0.3345  1.0057
 2611TIP3    H229325   3.115   2.305  11.072 -0.3012 -0.2003  1.5000
 2612TIP3   OH229326   3.172   3.735  16.317  0.1048  0.0652  0.7259
 2612TIP3    H129327   3.124   3.805  16.274  1.6410  0.8646  0.2054
 2612TIP3    H229328   3.120   3.714  16.394 -0.1756  2.1503  1.1716
 2613TIP3   OH229329   3.548   4.768  15.486 -0.4252 -0.1051 -0.4915
 2613TIP3    H129330   3.591   4.818  15.555  0.3694  1.1976 -1.8772
 2613TIP3    H229331   3.462   4.811  15.476  0.4726  1.4618 -2.0717
 2614TIP3   OH229332   3.323   5.882  10.836  0.3189  0.3756 -0.3444
 2614TIP3    H129333   3.389   5.950  10.829  1.6441 -0.8478 -0.3648
 2614TIP3    H229334   3.341   5.823  10.763  0.0343 -0.6493  0.3767
 2615TIP3   OH229335   4.740   0.744   4.305 -0.3973  0.3580  0.2696
 2615TIP3    H129336   4.740   0.761   4.211 -0.9787 -0.2270  0.1541
 2615TIP3    H229337   4.669   0.798   4.339 -0.7626 -0.0961  0.2374
 2616TIP3   OH229338   4.117   0.558  11.756 -0.3830 -0.4331  0.5485
 2616TIP3    H129339   4.089   0.561  11.847 -1.0407  0.5419  0.3272
 2616TIP3    H229340   4.055   0.615  11.709 -0.4132 -1.3690 -0.6055
 2617TIP3   OH229341   4.348   3.174  15.313 -0.1772  0.0699 -0.2622
 2617TIP3    H129342   4.403   3.111  15.359  0.1353 -1.1950 -2.2086
 2617TIP3    H229343   4.259   3.146  15.332 -0.0670  0.0666  0.2474
 2618TIP3   OH229344   5.585   0.069   4.317  0.3979  0.2541 -0.4955
 2618TIP3    H129345   5.653   0.068   4.384  0.1416 -0.9004 -0.2311
 2618TIP3    H229346   5.565   0.162   4.304  0.3876  0.4962  1.0882
 2619TIP3   OH229347   1.599   3.049  12.239  0.0431 -0.1070 -0.2294
 2619TIP3    H129348   1.653   3.112  12.285  0.0435 -0.0223 -0.3468
 2619TIP3    H229349   1.510   3.067  12.269  0.3371 -1.9186  1.9648
 2620TIP3   OH229350   4.247   0.253   2.765 -0.6850  0.2879 -0.5580
 2620TIP3    H129351   4.298   0.181   2.727 -0.1592  1.1244 -1.4643
 2620TIP3    H229352   4.305   0.293   2.829 -1.7666 -1.4772  1.6540
 2621TIP3   OH229353   0.762   2.770   4.413 -0.0254 -0.7448  0.2366
 2621TIP3    H129354   0.794   2.680   4.412 -0.7486 -1.0579  1.8431
 2621TIP3    H229355   0.684   2.767   4.469  1.1851  1.2696  2.1833
 2622TIP3   OH229356   3.549   3.010  15.161 -0.0743 -0.3078 -0.1463
 2622TIP3    H129357   3.623   3.070  15.147 -1.6739  1.8600  0.1092
 2622TIP3    H229358   3.530   2.974  15.074 -0.3571  1.2099 -0.7501
 2623TIP3   OH229359   1.666   4.114   4.446  0.0016  0.1509  0.0452
 2623TIP3    H129360   1.610   4.182   4.485 -0.2876 -0.8528  1.4587
 2623TIP3    H229361   1.732   4.096   4.513 -1.1582 -2.3943  0.6325
 2624TIP3   OH229362   0.944   2.793   6.039 -0.2279  0.4098 -0.3981
 2624TIP3    H129363   0.975   2.840   6.116  0.1531  0.7582 -0.7589
 2624TIP3    H229364   0.873   2.846   6.005 -1.6886 -0.7011  0.7822
 2625TIP3   OH229365   1.631   5.228  16.758  0.6609  0.6548 -0.0868
 2625TIP3    H129366   1.636   5.135  16.777 -2.1391  0.6937  1.3050
 2625TIP3    H229367   1.713   5.248  16.713  2.0167 -2.1304  0.9525
 2626TIP3   OH229368   4.500   1.764   3.585  0.1058 -0.2999 -0.0413
 2626TIP3    H129369   4.555   1.785   3.661  0.3271  0.0000 -0.2827
 2626TIP3    H229370   4.479   1.672   3.595 -0.4010 -0.1104  0.7381
 2627TIP3   OH229371   6.024   4.718  14.586  0.2736 -0.0821 -0.0171
 2627TIP3    H129372   6.085   4.740  14.656  0.0436  1.1028 -0.1606
 2627TIP3    H229373   5.969   4.649  14.623 -0.3252  1.0339  1.2761
 2628TIP3   OH229374   3.621   5.823   1.685 -0.7764 -0.2694 -0.3732
 2628TIP3    H129375   3.684   5.885   1.648 -0.5109 -0.9769 -1.1279
 2628TIP3    H229376   3.624   5.839   1.779 -0.2621  0.4415 -0.5001
 2629TIP3   OH229377   6.009   5.925  13.367 -0.0003  0.2111 -0.2231
 2629TIP3    H129378   6.076   5.947  13.302 -0.7724 -2.3616 -2.0246
 2629TIP3    H229379   6.051   5.863  13.426  0.8406  2.8497  2.2397
 2630TIP3   OH229380   0.823   5.235  15.548  0.6044  0.0232 -0.1549
 2630TIP3    H129381   0.813   5.141  15.561 -1.1383  0.0720 -0.8568
 2630TIP3    H229382   0.831   5.245  15.453  0.8780  0.5712 -0.0764
 2631TIP3   OH229383   6.482   6.150  13.946 -0.1441 -0.1133 -0.2784
 2631TIP3    H129384   6.529   6.121  14.024  0.3125 -0.4427 -0.6716
 2631TIP3    H229385   6.407   6.090  13.940 -1.7202  1.5457  1.3972
 2632TIP3   OH229386   2.940   5.109  13.928  0.4512  0.1695  0.0045
 2632TIP3    H129387   2.985   5.189  13.899 -0.8462  0.8206 -0.3223
 2632TIP3    H229388   2.967   5.097  14.018  0.5178  1.1125  0.1245
 2633TIP3   OH229389   5.742   5.258   6.465 -0.6090  0.1139  0.1019
 2633TIP3    H129390   5.668   5.201   6.442 -0.3577 -0.2803  0.2716
 2633TIP3    H229391   5.794   5.207   6.527  1.0430 -0.5280 -1.7040
 2634TIP3   OH229392   0.521   3.872  12.471  0.2701 -0.1395  0.4836
 2634TIP3    H129393   0.557   3.959  12.457 -0.5895  0.0954 -0.3542
 2634TIP3    H229394   0.585   3.828  12.527  0.2271  1.3560  1.7646
 2635TIP3   OH229395   2.660   0.020  13.836 -0.6727  0.1120 -0.6475
 2635TIP3    H129396   2.617  -0.065  13.827 -1.5739  0.7631 -4.6882
 2635TIP3    H229397   2.595   0.076  13.879  0.2367 -1.2656  2.8167
 2636TIP3   OH229398   4.663   4.281  13.456  0.5130  0.2298  0.5645
 2636TIP3    H129399   4.570   4.294  13.476  0.3057 -2.1779  1.4517
 2636TIP3    H229400   4.708   4.342  13.514 -0.4772  2.0275 -0.4572
 2637TIP3   OH229401   0.301   1.021  13.794 -0.2220 -0.0329  0.4830
 2637TIP3    H129402   0.299   1.042  13.887  0.1878  0.0551  0.4762
 2637TIP3    H229403   0.336   0.933  13.790  0.7367  0.3418  0.3616
 2638TIP3   OH229404   1.091   5.009   2.990 -0.2162  0.3302 -0.3208
 2638TIP3    H129405   1.129   4.937   2.939 -0.3498 -0.1469  0.2421
 2638TIP3    H229406   1.016   4.969   3.034  0.1086  0.6381  0.5316
 2639TIP3   OH229407   2.727   6.443  10.805 -0.3114  0.1163 -0.2882
 2639TIP3    H129408   2.657   6.467  10.744  0.6361  2.8442 -0.4162
 2639TIP3    H229409   2.801   6.424  10.748 -0.3057 -0.5092 -0.0733
 2640TIP3   OH229410   1.069   3.128  12.346 -0.5296  0.6947 -0.4844
 2640TIP3    H129411   1.009   3.192  12.307 -2.0504 -0.9416 -0.9861
 2640TIP3    H229412   1.072   3.057  12.282  2.1471  0.7793 -0.5499
 2641TIP3   OH229413   4.046   2.600  11.008 -0.2490  0.6231 -0.2450
 2641TIP3    H129414   4.013   2.654  11.080 -1.2145  0.3631 -0.4739
 2641TIP3    H229415   3.978   2.605  10.941  0.0431 -0.1819 -0.6192
 2642TIP3   OH229416   3.844   5.352   0.410  0.8379  0.6062 -0.0569
 2642TIP3    H129417   3.772   5.365   0.348  0.7615  0.3992 -0.0118
 2642TIP3    H229418   3.835   5.425   0.472  0.3069  0.2538  0.2934
 2643TIP3   OH229419   1.426   2.722   4.052  0.0953 -0.2992  0.0863
 2643TIP3    H129420   1.362   2.781   4.093  1.1049  1.2873 -0.5155
 2643TIP3    H229421   1.383   2.637   4.051 -0.9334  0.1261  2.1666
 2644TIP3   OH229422   0.128   5.831   5.615  0.5298  0.5054  0.1628
 2644TIP3    H129423   0.057   5.864   5.561  1.5874  1.5963 -0.6250
 2644TIP3    H229424   0.104   5.858   5.704 -1.7634 -2.2605  0.5008
 2645TIP3   OH229425   3.221   4.571  16.110  0.2055  0.2854 -0.3538
 2645TIP3    H129426   3.135   4.575  16.068  0.7356  1.9312 -1.4125
 2645TIP3    H229427   3.215   4.499  16.173 -1.2265 -1.0620 -1.9467
 2646TIP3   OH229428   2.813   4.100  13.701  0.2748 -0.5549 -0.6553
 2646TIP3    H129429   2.739   4.112  13.761 -0.2539 -0.3115 -1.3463
 2646TIP3    H229430   2.780   4.042  13.633  0.4595  0.1931 -1.3951
 2647TIP3   OH229431   1.379   4.651   5.815 -0.2078  0.2011  0.3657
 2647TIP3    H129432   1.285   4.657   5.833 -0.0647 -0.3850  1.3557
 2647TIP3    H229433   1.416   4.611   5.893  0.5398 -1.8905 -0.9777
 2648TIP3   OH229434   0.690   6.432  15.108  0.0526  0.0846 -0.0504
 2648TIP3    H129435   0.650   6.401  15.189  0.2342 -0.6730 -0.2351
 2648TIP3    H229436   0.680   6.527  15.110 -1.7984 -0.0816 -0.1242
 2649TIP3   OH229437   2.402   5.539  17.123  0.0038  0.2369  1.2574
 2649TIP3    H129438   2.423   5.627  17.154  0.1905  1.1239 -1.1867
 2649TIP3    H229439   2.316   5.521  17.161 -0.5243  1.9288  0.9672
 2650TIP3   OH229440   5.394   0.792  14.911  0.0628  0.1194 -0.6836
 2650TIP3    H129441   5.310   0.751  14.891 -0.8499  1.0417  1.0142
 2650TIP3    H229442   5.458   0.742  14.860 -1.0152 -3.1092  0.8375
 2651TIP3   OH229443   4.332   0.925   4.030  0.4131 -0.1865 -0.2637
 2651TIP3    H129444   4.390   0.981   4.082  1.3600  0.6283 -2.1171
 2651TIP3    H229445   4.273   0.885   4.094  3.3970 -1.5804  1.8422
 2652TIP3   OH229446   0.978   6.425  16.843 -0.0028  0.1064  1.0652
 2652TIP3    H129447   0.898   6.454  16.886 -0.7061 -0.5102  0.2161
 2652TIP3    H229448   1.013   6.356  16.900 -0.7937 -0.5408  0.7813
 2653TIP3   OH229449   2.742   3.626  16.833  0.0015  0.0853 -0.1832
 2653TIP3    H129450   2.833   3.643  16.854  0.6892 -2.4694 -0.8199
 2653TIP3    H229451   2.696   3.632  16.917  1.0333 -0.2615  0.4128
 2654TIP3   OH229452   4.862   6.141   3.522  0.2231  0.0205 -0.3073
 2654TIP3    H129453   4.872   6.099   3.437  1.0339 -0.9959  0.2660
 2654TIP3    H229454   4.903   6.080   3.584 -1.5083  0.0921  0.9909
 2655TIP3   OH229455   4.917   5.018  13.113 -0.2306 -0.3182  0.2305
 2655TIP3    H129456   4.860   5.070  13.169 -1.5769 -1.9072  0.4110
 2655TIP3    H229457   5.002   5.063  13.118 -1.3129  1.8766  0.2754
 2656TIP3   OH229458   6.497   5.991   5.669  0.2145  0.0474 -0.1290
 2656TIP3    H129459   6.589   6.004   5.694  0.1530  0.7595 -0.2707
 2656TIP3    H229460   6.464   6.079   5.651 -0.5244 -0.1944  0.0102
 2657TIP3   OH229461   1.233   0.793   4.972  0.2997  0.1636  0.9985
 2657TIP3    H129462   1.294   0.720   4.984  1.1029  0.7305  0.4473
 2657TIP3    H229463   1.280   0.869   5.006  1.6412  1.3832 -3.0727
 2658TIP3   OH229464   6.521   1.995   4.679 -0.6931 -0.2136 -0.0441
 2658TIP3    H129465   6.552   2.021   4.592 -0.6063  2.1146  0.6261
 2658TIP3    H229466   6.429   1.971   4.665 -0.3706 -1.0409 -0.9452
 2659TIP3   OH229467   2.782   4.068  16.288 -0.5525 -1.0792  0.1243
 2659TIP3    H129468   2.734   3.993  16.253 -0.1592 -2.6843  2.7326
 2659TIP3    H229469   2.722   4.109  16.350  0.1041 -0.7842  0.5806
 2660TIP3   OH229470   1.296   4.255   5.146  0.0714  0.0696 -0.2451
 2660TIP3    H129471   1.238   4.290   5.079 -1.8975  0.0503  1.3649
 2660TIP3    H229472   1.362   4.323   5.160 -0.7319  0.9615 -0.7249
 2661TIP3   OH229473   0.355   2.312   3.204  0.3221 -0.5772 -0.6799
 2661TIP3    H129474   0.362   2.401   3.171  0.3779 -0.2435  0.2254
 2661TIP3    H229475   0.341   2.259   3.125 -0.4711  0.3054 -1.1497
 2662TIP3   OH229476   5.961   5.910  14.168  0.2032 -0.1014 -0.3647
 2662TIP3    H129477   6.044   5.871  14.142  1.0336  0.6167  1.0707
 2662TIP3    H229478   5.962   5.909  14.264 -1.7239 -0.6205 -0.3035
 2663TIP3   OH229479   4.812   6.579  11.545  0.1752 -0.2714 -0.2530
 2663TIP3    H129480   4.884   6.521  11.522 -0.4872 -0.6005 -1.5537
 2663TIP3    H229481   4.755   6.525  11.600  1.2417  0.2125  1.4322
 2664TIP3   OH229482   1.170   0.347  17.095 -0.3045 -0.6648 -0.6699
 2664TIP3    H129483   1.135   0.314  17.013 -2.3109 -0.2516 -0.0521
 2664TIP3    H229484   1.100   0.332  17.159  1.0477 -0.6692  0.9079
 2665TIP3   OH229485   1.737   2.017  11.280 -0.0992  0.1600  0.3261
 2665TIP3    H129486   1.652   2.054  11.255  0.4662  0.4025 -1.3587
 2665TIP3    H229487   1.801   2.083  11.253  0.6719 -0.3544  0.8591
 2666TIP3   OH229488   1.631   3.919  10.837 -0.3600 -0.3270  0.1508
 2666TIP3    H129489   1.609   3.937  10.745 -0.7677  1.0510  0.4931
 2666TIP3    H229490   1.723   3.894  10.835 -0.2130  0.2406 -0.5849
 2667TIP3   OH229491   6.306   1.339  14.426 -0.3190  0.4303  0.1250
 2667TIP3    H129492   6.370   1.393  14.380  0.1662 -1.7853 -2.0369
 2667TIP3    H229493   6.245   1.401  14.466  2.2864  2.6069  1.0191
 2668TIP3   OH229494   4.595   5.567   6.559 -0.1566 -0.2899 -0.0407
 2668TIP3    H129495   4.690   5.559   6.546 -0.4486 -1.6476 -1.6874
 2668TIP3    H229496   4.567   5.627   6.489 -0.5909 -0.3553  0.0751
 2669TIP3   OH229497   3.621   1.067   4.286 -0.2092 -0.6316 -0.4076
 2669TIP3    H129498   3.642   1.013   4.209 -2.1213 -2.4514  0.2480
 2669TIP3    H229499   3.546   1.119   4.259 -0.6145 -0.9588  0.0928
 2670TIP3   OH229500   4.154   0.866   5.324 -0.6302  0.0667 -0.1757
 2670TIP3    H129501   4.184   0.791   5.272  0.9512  0.7787 -0.3788
 2670TIP3    H229502   4.187   0.849   5.412 -0.2444  0.4978 -0.2269
 2671TIP3   OH229503   4.222   2.062   0.571  0.0757 -0.6148 -0.0585
 2671TIP3    H129504   4.293   2.089   0.630  1.6991  0.5048 -2.3655
 2671TIP3    H229505   4.212   1.968   0.588  2.1143 -0.8072  0.3990
 2672TIP3   OH229506   0.144   3.650  13.492 -0.2907  0.5899  0.2866
 2672TIP3    H129507   0.201   3.726  13.485  3.8332 -2.2419 -0.3697
 2672TIP3    H229508   0.089   3.668  13.568 -0.0487  4.4230 -0.2684
 2673TIP3   OH229509   1.146   3.837  17.164  0.1067  0.1892  0.0672
 2673TIP3    H129510   1.128   3.911  17.106  0.1097  1.0139  1.0824
 2673TIP3    H229511   1.236   3.811  17.143  0.1649  0.5870 -0.1938
 2674TIP3   OH229512   2.139   0.939  11.485 -0.1090  0.1060 -0.3761
 2674TIP3    H129513   2.217   0.946  11.430  0.2098 -1.7618 -0.2225
 2674TIP3    H229514   2.098   1.025  11.480  1.7788  1.0347 -0.7274
 2675TIP3   OH229515   5.751   3.244  11.365 -0.2568  0.1903 -0.1818
 2675TIP3    H129516   5.702   3.249  11.283  0.3726  1.5611 -0.5084
 2675TIP3    H229517   5.710   3.310  11.421 -0.7586 -0.8211  0.6739
 2676TIP3   OH229518   4.695   2.173  12.281  0.2782 -0.3115 -0.1286
 2676TIP3    H129519   4.717   2.263  12.258  1.2747 -0.6437 -0.4887
 2676TIP3    H229520   4.609   2.159  12.241 -0.9392  1.1783  1.7877
 2677TIP3   OH229521   5.971   5.696  16.134 -0.3393  0.1577  0.1769
 2677TIP3    H129522   6.066   5.706  16.143 -0.5308  1.6237  0.7740
 2677TIP3    H229523   5.946   5.634  16.203  0.3570 -1.5161 -0.9936
 2678TIP3   OH229524   3.426   5.101  15.787  0.7339  0.0825  1.1022
 2678TIP3    H129525   3.344   5.149  15.794  0.5830  0.4079 -1.7045
 2678TIP3    H229526   3.400   5.009  15.777  0.7435  0.0853  1.0486
 2679TIP3   OH229527   5.204   4.245  16.988 -0.2105 -0.1499 -0.1912
 2679TIP3    H129528   5.277   4.228  16.927 -0.2125  0.4414 -0.3626
 2679TIP3    H229529   5.205   4.340  17.000 -0.5622 -0.2072  0.3019
 2680TIP3   OH229530   0.829   3.266  13.897 -0.1712  0.2489 -0.9511
 2680TIP3    H129531   0.775   3.283  13.819 -1.0037  0.8201 -0.2645
 2680TIP3    H229532   0.828   3.349  13.945  0.2074 -0.1516 -0.2411
 2681TIP3   OH229533   5.984   6.619   6.978  0.5295  0.3435 -0.3236
 2681TIP3    H129534   5.919   6.617   7.048  0.9906  1.2536  0.1432
 2681TIP3    H229535   5.968   6.539   6.928 -0.1470 -0.0531  0.5080
 2682TIP3   OH229536   4.905   0.663   0.433 -0.2112  0.5373 -0.0792
 2682TIP3    H129537   4.883   0.713   0.512  0.2397  0.1742  0.2796
 2682TIP3    H229538   4.854   0.582   0.441 -0.4683  0.6705 -0.3565
 2683TIP3   OH229539   3.258   6.620  16.881  0.4990 -0.1180  0.1390
 2683TIP3    H129540   3.332   6.578  16.925  1.8150  0.9182 -0.9968
 2683TIP3    H229541   3.196   6.639  16.951  1.3362 -0.9273  1.1314
 2684TIP3   OH229542   3.994   3.374   1.128 -0.1830  0.0987 -0.3697
 2684TIP3    H129543   3.909   3.346   1.094  0.7411 -0.4357 -2.3273
 2684TIP3    H229544   3.998   3.335   1.216 -1.1384 -1.5278 -1.0067
 2685TIP3   OH229545   2.092   3.904   4.432  0.5714 -0.2764 -0.0743
 2685TIP3    H129546   2.129   3.989   4.456  0.0306 -0.4894  1.6041
 2685TIP3    H229547   2.079   3.910   4.337  1.6710  1.0521 -0.1841
 2686TIP3   OH229548   6.149   4.502  10.856 -0.3434  0.4013 -0.3932
 2686TIP3    H129549   6.135   4.564  10.928 -0.9089  1.1376 -1.1142
 2686TIP3    H229550   6.166   4.558  10.780 -0.2225 -0.3543 -0.9287
 2687TIP3   OH229551   4.134   0.914  11.754  0.4925  0.7414 -0.3650
 2687TIP3    H129552   4.197   0.897  11.824  0.6370 -0.9206 -0.8514
 2687TIP3    H229553   4.100   1.001  11.772  0.5478  0.3674  1.7444
 2688TIP3   OH229554   3.172   5.975   1.667  0.4921 -0.7816  0.1375
 2688TIP3    H129555   3.120   6.013   1.596 -0.1954  0.3563  1.1990
 2688TIP3    H229556   3.216   5.900   1.628  0.3887  0.0059 -1.5620
 2689TIP3   OH229557   1.529   3.508   1.455  0.0438 -0.2878  0.0877
 2689TIP3    H129558   1.619   3.535   1.473  0.3068 -0.6077 -0.6885
 2689TIP3    H229559   1.476   3.584   1.478  0.3887 -0.4788  1.6312
 2690TIP3   OH229560   1.024   1.192   4.526  0.0136 -0.0031 -0.1976
 2690TIP3    H129561   0.970   1.176   4.603  1.9889  0.9623  1.4554
 2690TIP3    H229562   1.095   1.248   4.557  0.6158  0.8290 -2.8401
 2691TIP3   OH229563   3.276   3.012   6.101  0.1273 -0.0479 -0.1217
 2691TIP3    H129564   3.334   2.975   6.167  0.1857 -2.4914 -1.4040
 2691TIP3    H229565   3.288   3.107   6.108  3.4349 -0.3890  0.4126
 2692TIP3   OH229566   2.731   6.144  16.878  0.8908  0.3932  0.6757
 2692TIP3    H129567   2.764   6.102  16.799  0.2605 -1.4680  1.3534
 2692TIP3    H229568   2.797   6.127  16.945  0.9826  1.1567  0.7933
 2693TIP3   OH229569   1.112   4.961   0.321 -0.4714 -0.0726  0.2879
 2693TIP3    H129570   1.072   5.048   0.323  0.6089  0.5173 -1.7148
 2693TIP3    H229571   1.108   4.935   0.229  3.5132 -0.0453 -0.0474
 2694TIP3   OH229572   1.902   3.942   1.741  0.0248  0.1418  0.1904
 2694TIP3    H129573   1.894   3.875   1.809 -1.5795 -0.4709 -0.5509
 2694TIP3    H229574   1.996   3.960   1.736  0.1849  0.3660  2.6918
 2695TIP3   OH229575   6.290   5.943  15.341 -0.1374  0.0279  0.6857
 2695TIP3    H129576   6.317   5.994  15.265  1.3119 -1.3713  0.1983
 2695TIP3    H229577   6.199   5.969  15.357 -0.1804  1.0156 -0.9649
 2696TIP3   OH229578   0.134   1.052  11.591 -0.4464 -0.0425  0.1589
 2696TIP3    H129579   0.108   1.143  11.598 -1.5141 -0.3580  0.4041
 2696TIP3    H229580   0.078   1.016  11.522 -0.2400 -0.5815  0.2671
 2697TIP3   OH229581   4.585   4.281   0.989  0.6379 -0.2194  0.4712
 2697TIP3    H129582   4.610   4.231   0.911 -0.7328 -1.8499  1.0109
 2697TIP3    H229583   4.589   4.217   1.060 -1.3767  0.3609  1.1795
 2698TIP3   OH229584   6.233   3.781  15.823  0.2143  1.0798 -0.5926
 2698TIP3    H129585   6.278   3.804  15.904 -0.2325 -0.4122  0.1234
 2698TIP3    H229586   6.291   3.717  15.781 -1.6743 -1.8967  0.9862
 2699TIP3   OH229587   2.294   3.920  13.287 -0.1975  0.1080  0.0688
 2699TIP3    H129588   2.337   3.836  13.269  0.3919  0.2378  0.8177
 2699TIP3    H229589   2.218   3.921  13.229 -0.2505 -0.9809  0.1003
 2700TIP3   OH229590   1.095   2.495   3.352 -0.0477  0.3012  0.6953
 2700TIP3    H129591   1.151   2.566   3.383 -1.3348  0.8765  1.7669
 2700TIP3    H229592   1.083   2.437   3.427 -0.3147 -0.1998  0.2809
 2701TIP3   OH229593   6.784   4.263   3.761 -0.1347  0.2022  0.3317
 2701TIP3    H129594   6.741   4.213   3.691 -0.4962 -0.2800  0.8804
 2701TIP3    H229595   6.876   4.240   3.754  0.0942  1.4579 -1.0343
 2702TIP3   OH229596   3.480   5.436   2.352  0.0102  0.4336  0.4182
 2702TIP3    H129597   3.476   5.341   2.336 -0.4648  0.7460 -1.6290
 2702TIP3    H229598   3.515   5.444   2.440 -0.1474 -1.6577  0.7210
 2703TIP3   OH229599   5.585   4.903   6.063  0.1409  0.0038  0.0816
 2703TIP3    H129600   5.534   4.853   6.127 -0.6563  0.2083 -0.3842
 2703TIP3    H229601   5.558   4.994   6.076 -0.0004  0.0536 -0.5092
 2704TIP3   OH229602   3.117   1.718   1.497  0.4077  0.3730 -0.6398
 2704TIP3    H129603   3.199   1.692   1.540 -0.0478 -0.9544 -0.5059
 2704TIP3    H229604   3.080   1.784   1.555  0.6030 -0.1971  0.1526
 2705TIP3   OH229605   4.064   6.690  15.392 -0.1650  0.8655 -0.4348
 2705TIP3    H129606   4.100   6.774  15.419 -0.0007  0.4346  0.7747
 2705TIP3    H229607   4.076   6.687  15.298  1.2646  1.5266 -0.2896
 2706TIP3   OH229608   3.044   5.825   5.008 -0.0010  0.0969  0.3892
 2706TIP3    H129609   3.006   5.762   4.946 -0.0845  0.8441 -0.3336
 2706TIP3    H229610   3.034   5.783   5.093  3.0116 -2.4425 -0.3234
 2707TIP3   OH229611   3.539   2.936  11.324 -0.6614  1.0043  0.2886
 2707TIP3    H129612   3.608   2.917  11.387 -0.2075 -0.1697 -0.5204
 2707TIP3    H229613   3.490   3.008  11.363 -0.4021  0.3145  1.9788
 2708TIP3   OH229614   3.204   2.845   4.085  0.2491  1.0935 -0.7513
 2708TIP3    H129615   3.157   2.926   4.104 -2.3727 -0.7952  1.7493
 2708TIP3    H229616   3.280   2.847   4.144 -1.5827  0.4492  1.8442
 2709TIP3   OH229617   4.954   6.751  15.583  0.2143  0.3022 -0.3899
 2709TIP3    H129618   5.035   6.752  15.634  0.1734  0.4203 -0.3267
 2709TIP3    H229619   4.950   6.837  15.542 -0.8217  1.0099  1.1015
 2710TIP3   OH229620   6.072   5.719  13.563  0.4969 -0.1756 -0.2643
 2710TIP3    H129621   6.016   5.697  13.638  1.1566 -3.5022 -0.5850
 2710TIP3    H229622   6.157   5.737  13.601  0.5712 -0.8102 -0.1137
 2711TIP3   OH229623   1.044   0.253   4.014  0.1246  0.7684 -0.1368
 2711TIP3    H129624   1.077   0.282   3.929  0.6111  0.8708  0.0827
 2711TIP3    H229625   1.055   0.329   4.071  2.3105 -0.0711  0.6890
 2712TIP3   OH229626   5.458   3.733   5.148  0.2794 -0.4337  0.3909
 2712TIP3    H129627   5.453   3.676   5.225  1.0319 -0.3113  0.5434
 2712TIP3    H229628   5.480   3.819   5.184 -1.5450  0.1331  0.2255
 2713TIP3   OH229629   0.918   1.208   2.937  0.1597 -0.1154  0.0359
 2713TIP3    H129630   0.909   1.291   2.983 -1.3536 -1.1722  1.7464
 2713TIP3    H229631   1.000   1.217   2.887  1.4994  1.3708  2.3417
 2714TIP3   OH229632   4.815   6.814  16.333  0.3701  0.1206  0.1645
 2714TIP3    H129633   4.813   6.784  16.423  0.3537 -1.3318 -0.2992
 2714TIP3    H229634   4.822   6.734  16.280  0.1864  0.9197 -1.1325
 2715TIP3   OH229635   0.389   3.528   3.055  0.1086 -0.0953 -0.0513
 2715TIP3    H129636   0.356   3.438   3.047 -0.5838  0.2741 -1.7719
 2715TIP3    H229637   0.349   3.561   3.136 -1.8245 -0.4749 -0.7937
 2716TIP3   OH229638   5.014   1.973   2.605 -0.4978  0.2791  0.4573
 2716TIP3    H129639   5.078   1.997   2.673 -0.8286  0.1734  0.8130
 2716TIP3    H229640   5.049   2.011   2.525  0.7088 -0.8939  0.3925
 2717TIP3   OH229641   1.581   3.739   0.200 -0.0140  0.2911  0.1529
 2717TIP3    H129642   1.622   3.671   0.146  0.6720  0.5984  0.2692
 2717TIP3    H229643   1.517   3.693   0.253 -0.1976 -0.1230 -0.4177
 2718TIP3   OH229644   2.639   6.577   2.629  0.0455  0.5395  0.3624
 2718TIP3    H129645   2.699   6.607   2.697 -0.5510  0.6958  0.8233
 2718TIP3    H229646   2.614   6.489   2.657  1.6922 -0.4080 -0.9166
 2719TIP3   OH229647   0.631   6.438  11.786  0.4069  0.1723 -0.0684
 2719TIP3    H129648   0.560   6.434  11.850  0.9378 -0.2172  0.5106
 2719TIP3    H229649   0.709   6.417  11.837  0.6603 -1.6678 -1.1149
 2720TIP3   OH229650   4.177   6.450  14.751 -0.1224 -0.0912 -0.5036
 2720TIP3    H129651   4.271   6.431  14.753 -0.1427 -0.1370  0.8507
 2720TIP3    H229652   4.172   6.542  14.724  0.4012  0.3152  0.7000
 2721TIP3   OH229653   2.809   5.798  11.034  0.3945 -0.2670 -0.2316
 2721TIP3    H129654   2.904   5.805  11.023  0.3837 -1.3931 -1.3415
 2721TIP3    H229655   2.780   5.750  10.956 -1.1963  0.7713 -0.3201
 2722TIP3   OH229656   1.419   5.771  16.299 -0.1806  0.2115 -0.4262
 2722TIP3    H129657   1.365   5.719  16.239 -0.9915 -0.5063  0.8716
 2722TIP3    H229658   1.355   5.823  16.348  0.3274 -0.3289  0.8350
 2723TIP3   OH229659   5.091   3.972   5.489 -0.4745 -0.1408 -0.1291
 2723TIP3    H129660   5.162   3.933   5.438 -1.8244 -3.6523  0.3835
 2723TIP3    H229661   5.043   4.026   5.426  0.9288 -0.1039 -1.2152
 2724TIP3   OH229662   2.202   5.411  12.217  0.3537  0.2231  0.0612
 2724TIP3    H129663   2.217   5.504  12.200 -0.4409  0.5501  1.0866
 2724TIP3    H229664   2.215   5.401  12.311 -2.7765  0.0001  0.5975
 2725TIP3   OH229665   4.139   4.840   3.217  0.6579  0.1600 -0.5074
 2725TIP3    H129666   4.231   4.853   3.191  1.1668  0.2041  1.1633
 2725TIP3    H229667   4.144   4.823   3.311 -1.2993  3.7395  0.4114
 2726TIP3   OH229668   6.287   4.227  15.430  0.3371  0.5517  0.2917
 2726TIP3    H129669   6.205   4.188  15.461  0.1833 -0.0872 -0.8785
 2726TIP3    H229670   6.314   4.171  15.358  2.1133  0.4138  1.0155
 2727TIP3   OH229671   1.044   3.819  15.432 -0.4026 -0.3724 -0.1199
 2727TIP3    H129672   1.068   3.794  15.521 -1.1220 -0.7089 -0.0112
 2727TIP3    H229673   1.127   3.828  15.386  0.0164  0.4763  0.7637
 2728TIP3   OH229674   5.988   4.647   4.793 -0.1039 -0.5371  0.5596
 2728TIP3    H129675   5.914   4.685   4.841  0.1979 -0.0909  0.6699
 2728TIP3    H229676   6.008   4.712   4.725 -1.5214 -1.8075 -1.2027
 2729TIP3   OH229677   6.719   6.367  13.261 -0.0187 -0.5736  0.2860
 2729TIP3    H129678   6.652   6.432  13.239  0.3602 -0.4562 -0.5291
 2729TIP3    H229679   6.674   6.306  13.320 -0.3994  0.3770  0.9993
 2730TIP3   OH229680   1.694   2.807   5.215 -0.1540 -0.1577 -0.2339
 2730TIP3    H129681   1.685   2.719   5.251 -2.5991  0.1950  0.1573
 2730TIP3    H229682   1.605   2.839   5.206  0.6454  2.0412 -1.0235
 2731TIP3   OH229683   5.856   4.488  14.636 -0.3142 -0.4335  0.2542
 2731TIP3    H129684   5.898   4.452  14.714 -0.8066 -0.1853  0.6345
 2731TIP3    H229685   5.773   4.441  14.630 -1.5725  1.4979  1.4979
 2732TIP3   OH229686   5.583   3.528   3.898 -0.9336 -0.2363 -0.4680
 2732TIP3    H129687   5.577   3.579   3.979 -0.3350  0.6306 -0.9655
 2732TIP3    H229688   5.675   3.505   3.890 -1.1326 -1.0996 -0.4483
 2733TIP3   OH229689   0.490   4.650   3.841  0.1067 -0.0811  0.5232
 2733TIP3    H129690   0.562   4.627   3.782 -0.3619  0.3930 -0.2426
 2733TIP3    H229691   0.417   4.597   3.811 -1.5305  3.3895 -2.3943
 2734TIP3   OH229692   3.860   1.377   2.862  0.0657 -0.0999 -0.2919
 2734TIP3    H129693   3.865   1.336   2.949 -0.0047 -1.8644 -1.0796
 2734TIP3    H229694   3.809   1.457   2.877 -0.7389 -0.8300  1.1327
 2735TIP3   OH229695   2.189   1.914   6.107 -0.6249 -0.2786 -0.0030
 2735TIP3    H129696   2.169   1.888   6.197 -1.7143  2.0076  0.4835
 2735TIP3    H229697   2.248   1.990   6.116 -1.8593  0.8709 -1.1302
 2736TIP3   OH229698   0.283   0.465  12.332  0.3914 -0.3835 -0.3852
 2736TIP3    H129699   0.188   0.476  12.323  0.5186 -0.6882 -2.5443
 2736TIP3    H229700   0.320   0.532  12.276  1.4754 -0.3527  0.3438
 2737TIP3   OH229701   0.254   1.574  13.135  0.4631  0.3806  0.2141
 2737TIP3    H129702   0.207   1.618  13.206  1.1948 -0.9412  1.6024
 2737TIP3    H229703   0.216   1.486  13.132  0.7339  0.2807 -0.7651
 2738TIP3   OH229704   3.553   0.846  14.695 -0.1408  0.1649 -0.5092
 2738TIP3    H129705   3.485   0.802  14.643 -1.9282  1.2993  0.7398
 2738TIP3    H229706   3.624   0.782  14.701 -1.1838 -1.1671 -1.6898
 2739TIP3   OH229707   4.147   0.111  14.550 -0.1170 -0.1471 -0.2360
 2739TIP3    H129708   4.210   0.172  14.512 -0.7058 -0.1589 -1.2641
 2739TIP3    H229709   4.130   0.047  14.481 -1.7225  0.2041 -0.2169
 2740TIP3   OH229710   3.425   1.902  13.242  0.5110 -0.0038  0.1279
 2740TIP3    H129711   3.427   1.982  13.294 -0.3955 -0.2900  0.6254
 2740TIP3    H229712   3.496   1.848  13.277  0.4192  0.1350  0.5244
 2741TIP3   OH229713   3.607   1.909  16.183 -1.1044 -0.8354  0.1006
 2741TIP3    H129714   3.673   1.849  16.219 -1.1790 -0.9692  0.0167
 2741TIP3    H229715   3.562   1.945  16.260 -1.6378 -1.5440  0.1337
 2742TIP3   OH229716   0.185   3.332  13.639 -0.4708 -0.3235 -0.6954
 2742TIP3    H129717   0.139   3.256  13.673 -0.3394 -0.1792 -0.1717
 2742TIP3    H229718   0.164   3.335  13.546 -0.2476 -1.1625 -0.7774
 2743TIP3   OH229719   3.098   4.825   3.247  0.3600  0.1676  0.5934
 2743TIP3    H129720   3.016   4.831   3.199  0.5211 -0.5982  0.2127
 2743TIP3    H229721   3.165   4.813   3.179  0.6727 -0.2068  0.9625
 2744TIP3   OH229722   6.568   1.688   0.958  0.4402  0.3676  0.5759
 2744TIP3    H129723   6.625   1.764   0.946  1.2188 -0.4509 -1.1057
 2744TIP3    H229724   6.593   1.654   1.044  1.5691  0.7766  0.4284
 2745TIP3   OH229725   0.166   1.996   0.980 -0.2763  0.1289 -0.3444
 2745TIP3    H129726   0.184   2.071   1.036 -1.7110  0.7130 -0.6317
 2745TIP3    H229727   0.217   1.924   1.018 -0.9920  0.5767  1.5537
 2746TIP3   OH229728   1.249   4.230  15.003  0.3007 -0.1358  0.0222
 2746TIP3    H129729   1.239   4.222  15.098 -0.8552  0.7326 -0.0053
 2746TIP3    H229730   1.223   4.320  14.983 -0.8471 -0.7123 -1.2827
 2747TIP3   OH229731   3.712   5.751  15.576 -0.3920 -0.1560 -0.2941
 2747TIP3    H129732   3.722   5.701  15.657 -0.1005 -0.7062 -0.6701
 2747TIP3    H229733   3.630   5.799  15.588 -0.0247  0.2889  0.6087
 2748TIP3   OH229734   6.532   5.399  16.367  0.4714 -0.0074  0.3670
 2748TIP3    H129735   6.457   5.410  16.307  1.3865 -0.1026 -0.8341
 2748TIP3    H229736   6.549   5.488  16.399 -0.0249  0.0507  0.4754
 2749TIP3   OH229737   1.257   5.706   2.293  0.0654  0.0484 -0.3378
 2749TIP3    H129738   1.270   5.704   2.388  0.0866 -1.0706 -0.3494
 2749TIP3    H229739   1.175   5.658   2.279 -0.7265  1.4645 -0.7852
 2750TIP3   OH229740   3.699   4.569   3.456  0.3745 -0.0873 -1.1809
 2750TIP3    H129741   3.729   4.487   3.416 -0.5354 -1.5087  0.9004
 2750TIP3    H229742   3.633   4.601   3.395  0.6088 -0.9877 -1.9499
 2751TIP3   OH229743   4.128   5.907   6.536  0.2903  0.1790  0.1246
 2751TIP3    H129744   4.099   5.848   6.467  1.5132  0.1368 -0.3883
 2751TIP3    H229745   4.189   5.855   6.588  2.0262  1.1518 -0.8158
 2752TIP3   OH229746   1.097   0.075  13.800 -0.1249  0.3507 -0.9872
 2752TIP3    H129747   1.057   0.005  13.852  0.4112 -0.1668 -1.2576
 2752TIP3    H229748   1.128   0.139  13.864  3.5693 -1.8199 -0.2919
 2753TIP3   OH229749   6.359   0.892   4.024 -0.4223 -0.4584  0.1699
 2753TIP3    H129750   6.300   0.850   4.087 -1.5145 -1.5931 -1.5405
 2753TIP3    H229751   6.423   0.938   4.078 -1.4242 -1.2351  2.0960
 2754TIP3   OH229752   2.447   1.983  14.878  0.3034 -0.6932  0.6219
 2754TIP3    H129753   2.473   2.071  14.905 -1.2514  0.2140 -0.6501
 2754TIP3    H229754   2.360   1.972  14.916  0.8397 -2.0813  1.5284
 2755TIP3   OH229755   0.885   0.682  15.190  0.0668 -0.0228 -0.8054
 2755TIP3    H129756   0.915   0.596  15.220  0.2743 -0.3565 -1.9122
 2755TIP3    H229757   0.948   0.743  15.227  0.2402 -0.3978 -0.4683
 2756TIP3   OH229758   6.062   0.869  14.795  0.1367  0.1925 -0.1114
 2756TIP3    H129759   6.083   0.937  14.731 -0.7297  0.8663  0.2891
 2756TIP3    H229760   5.992   0.907  14.848 -1.2545 -1.4504 -0.6364
 2757TIP3   OH229761   3.194   0.166  13.710 -0.6130  0.1683 -0.2356
 2757TIP3    H129762   3.189   0.208  13.625 -0.5785  0.9181  0.1242
 2757TIP3    H229763   3.105   0.171  13.745 -0.5111  0.3581  0.0001
 2758TIP3   OH229764   5.997   2.058  11.889 -0.9332  0.5085  0.5275
 2758TIP3    H129765   6.079   2.070  11.937 -1.1439  0.6497  0.8554
 2758TIP3    H229766   6.024   2.022  11.805 -0.6741 -1.2577  1.3328
 2759TIP3   OH229767   2.319   3.282   1.563 -0.3557 -0.0703  0.1449
 2759TIP3    H129768   2.307   3.229   1.484 -1.1073 -0.2745  0.3865
 2759TIP3    H229769   2.231   3.309   1.587 -0.1534 -0.1582  1.0140
 2760TIP3   OH229770   3.878   1.429   3.940 -0.1940  0.1706  0.6577
 2760TIP3    H129771   3.805   1.368   3.925  1.1706 -1.2410 -0.4627
 2760TIP3    H229772   3.934   1.420   3.863  1.2105  1.1604  1.5190
 2761TIP3   OH229773   3.045   0.924   1.638 -0.1247 -0.2591  0.3279
 2761TIP3    H129774   3.125   0.885   1.603 -0.1996 -0.4529  0.3760
 2761TIP3    H229775   3.048   1.015   1.606 -1.0228 -0.8527 -1.6017
 2762TIP3   OH229776   0.615   2.389   2.153 -0.0296 -0.0434  0.0605
 2762TIP3    H129777   0.595   2.360   2.242 -0.1127  2.0314  0.7705
 2762TIP3    H229778   0.533   2.379   2.105 -0.6592  1.0830  0.8760
 2763TIP3   OH229779   3.969   1.018   4.176  0.6163 -0.0964  0.2719
 2763TIP3    H129780   4.012   1.103   4.188  1.0697 -0.2838  0.0190
 2763TIP3    H229781   3.912   1.031   4.101 -0.4681  0.4120  1.1611
 2764TIP3   OH229782   2.202   5.801  12.890  0.3011 -0.0596  0.3207
 2764TIP3    H129783   2.183   5.889  12.859  0.2899  0.3130  1.3501
 2764TIP3    H229784   2.214   5.749  12.810 -1.3452  0.4958 -0.3230
 2765TIP3   OH229785   0.459   6.629   5.024 -0.2358 -0.0109 -0.2150
 2765TIP3    H129786   0.545   6.631   4.982 -1.7209 -1.2946 -3.6940
 2765TIP3    H229787   0.444   6.536   5.043 -1.4952 -0.0309 -1.2062
 2766TIP3   OH229788   1.740   5.830  15.329 -0.1234 -0.3482  0.5728
 2766TIP3    H129789   1.742   5.926  15.333  1.4114 -0.3758  1.0954
 2766TIP3    H229790   1.818   5.806  15.279 -1.3351 -1.3036 -0.9510
 2767TIP3   OH229791   5.104   0.859   0.386 -0.0788 -0.0347  0.0655
 2767TIP3    H129792   5.086   0.942   0.431 -1.8108  2.4092 -4.5298
 2767TIP3    H229793   5.019   0.829   0.356  0.6387 -3.1516  0.8024
 2768TIP3   OH229794   4.256   6.361   5.634 -0.0760 -0.3689 -0.5531
 2768TIP3    H129795   4.196   6.398   5.569  0.4903  0.4107 -0.6429
 2768TIP3    H229796   4.222   6.273   5.650 -0.1716 -0.6184 -1.9698
 2769TIP3   OH229797   3.912   6.273   6.166 -0.0371 -0.4143  0.2697
 2769TIP3    H129798   3.976   6.307   6.228 -0.4276 -1.7500  1.4835
 2769TIP3    H229799   3.837   6.332   6.174 -0.1045 -0.6012  1.1360
 2770TIP3   OH229800   1.040   4.944   2.475  0.0890 -0.3050  0.4065
 2770TIP3    H129801   0.977   4.956   2.546 -0.8987 -0.3378 -0.4517
 2770TIP3    H229802   1.075   5.031   2.459 -1.1069  0.0575 -0.3495
 2771TIP3   OH229803   0.706   3.797  12.234 -0.5445 -0.0647  0.4947
 2771TIP3    H129804   0.626   3.808  12.285 -1.2402 -0.4543 -0.4877
 2771TIP3    H229805   0.719   3.882  12.190 -1.3115 -0.4941 -0.5884
 2772TIP3   OH229806   2.781   1.180   5.340 -0.0363 -0.6168 -0.6132
 2772TIP3    H129807   2.686   1.191   5.340  0.2169  2.5871  0.8819
 2772TIP3    H229808   2.799   1.128   5.418 -0.4884  0.3507  0.1623
 2773TIP3   OH229809   3.888   5.771  13.286  0.1257  0.3376 -0.1035
 2773TIP3    H129810   3.962   5.727  13.245 -0.6290 -0.1429 -1.0003
 2773TIP3    H229811   3.927   5.844  13.333  1.0131  1.3531 -2.2640
 2774TIP3   OH229812   4.233   5.837  11.560 -0.0195  0.0288  0.0158
 2774TIP3    H129813   4.276   5.897  11.499  0.9396 -1.0014 -0.3371
 2774TIP3    H229814   4.151   5.882  11.584  0.2458  1.0565 -0.9450
 2775TIP3   OH229815   0.484   4.267   1.540 -0.4046 -0.3391 -0.2849
 2775TIP3    H129816   0.497   4.173   1.534  0.6418 -0.1131 -2.6006
 2775TIP3    H229817   0.393   4.280   1.514 -0.1841 -0.6445 -1.2603
 2776TIP3   OH229818   6.006   5.218  16.350 -0.2633 -0.4622 -0.2528
 2776TIP3    H129819   6.011   5.131  16.389  0.1740 -0.5506 -0.4948
 2776TIP3    H229820   6.049   5.276  16.414  0.5922 -0.6311 -0.6539
 2777TIP3   OH229821   3.400   5.755  10.561 -0.1428  0.1100 -0.8311
 2777TIP3    H129822   3.309   5.752  10.532  0.1467 -2.4327 -1.7591
 2777TIP3    H229823   3.449   5.715  10.488  1.6681  1.0534 -0.1893
 2778TIP3   OH229824   2.220   2.128  11.606  0.1420  0.2682 -1.0293
 2778TIP3    H129825   2.163   2.204  11.601  0.0684  0.1627 -1.9717
 2778TIP3    H229826   2.309   2.165  11.607  0.0872  0.4026 -0.2591
 2779TIP3   OH229827   4.893   0.914   1.856  0.5793  0.2822 -0.7175
 2779TIP3    H129828   4.802   0.934   1.879  0.3673  0.0310 -1.3256
 2779TIP3    H229829   4.925   0.860   1.929  0.8868  2.0477  0.5243
 2780TIP3   OH229830   4.806   4.495  12.399 -0.5802  0.2698 -0.1104
 2780TIP3    H129831   4.748   4.482  12.324 -1.9299  0.6856  0.8279
 2780TIP3    H229832   4.827   4.589  12.396  0.0303  0.1279 -0.4253
 2781TIP3   OH229833   6.822   5.834  10.374  0.5167 -0.3208  0.0185
 2781TIP3    H129834   6.810   5.740  10.385  0.8564 -0.2381  1.3070
 2781TIP3    H229835   6.748   5.873  10.421  0.8150  0.0559  0.1858
 2782TIP3   OH229836   2.874   2.456   2.149  0.5259 -0.0315 -0.3958
 2782TIP3    H129837   2.919   2.374   2.126  0.8934 -0.1369  0.6648
 2782TIP3    H229838   2.882   2.462   2.244 -0.3535  0.7505 -0.3607
 2783TIP3   OH229839   0.483   2.726   0.653 -0.8948 -0.1497 -0.7470
 2783TIP3    H129840   0.555   2.729   0.716  0.0197 -2.0328 -1.6399
 2783TIP3    H229841   0.407   2.755   0.703  0.7461  4.2147 -0.3423
 2784TIP3   OH229842   1.793   4.277   5.385 -0.4293 -0.2453  0.6511
 2784TIP3    H129843   1.858   4.334   5.344  0.0879 -0.6256  0.9275
 2784TIP3    H229844   1.844   4.213   5.433 -0.9599 -1.7671 -0.7118
 2785TIP3   OH229845   1.146   4.781  10.894  0.1077  0.0465 -0.1370
 2785TIP3    H129846   1.162   4.707  10.836 -0.6495 -0.1819 -0.0629
 2785TIP3    H229847   1.225   4.836  10.886  0.4146 -0.4633 -0.6411
 2786TIP3   OH229848   3.777   6.114  11.101  0.1190  0.0300  0.2997
 2786TIP3    H129849   3.852   6.173  11.090 -0.3430  0.5626 -0.0812
 2786TIP3    H229850   3.752   6.090  11.011 -0.2376 -0.0478  0.4171
 2787TIP3   OH229851   5.890   3.259  12.223  0.7608 -0.3529  0.1187
 2787TIP3    H129852   5.913   3.240  12.314 -1.0332  1.0619  0.9368
 2787TIP3    H229853   5.882   3.354  12.220 -0.7398 -0.4746 -1.0918
 2788TIP3   OH229854   4.098   3.579   5.547  0.8966  0.5980 -0.2226
 2788TIP3    H129855   4.061   3.493   5.567 -1.9088  1.6906 -0.1502
 2788TIP3    H229856   4.108   3.622   5.633  1.1018  0.7570 -0.3255
 2789TIP3   OH229857   0.745   3.711  12.560  0.1467  0.3699 -0.2584
 2789TIP3    H129858   0.695   3.670  12.630  0.2549 -0.1295 -0.4655
 2789TIP3    H229859   0.742   3.648  12.488 -0.8332  1.3291 -1.0788
 2790TIP3   OH229860   3.856   2.618  13.826  0.7794  0.3320 -0.2583
 2790TIP3    H129861   3.823   2.706  13.810  0.7049 -0.0763 -2.7788
 2790TIP3    H229862   3.778   2.563  13.833  0.8314  0.3986  0.9661
 2791TIP3   OH229863   4.230   3.839   4.451 -0.7705 -0.0749 -0.0335
 2791TIP3    H129864   4.312   3.843   4.500 -1.7327 -1.5075  1.8615
 2791TIP3    H229865   4.231   3.917   4.396  2.5389 -0.8513 -1.3103
 2792TIP3   OH229866   4.356   6.639   6.027 -0.0931  0.5856  0.1962
 2792TIP3    H129867   4.383   6.601   5.944  1.8998 -0.8381  1.3978
 2792TIP3    H229868   4.271   6.598   6.046  1.2793 -2.2574  0.6963
 2793TIP3   OH229869   4.443   6.461  14.468 -0.6383 -0.3286  0.5321
 2793TIP3    H129870   4.496   6.532  14.431 -0.5615 -0.4297  0.4495
 2793TIP3    H229871   4.353   6.484  14.445 -0.4431 -1.4269 -1.5021
 2794TIP3   OH229872   4.731   5.982  14.141 -0.6321  0.0198  0.1324
 2794TIP3    H129873   4.683   6.053  14.183 -0.4053  0.1332  0.2059
 2794TIP3    H229874   4.753   6.016  14.054 -0.1071  0.2277  0.3409
 2795TIP3   OH229875   2.070   2.733  15.037 -0.2432 -0.0924  0.8687
 2795TIP3    H129876   2.049   2.823  15.062 -1.3151 -0.8419  2.8824
 2795TIP3    H229877   1.987   2.687  15.042 -0.0239 -0.9003 -1.7673
 2796TIP3   OH229878   4.025   6.063  16.473 -0.4312  0.2800  0.7073
 2796TIP3    H129879   4.058   6.125  16.538 -0.9571  1.7995 -0.4320
 2796TIP3    H229880   4.037   6.107  16.389 -0.1190 -1.4788 -0.2222
 2797TIP3   OH229881   0.529   5.311   1.662 -0.7054  0.2209 -0.4970
 2797TIP3    H129882   0.452   5.324   1.606 -0.4265  0.3219 -0.8634
 2797TIP3    H229883   0.521   5.378   1.730 -2.0185 -1.0563  0.6954
 2798TIP3   OH229884   3.993   6.514   2.236 -0.7101  0.0730  0.2661
 2798TIP3    H129885   4.004   6.477   2.324  1.5927  0.2828  0.1272
 2798TIP3    H229886   4.056   6.585   2.231  0.2315 -0.8113 -2.0122
 2799TIP3   OH229887   5.516   1.770   3.552  0.1633  0.2393  0.5457
 2799TIP3    H129888   5.473   1.684   3.552  0.5865  0.0237  0.8266
 2799TIP3    H229889   5.576   1.766   3.478  0.1637  0.3047  0.5426
 2800TIP3   OH229890   4.215   0.962   2.070 -0.7600 -0.6497 -0.0206
 2800TIP3    H129891   4.306   0.974   2.042 -0.2202 -0.6399  1.6050
 2800TIP3    H229892   4.169   0.934   1.991  1.2196 -3.4945 -0.3202
 2801TIP3   OH229893   2.306   3.612   0.392  0.0939  0.2000 -0.1701
 2801TIP3    H129894   2.250   3.599   0.315  1.2464  0.0348 -1.0139
 2801TIP3    H229895   2.333   3.524   0.417  0.7757  0.3265 -0.4129
 2802TIP3   OH229896   5.364   4.363  15.914 -0.1289 -0.2724  0.0434
 2802TIP3    H129897   5.347   4.451  15.880 -0.8297 -0.7084 -0.7930
 2802TIP3    H229898   5.371   4.374  16.009 -0.9326  0.5840  0.0195
 2803TIP3   OH229899   6.349   0.911   0.982 -0.3297  0.1337  0.0061
 2803TIP3    H129900   6.375   0.838   0.925 -0.5209  0.4343 -0.4726
 2803TIP3    H229901   6.279   0.875   1.036  1.0800 -0.7075  1.3622
 2804TIP3   OH229902   5.725   0.415   4.736 -0.1106  0.2169  0.2201
 2804TIP3    H129903   5.802   0.390   4.684 -0.5701 -1.8349  0.4579
 2804TIP3    H229904   5.753   0.407   4.827 -0.5368 -0.3700  0.3074
 2805TIP3   OH229905   4.787   5.279   2.135 -0.1854  0.5890 -0.4398
 2805TIP3    H129906   4.694   5.300   2.141  0.0054  1.4926 -0.5649
 2805TIP3    H229907   4.831   5.363   2.124  0.5805  0.1132 -1.2198
 2806TIP3   OH229908   2.823   5.421   2.625  0.6102 -0.5326  0.1057
 2806TIP3    H129909   2.878   5.344   2.613  0.8709 -0.3568  0.1749
 2806TIP3    H229910   2.862   5.467   2.698  0.8585  0.0215 -0.3693
 2807TIP3   OH229911   1.806   2.067   4.007 -0.2658  1.0594 -0.0128
 2807TIP3    H129912   1.870   2.010   3.965 -1.9105  0.8120 -2.4039
 2807TIP3    H229913   1.784   2.023   4.089 -0.7514 -1.3098 -1.3168
 2808TIP3   OH229914   3.141   3.956   4.988  0.3330  0.6082 -0.4864
 2808TIP3    H129915   3.209   4.021   4.969  0.0504  1.0115 -0.1463
 2808TIP3    H229916   3.168   3.878   4.939  0.0408  1.3624 -1.9219
 2809TIP3   OH229917   0.244   3.962   1.333 -0.2672 -0.3051 -0.0678
 2809TIP3    H129918   0.207   4.030   1.389 -0.6054 -0.2075 -0.4074
 2809TIP3    H229919   0.329   3.941   1.373 -0.6018 -0.3960  0.6032
 2810TIP3   OH229920   2.793   6.288  14.324  0.5557  0.4530 -0.2827
 2810TIP3    H129921   2.731   6.284  14.252  0.5610 -0.9667 -0.2341
 2810TIP3    H229922   2.779   6.374  14.364 -0.9603  0.3884 -0.6413
 2811TIP3   OH229923   5.877   4.958  16.835  0.1475 -0.9209 -0.3295
 2811TIP3    H129924   5.847   4.917  16.916 -3.3142  0.8634 -0.5166
 2811TIP3    H229925   5.915   5.041  16.863  0.5340 -1.0629 -0.4296
 2812TIP3   OH229926   6.769   0.786   2.306  0.4933 -0.3547 -0.2408
 2812TIP3    H129927   6.855   0.752   2.283  1.0065  0.2383  0.7429
 2812TIP3    H229928   6.709   0.715   2.285  1.4805 -1.7084  1.2776
 2813TIP3   OH229929   5.707   1.690  14.699 -0.4302  0.5040  0.3148
 2813TIP3    H129930   5.798   1.717  14.705  0.1217 -1.1892  0.2914
 2813TIP3    H229931   5.685   1.697  14.607 -0.3069  0.8890  0.3159
 2814TIP3   OH229932   3.257   2.223   5.403  0.0957 -0.1430 -0.1421
 2814TIP3    H129933   3.221   2.192   5.486  0.2194  0.3583  0.1052
 2814TIP3    H229934   3.352   2.216   5.414  0.1082 -0.2542 -0.3122
 2815TIP3   OH229935   2.757   3.271  17.196  0.0932  0.2152  0.3640
 2815TIP3    H129936   2.679   3.281  17.141 -0.0939 -0.0541  0.5808
 2815TIP3    H229937   2.760   3.352  17.247  1.2227  1.2509 -1.2329
 2816TIP3   OH229938   0.088   5.514   5.399 -0.0650 -0.2885 -0.2087
 2816TIP3    H129939   0.161   5.574   5.415  0.4210 -1.0516  0.5045
 2816TIP3    H229940   0.097   5.489   5.308  1.1850 -1.1674  0.1348
 2817TIP3   OH229941   3.642   2.043  15.278 -0.6560 -0.6355  0.0710
 2817TIP3    H129942   3.672   1.961  15.240  2.1948  0.3304 -0.0492
 2817TIP3    H229943   3.648   2.030  15.373 -0.1455 -0.5912  0.0512
 2818TIP3   OH229944   0.492   3.245   1.959  0.2410 -0.9406  0.2334
 2818TIP3    H129945   0.534   3.330   1.970 -0.8364 -0.3545 -0.0546
 2818TIP3    H229946   0.531   3.209   1.879  1.1433 -1.0016  0.6931
 2819TIP3   OH229947   3.423   1.972   4.925  0.4782 -0.7485 -0.5579
 2819TIP3    H129948   3.443   1.891   4.879 -0.3372 -1.0492 -0.3932
 2819TIP3    H229949   3.347   2.008   4.880 -0.3788 -1.0913  0.5865
 2820TIP3   OH229950   6.147   3.717   2.344 -0.5771  0.6942 -0.3737
 2820TIP3    H129951   6.081   3.778   2.311  0.5931  2.0468 -0.3090
 2820TIP3    H229952   6.193   3.686   2.266 -1.3163 -0.3097 -0.4259
 2821TIP3   OH229953   2.637   0.723  11.381 -0.3674  0.6720 -0.2040
 2821TIP3    H129954   2.605   0.633  11.388  1.8504 -0.3067 -1.4004
 2821TIP3    H229955   2.699   0.731  11.454 -0.1524  1.0455 -0.4272
 2822TIP3   OH229956   4.108   3.362  14.902 -0.4051 -0.3627  0.2457
 2822TIP3    H129957   4.027   3.382  14.948 -0.4180 -0.1289  0.1268
 2822TIP3    H229958   4.126   3.271  14.922 -0.9229 -0.5373 -0.0686
 2823TIP3   OH229959   5.453   0.338  12.756 -0.1440  0.4243  0.1098
 2823TIP3    H129960   5.396   0.272  12.796 -0.8056 -0.0695 -1.5329
 2823TIP3    H229961   5.393   0.407  12.728  0.2340  0.5497 -0.4003
 2824TIP3   OH229962   1.347   5.368  12.010 -0.0729 -0.2898 -0.0705
 2824TIP3    H129963   1.381   5.411  11.932  1.3200 -0.5849  0.3307
 2824TIP3    H229964   1.301   5.291  11.977 -1.8276  0.9871 -0.7327
 2825TIP3   OH229965   1.409   0.018   4.217 -0.2098 -0.1054 -0.1290
 2825TIP3    H129966   1.465   0.079   4.266 -0.5244  0.2243 -0.1739
 2825TIP3    H229967   1.358   0.075   4.158 -0.7467 -0.3810  0.0637
 2826TIP3   OH229968   4.026   5.944   4.026  0.3958 -0.2849 -0.1163
 2826TIP3    H129969   4.011   5.927   4.120  0.3439 -1.7490 -0.3550
 2826TIP3    H229970   4.025   6.039   4.018  0.6030 -0.1300  1.4062
 2827TIP3   OH229971   4.068   3.890   4.936 -0.2729  0.1872  0.3148
 2827TIP3    H129972   3.974   3.897   4.920 -0.2412  1.3494  0.5833
 2827TIP3    H229973   4.083   3.941   5.016  0.4375 -0.8320  0.8557
 2828TIP3   OH229974   1.937   0.282  10.890 -0.1624 -0.1074 -0.8549
 2828TIP3    H129975   1.913   0.201  10.844 -0.5289 -0.4844 -0.0305
 2828TIP3    H229976   1.856   0.312  10.930  0.0728  0.4045 -0.7599
 2829TIP3   OH229977   0.951   1.125  13.339 -0.1537 -0.0000  0.0141
 2829TIP3    H129978   0.874   1.096  13.387 -0.0673 -0.4619 -0.1277
 2829TIP3    H229979   1.003   1.172  13.404  1.1766 -2.7245  1.0462
 2830TIP3   OH229980   1.662   2.448  13.032  0.4683 -0.1263 -0.4186
 2830TIP3    H129981   1.577   2.482  13.059  0.9450  0.4757  0.3707
 2830TIP3    H229982   1.719   2.464  13.108  1.1291 -1.1083 -0.6856
 2831TIP3   OH229983   5.294   4.797   4.027  0.1065  0.2415 -0.2793
 2831TIP3    H129984   5.380   4.826   4.056 -1.2185  2.4685  1.8042
 2831TIP3    H229985   5.272   4.854   3.953  0.5226 -0.5616 -1.0404
 2832TIP3   OH229986   4.067   2.869   1.111 -0.3573  0.0248  0.0624
 2832TIP3    H129987   4.138   2.809   1.131 -0.9244 -0.3681  0.9785
 2832TIP3    H229988   4.096   2.917   1.034  0.9092 -0.1082  0.4396
 2833TIP3   OH229989   6.422   1.503  17.240  0.1363 -0.2728 -0.6162
 2833TIP3    H129990   6.365   1.458  17.178  1.4537  0.1283 -2.1898
 2833TIP3    H229991   6.508   1.503  17.198  0.6724  1.6865  0.3774
 2834TIP3   OH229992   2.496   1.414   5.149  0.0753  0.5092  0.1673
 2834TIP3    H129993   2.464   1.504   5.157  1.1388  1.0596 -1.2805
 2834TIP3    H229994   2.590   1.423   5.135  0.2836 -0.8705  0.5050
 2835TIP3   OH229995   4.399   1.283  15.689  0.4967 -0.4740  0.3529
 2835TIP3    H129996   4.374   1.355  15.747  0.4715  0.0164 -0.2588
 2835TIP3    H229997   4.478   1.247  15.728  0.6959  0.1004  0.4913
 2836TIP3   OH229998   0.537   1.686  16.604  0.3129 -0.3412  0.9915
 2836TIP3    H129999   0.543   1.747  16.677  0.3148  1.2504 -0.3020
 2836TIP3    H230000   0.443   1.664  16.599 -0.3019  2.2063 -0.5554
 2837TIP3   OH230001   3.079   2.909   1.857  0.4200 -0.2046 -0.0460
 2837TIP3    H130002   2.985   2.902   1.872  0.4266 -1.6092 -0.5112
 2837TIP3    H230003   3.118   2.879   1.939  0.5869  4.0375  1.7266
 2838TIP3   OH230004   2.817   1.464  11.086 -0.4507  0.2631  0.5759
 2838TIP3    H130005   2.848   1.543  11.041  1.6123 -0.5879  0.3707
 2838TIP3    H230006   2.747   1.431  11.031 -1.2414  1.8367  0.5778
 2839TIP3   OH230007   1.344   2.790   0.740  0.0337  0.3764 -0.4292
 2839TIP3    H130008   1.433   2.825   0.743  0.4905 -0.7231  1.6140
 2839TIP3    H230009   1.289   2.862   0.770  0.3489  0.8021 -0.8625
 2840TIP3   OH230010   4.110   0.298   3.225  0.1985 -0.1138 -0.1417
 2840TIP3    H130011   4.144   0.256   3.304  0.1915 -0.4677 -0.3214
 2840TIP3    H230012   4.185   0.345   3.189  0.0090  0.6795  0.4810
 2841TIP3   OH230013   3.065   0.372   1.119 -0.4685  0.4352  0.7888
 2841TIP3    H130014   3.069   0.348   1.026  0.0852 -1.4126  1.2428
 2841TIP3    H230015   3.077   0.467   1.119  0.0493  0.4277 -1.0007
 2842TIP3   OH230016   4.914   0.616  11.377 -0.4584  0.0883 -0.4900
 2842TIP3    H130017   4.999   0.598  11.339 -0.7038 -2.0939 -0.1420
 2842TIP3    H230018   4.851   0.595  11.308 -0.7777 -0.9319  0.0721
 2843TIP3   OH230019   0.179   0.566   1.452 -0.3337  0.0263  0.0531
 2843TIP3    H130020   0.093   0.592   1.485 -0.5519 -1.9909  1.2454
 2843TIP3    H230021   0.166   0.476   1.422  0.7360  0.5903 -2.3390
 2844TIP3   OH230022   6.221   0.395  11.218 -0.0920  0.2653  0.5089
 2844TIP3    H130023   6.313   0.423  11.222  0.0845 -0.3749  1.2994
 2844TIP3    H230024   6.171   0.473  11.239  0.3006  0.5181  0.5119
 2845TIP3   OH230025   1.638   2.790   1.390  0.6162  0.1765 -0.0798
 2845TIP3    H130026   1.612   2.840   1.468 -1.4648  0.7627 -1.1035
 2845TIP3    H230027   1.667   2.857   1.328  1.3495 -0.2220 -0.1867
 2846TIP3   OH230028   6.506   0.712   4.590  0.4484 -0.4107 -0.1356
 2846TIP3    H130029   6.598   0.690   4.607  0.6149 -1.4609 -2.1075
 2846TIP3    H230030   6.480   0.655   4.518 -1.9095 -0.4545  0.6482
 2847TIP3   OH230031   1.703   4.458  12.794  1.1339 -0.2357 -0.0718
 2847TIP3    H130032   1.770   4.524  12.811  1.0847  0.0105 -0.7739
 2847TIP3    H230033   1.621   4.508  12.788  1.1048 -0.3453 -0.6659
 2848TIP3   OH230034   1.342   5.495  11.565  0.5997  0.2626  0.5997
 2848TIP3    H130035   1.364   5.558  11.496  2.0293 -0.3863  0.4264
 2848TIP3    H230036   1.329   5.413  11.519 -0.3089  0.2146  0.9273
 2849TIP3   OH230037   2.395   0.198   4.002  0.0744  0.3208  0.1799
 2849TIP3    H130038   2.441   0.251   4.067 -1.2793  0.5766  0.9763
 2849TIP3    H230039   2.401   0.108   4.035  0.6664  0.2407 -0.1339
 2850TIP3   OH230040   3.308   5.757   0.769 -0.0939  0.2587 -0.3333
 2850TIP3    H130041   3.353   5.682   0.730  0.2741  0.2286  0.1396
 2850TIP3    H230042   3.300   5.820   0.696  0.8408  0.3169 -0.4078
 2851TIP3   OH230043   4.555   2.779   1.539  0.1863  0.3947  0.3503
 2851TIP3    H130044   4.561   2.763   1.445 -0.6883  1.3975  0.1050
 2851TIP3    H230045   4.477   2.730   1.567  0.5796 -0.0939  0.6029
 2852TIP3   OH230046   0.560   3.558  15.700 -0.2452 -0.4286 -0.1399
 2852TIP3    H130047   0.524   3.545  15.788  2.2147 -2.1033  0.7024
 2852TIP3    H230048   0.623   3.629  15.710 -1.4050  0.7972 -1.0752
 2853TIP3   OH230049   0.931   4.158  11.544  0.5572 -0.6915  0.6523
 2853TIP3    H130050   1.007   4.100  11.537  0.6512 -0.4225 -1.0744
 2853TIP3    H230051   0.864   4.115  11.491  0.6906  0.8258 -0.8377
 2854TIP3   OH230052   2.887   2.730  13.622  0.2895  0.4171  0.0082
 2854TIP3    H130053   2.972   2.714  13.663  1.1591  1.2713 -1.4149
 2854TIP3    H230054   2.848   2.799  13.676  1.8808  2.3142 -1.1395
 2855TIP3   OH230055   0.479   5.031  13.524  0.1421  0.1330  0.1870
 2855TIP3    H130056   0.573   5.015  13.512  0.0572  0.8711 -2.0478
 2855TIP3    H230057   0.475   5.119  13.562  0.3692 -0.0877  0.7232
 2856TIP3   OH230058   4.250   4.322  16.124 -0.2863  0.9937  0.2750
 2856TIP3    H130059   4.276   4.345  16.034  2.3093  3.1371  1.4349
 2856TIP3    H230060   4.213   4.234  16.116  0.5482  0.7908 -2.7785
 2857TIP3   OH230061   5.355   4.086   5.629  0.5029 -0.4589 -0.2540
 2857TIP3    H130062   5.335   4.159   5.569  1.8056 -1.0409 -1.4762
 2857TIP3    H230063   5.273   4.038   5.637 -0.1323  0.5995 -0.1849
 2858TIP3   OH230064   2.431   5.150  16.863 -0.0120 -0.1487 -0.5296
 2858TIP3    H130065   2.508   5.112  16.822  0.2977  0.9848 -1.0526
 2858TIP3    H230066   2.466   5.210  16.929 -0.4980 -2.1686  1.6831
 2859TIP3   OH230067   0.457   3.125  11.846 -0.1448  0.1080  0.3326
 2859TIP3    H130068   0.524   3.140  11.779 -1.0535  1.4172 -0.3335
 2859TIP3    H230069   0.498   3.065  11.908  1.4732  0.5164 -0.2889
 2860TIP3   OH230070   3.174   1.297  13.695  0.0144 -0.5218 -0.1269
 2860TIP3    H130071   3.164   1.283  13.601  1.0252 -2.4286  0.0092
 2860TIP3    H230072   3.269   1.304  13.708 -0.1535  2.9208  0.4011
 2861TIP3   OH230073   0.205   6.818   1.377 -0.0708  0.0588 -0.4451
 2861TIP3    H130074   0.123   6.772   1.359  0.3808 -0.5692 -0.9491
 2861TIP3    H230075   0.232   6.852   1.291 -0.1805  0.9085 -0.1533
 2862TIP3   OH230076   2.810   2.892   1.821  0.1488 -0.4483  0.0647
 2862TIP3    H130077   2.765   2.879   1.905  2.3391 -0.2182  1.3595
 2862TIP3    H230078   2.742   2.925   1.762 -1.0143  1.5773  2.3680
 2863TIP3   OH230079   2.292   5.636  11.612 -0.2194  0.1937  0.1360
 2863TIP3    H130080   2.319   5.709  11.668 -0.2547  0.0391  0.3550
 2863TIP3    H230081   2.308   5.668  11.523 -0.3858  0.5293  0.2222
 2864TIP3   OH230082   6.321   6.762   1.204  0.2593  0.6851  0.2685
 2864TIP3    H130083   6.362   6.698   1.146 -0.5917  0.5712 -0.2237
 2864TIP3    H230084   6.394   6.804   1.249  0.8284 -1.0642  1.0864
 2865TIP3   OH230085   3.853   2.213  11.818 -1.0140 -0.2164 -0.7097
 2865TIP3    H130086   3.761   2.189  11.805 -1.0919 -0.9053  0.9204
 2865TIP3    H230087   3.857   2.247  11.908 -0.0265  1.6596 -1.4045
 2866TIP3   OH230088   2.579   6.384  15.806  0.1099 -0.2639  0.5502
 2866TIP3    H130089   2.572   6.480  15.810 -0.0872 -0.1897 -0.9313
 2866TIP3    H230090   2.501   6.356  15.758  0.4639 -1.1205  0.4544
 2867TIP3   OH230091   3.108   1.357  13.038 -0.7228  0.2827  0.2408
 2867TIP3    H130092   3.079   1.418  13.107  0.8291  0.4559  0.7710
 2867TIP3    H230093   3.072   1.273  13.065 -1.7941  0.6960  0.1871
 2868TIP3   OH230094   6.352   5.974   0.163  0.4847  0.1405 -0.1320
 2868TIP3    H130095   6.338   6.060   0.124 -0.5163 -0.3951 -1.0192
 2868TIP3    H230096   6.345   5.913   0.090 -2.3229 -0.9843  0.9175
 2869TIP3   OH230097   1.041   3.444  15.776  0.0699  0.0670  0.4818
 2869TIP3    H130098   1.110   3.410  15.720 -0.4240 -2.6499  1.3985
 2869TIP3    H230099   0.984   3.369  15.793 -1.4485  1.5092  2.1661
 2870TIP3   OH230100   1.441   5.424  12.758 -0.5804  1.0820 -0.3226
 2870TIP3    H130101   1.491   5.342  12.756 -0.0569  1.2468  2.3677
 2870TIP3    H230102   1.480   5.477  12.687 -0.1229 -0.5230 -1.3148
 2871TIP3   OH230103   6.617   2.098   2.596  0.5852  0.3599 -0.0633
 2871TIP3    H130104   6.527   2.110   2.626  0.4401 -0.3977 -0.1963
 2871TIP3    H230105   6.645   2.186   2.570  0.2664  0.8026  1.0265
 2872TIP3   OH230106   6.652   3.155  16.488  0.9030 -0.0308 -0.4712
 2872TIP3    H130107   6.694   3.078  16.450  0.1420  0.5202 -2.5550
 2872TIP3    H230108   6.699   3.229  16.452 -1.5575  0.5981 -2.7071
 2873TIP3   OH230109   2.882   1.849   4.261  0.0213 -0.5114  0.3087
 2873TIP3    H130110   2.866   1.812   4.348 -3.8658 -0.7759 -0.3730
 2873TIP3    H230111   2.875   1.943   4.273  0.9812 -0.4499  0.4872
 2874TIP3   OH230112   4.862   3.686   3.874 -0.1390 -0.0615 -0.0889
 2874TIP3    H130113   4.954   3.673   3.852  0.8270  2.0343  2.2692
 2874TIP3    H230114   4.855   3.664   3.966 -1.9691  0.0897 -0.1477
 2875TIP3   OH230115   5.363   0.663  16.800  0.0543 -0.1453  0.2713
 2875TIP3    H130116   5.278   0.707  16.800 -0.5342 -1.1405  2.2633
 2875TIP3    H230117   5.357   0.598  16.731  0.0814  1.3009 -1.1459
 2876TIP3   OH230118   1.676   0.016   4.830  0.1044  0.3039 -0.2808
 2876TIP3    H130119   1.597   0.071   4.835 -1.1790 -1.5682  1.7462
 2876TIP3    H230120   1.650  -0.057   4.773  0.2500 -0.4903  0.6596
 2877TIP3   OH230121   2.846   3.920   4.626  0.2984 -0.5928  0.1016
 2877TIP3    H130122   2.769   3.926   4.569  0.0143  0.4763  0.5772
 2877TIP3    H230123   2.841   3.998   4.681  1.2870 -0.9350  0.6944
 2878TIP3   OH230124   0.349   1.019  13.331 -0.5884 -0.1272 -0.3860
 2878TIP3    H130125   0.319   0.939  13.288 -1.2328 -0.2612  0.3018
 2878TIP3    H230126   0.425   0.992  13.383 -1.0267 -0.3615  0.1307
 2879TIP3   OH230127   1.158   1.560  17.078  0.8797 -0.7020 -0.4817
 2879TIP3    H130128   1.253   1.567  17.070  0.8829  0.4815  0.4316
 2879TIP3    H230129   1.129   1.532  16.991  1.9269  0.4204 -1.2177
 2880TIP3   OH230130   4.039   0.914   0.101  0.3973  0.4162 -0.7145
 2880TIP3    H130131   4.019   0.821   0.116 -0.7158  0.7449 -0.0007
 2880TIP3    H230132   3.954   0.958   0.107  0.9826  1.5560 -0.4205
 2881TIP3   OH230133   2.184   3.821   1.346 -0.0349 -0.0708 -0.0084
 2881TIP3    H130134   2.095   3.803   1.378 -0.3315  1.4576  0.1503
 2881TIP3    H230135   2.180   3.802   1.252 -1.2177  2.0017 -0.4691
 2882TIP3   OH230136   4.051   2.763   6.384 -0.0253  0.1658 -0.1253
 2882TIP3    H130137   4.020   2.845   6.422  1.1276  0.0649  1.1055
 2882TIP3    H230138   4.107   2.725   6.452  2.0090 -0.1031 -1.8834
 2883TIP3   OH230139   4.265   3.299   1.320  0.0071 -0.1580 -0.0206
 2883TIP3    H130140   4.184   3.339   1.353 -0.3639  0.0940 -1.1932
 2883TIP3    H230141   4.274   3.218   1.371 -1.7753 -0.9354 -0.8379
 2884TIP3   OH230142   4.035   5.484   0.670  0.1339 -0.1878 -0.1156
 2884TIP3    H130143   4.046   5.467   0.763  1.9768 -2.0449 -0.5806
 2884TIP3    H230144   4.124   5.502   0.638 -0.1692 -1.4057 -1.7775
 2885TIP3   OH230145   0.118   6.626   2.407 -0.0313 -0.0328 -0.0036
 2885TIP3    H130146   0.149   6.554   2.462  0.9389  1.4369  1.4671
 2885TIP3    H230147   0.173   6.701   2.431  0.0377  0.8671 -2.5675
 2886TIP3   OH230148   4.816   0.346  13.819  0.0108 -0.6997 -0.1464
 2886TIP3    H130149   4.876   0.361  13.892 -0.6816  1.6532  0.0201
 2886TIP3    H230150   4.853   0.398  13.747 -0.7233 -0.8595 -0.6472
 2887TIP3   OH230151   0.869   1.787  13.689 -0.6136  0.5261 -0.7254
 2887TIP3    H130152   0.945   1.810  13.637  0.4419  1.9820  1.3037
 2887TIP3    H230153   0.859   1.860  13.750 -1.0037 -1.5405  1.8926
 2888TIP3   OH230154   4.274   1.294   0.009  0.3614 -0.3216 -0.2502
 2888TIP3    H130155   4.189   1.339   0.005  0.0645 -0.7279  0.9535
 2888TIP3    H230156   4.252   1.202   0.000  0.6177 -0.4657  0.5524
 2889TIP3   OH230157   1.028   3.575   0.978 -0.7180 -0.3766 -0.9126
 2889TIP3    H130158   1.010   3.641   0.910 -0.4960  0.2303 -0.3946
 2889TIP3    H230159   1.095   3.616   1.033 -0.5745 -1.0442 -0.5872
 2890TIP3   OH230160   0.463   3.670   5.012 -0.4727  0.0767  0.0265
 2890TIP3    H130161   0.474   3.664   4.917  1.0253 -1.0150  0.2287
 2890TIP3    H230162   0.403   3.600   5.034 -1.3795  0.7704 -0.1645
 2891TIP3   OH230163   6.025   3.030   4.276 -0.2536 -0.2181  0.5829
 2891TIP3    H130164   5.943   3.070   4.247  0.0287 -0.8853 -1.2682
 2891TIP3    H230165   6.069   3.100   4.325 -0.4966  1.2405 -1.1815
 2892TIP3   OH230166   2.622   4.330  11.382  0.6704 -0.5071  0.0653
 2892TIP3    H130167   2.710   4.362  11.365  1.0032 -0.4092  1.8079
 2892TIP3    H230168   2.597   4.370  11.465 -1.3287  0.0579 -0.7657
 2893TIP3   OH230169   3.386   0.897  15.228  0.0727  0.3440  0.0064
 2893TIP3    H130170   3.293   0.876  15.221 -0.0336  0.8055 -0.0166
 2893TIP3    H230171   3.414   0.856  15.310 -0.3256  0.7960  0.3795
 2894TIP3   OH230172   2.056   0.378   2.342 -0.5353  0.2847  0.2718
 2894TIP3    H130173   2.090   0.425   2.419 -0.5614  0.5581  0.1185
 2894TIP3    H230174   1.967   0.411   2.332 -0.6491 -0.0023  0.3253
 2895TIP3   OH230175   5.383   6.591  16.297  0.0164 -0.1172 -0.2943
 2895TIP3    H130176   5.316   6.615  16.362 -0.8280  1.3200 -1.6245
 2895TIP3    H230177   5.335   6.547  16.228  0.3142  1.3401 -1.4871
 2896TIP3   OH230178   1.379   4.013  12.858  0.4196  0.0758 -0.1723
 2896TIP3    H130179   1.306   4.067  12.886  1.2009  0.8445  0.4457
 2896TIP3    H230180   1.373   4.011  12.763 -0.5923 -0.1630 -0.1105
 2897TIP3   OH230181   3.476   4.557  10.496 -0.2974  0.1205  0.9795
 2897TIP3    H130182   3.477   4.644  10.538 -0.5372  0.1597  0.9049
 2897TIP3    H230183   3.463   4.576  10.404  2.5912  0.1883  0.4873
 2898TIP3   OH230184   4.204   4.745   1.021 -0.2934  0.0027  0.4032
 2898TIP3    H130185   4.171   4.827   0.986  1.6043  0.5485 -0.1725
 2898TIP3    H230186   4.251   4.704   0.948  0.4462 -0.6647  1.2299
 2899TIP3   OH230187   3.164   2.688  16.490 -0.4014 -0.2796 -0.2466
 2899TIP3    H130188   3.110   2.665  16.566 -0.2432  2.4983  0.8375
 2899TIP3    H230189   3.188   2.779  16.505  3.4438 -0.9136 -1.3958
 2900TIP3   OH230190   4.384   5.721  13.491 -0.1875  0.4258  0.5817
 2900TIP3    H130191   4.335   5.705  13.572 -0.3309  0.2572  0.4637
 2900TIP3    H230192   4.325   5.692  13.422  1.0782 -2.3723  0.5405
 2901TIP3   OH230193   0.526   0.371   0.285  0.4905 -0.4434  0.0823
 2901TIP3    H130194   0.608   0.332   0.314  0.7543 -0.8808 -1.1617
 2901TIP3    H230195   0.551   0.456   0.248  0.5383 -0.9410 -1.0865
 2902TIP3   OH230196   0.246   2.219  17.074  0.2743 -0.6878 -0.2141
 2902TIP3    H130197   0.321   2.210  17.132 -0.6527 -2.2689  0.8579
 2902TIP3    H230198   0.173   2.181  17.124 -0.8273 -0.9775 -1.9344
 2903TIP3   OH230199   5.151   3.349   5.258 -0.1972 -0.0348 -0.0875
 2903TIP3    H130200   5.125   3.278   5.199 -0.9455 -0.7050  1.0022
 2903TIP3    H230201   5.168   3.305   5.342 -1.9921  1.1857  0.9768
 2904TIP3   OH230202   6.194   1.855   2.807  0.0178  0.5242  0.1393
 2904TIP3    H130203   6.105   1.876   2.779 -0.6791 -0.1392  1.7348
 2904TIP3    H230204   6.214   1.920   2.874  0.1732 -0.1866  0.7985
 2905TIP3   OH230205   2.542   2.172  12.545  0.2343  0.0736 -0.1581
 2905TIP3    H130206   2.510   2.218  12.623 -0.8627 -0.0248 -0.5267
 2905TIP3    H230207   2.502   2.218  12.472 -0.6054 -1.2030 -0.5533
 2906TIP3   OH230208   5.183   0.554   0.706  0.1933 -0.3114  0.3667
 2906TIP3    H130209   5.244   0.508   0.762  1.2217  1.2735  0.6029
 2906TIP3    H230210   5.238   0.596   0.640 -0.8029 -0.2764 -0.4689
 2907TIP3   OH230211   0.076   3.767   6.072 -0.1076  0.1846 -0.1114
 2907TIP3    H130212   0.041   3.836   6.128 -1.0931 -1.0096  0.7955
 2907TIP3    H230213   0.166   3.794   6.054  0.2336  0.6624  2.0201
 2908TIP3   OH230214   4.520   4.764  10.336  0.4747  0.1271 -0.4822
 2908TIP3    H130215   4.482   4.767  10.424  0.3278  0.4961 -0.5603
 2908TIP3    H230216   4.614   4.780  10.351  0.3196  1.0743 -0.4798
 2909TIP3   OH230217   2.732   3.007  11.296 -0.5144  0.1464 -0.0536
 2909TIP3    H130218   2.702   2.949  11.226  1.4034 -0.0549 -0.7564
 2909TIP3    H230219   2.808   2.963  11.333  0.3432  1.7017  0.1152
 2910TIP3   OH230220   1.390   0.775  15.966 -0.3203 -0.3343 -0.0737
 2910TIP3    H130221   1.318   0.797  16.026 -0.7309 -1.1194 -0.2529
 2910TIP3    H230222   1.346   0.734  15.891  0.2829 -0.4183 -0.3849
 2911TIP3   OH230223   4.426   5.836   2.926 -0.2730  0.3972  0.2121
 2911TIP3    H130224   4.461   5.912   2.880 -2.3665  0.5830 -1.2430
 2911TIP3    H230225   4.390   5.872   3.008  0.7073  0.5726  0.5817
 2912TIP3   OH230226   2.562   1.367   3.486  0.0562 -0.9097 -0.0828
 2912TIP3    H130227   2.475   1.406   3.495  0.1414 -0.6486 -0.3760
 2912TIP3    H230228   2.545   1.281   3.448 -0.1545 -1.2804  0.8272
 2913TIP3   OH230229   4.255   6.797  16.818 -0.1839  0.1761 -0.2957
 2913TIP3    H130230   4.190   6.846  16.868 -0.9117 -1.4073  0.4068
 2913TIP3    H230231   4.204   6.726  16.777  1.0940 -1.1909  0.3822
 2914TIP3   OH230232   4.815   5.596  12.610 -0.0463 -0.7882  0.1203
 2914TIP3    H130233   4.734   5.647  12.618  0.4686  0.2729 -0.9506
 2914TIP3    H230234   4.827   5.587  12.515  2.5009  1.5176  0.0976
 2915TIP3   OH230235   2.304   5.439   1.869 -0.0373  0.0330  0.6241
 2915TIP3    H130236   2.291   5.397   1.784  0.4794 -1.1958  1.1159
 2915TIP3    H230237   2.349   5.521   1.849 -1.0726  0.3893 -0.3764
 2916TIP3   OH230238   2.109   4.627   5.151  0.3110 -0.9710 -0.5088
 2916TIP3    H130239   2.155   4.706   5.122 -0.5490  0.3659  1.5269
 2916TIP3    H230240   2.025   4.630   5.105 -0.0690 -0.1917  0.2072
 2917TIP3   OH230241   5.812   4.092  16.005  0.3906  0.6258 -0.0497
 2917TIP3    H130242   5.800   4.106  15.911 -0.1801  2.0407  0.2110
 2917TIP3    H230243   5.736   4.039  16.031 -1.0748  2.6750  0.0991
 2918TIP3   OH230244   0.432   4.450  12.710  0.2817 -0.1959 -0.0799
 2918TIP3    H130245   0.387   4.379  12.756 -0.0864  0.5288  0.7089
 2918TIP3    H230246   0.519   4.453  12.751 -0.5756  1.5012  1.7813
 2919TIP3   OH230247   6.378   3.807  16.513  0.0253 -0.6946 -0.3175
 2919TIP3    H130248   6.427   3.771  16.439  1.2059 -1.6903  0.9031
 2919TIP3    H230249   6.411   3.896  16.524  0.4205 -0.8230 -0.4801
 2920TIP3   OH230250   3.757   5.289   6.683  0.1524 -0.6859  0.3160
 2920TIP3    H130251   3.780   5.231   6.611  0.2374 -0.4308  0.1338
 2920TIP3    H230252   3.693   5.350   6.645 -0.2700 -0.9304  0.6224
 2921TIP3   OH230253   5.193   3.892   0.825 -0.0525  0.0459  0.1952
 2921TIP3    H130254   5.245   3.920   0.750 -0.5339 -0.5318 -0.3634
 2921TIP3    H230255   5.255   3.891   0.898  0.8059 -0.9466 -0.5165
 2922TIP3   OH230256   4.721   3.325  14.354  0.1597  0.2380  0.2131
 2922TIP3    H130257   4.780   3.351  14.425  0.9607  0.4567 -0.5261
 2922TIP3    H230258   4.769   3.345  14.274 -1.8710  2.7391 -0.4963
 2923TIP3   OH230259   1.873   1.200   4.968  0.6573  1.0026  0.1128
 2923TIP3    H130260   1.951   1.237   5.010  0.8625  1.5348 -0.7128
 2923TIP3    H230261   1.905   1.125   4.918  0.7804  1.6664 -0.8324
 2924TIP3   OH230262   6.376   1.252   6.331 -0.0919 -0.1613  0.1990
 2924TIP3    H130263   6.376   1.345   6.311 -0.8147 -0.2239 -0.1052
 2924TIP3    H230264   6.381   1.248   6.427  0.6378  0.1687  0.1853
 2925TIP3   OH230265   6.582   2.259   2.226 -0.2432 -0.4118 -0.2364
 2925TIP3    H130266   6.666   2.213   2.228 -0.9627 -1.7679  0.3874
 2925TIP3    H230267   6.602   2.344   2.187  1.6129 -0.2750  0.8838
 2926TIP3   OH230268   5.668   4.065  12.607 -0.2839 -0.1829  0.2192
 2926TIP3    H130269   5.599   4.124  12.638 -2.2048 -0.7762 -2.5258
 2926TIP3    H230270   5.738   4.123  12.577 -1.6291  0.7168 -1.3096
 2927TIP3   OH230271   6.817   1.165   0.574 -0.3288 -0.1010 -0.7447
 2927TIP3    H130272   6.855   1.224   0.508 -1.4561  0.1408 -1.1995
 2927TIP3    H230273   6.780   1.223   0.640 -0.2469 -0.3251 -0.5004
 2928TIP3   OH230274   1.010   2.840  16.424 -0.3038  0.6062  0.4298
 2928TIP3    H130275   0.970   2.828  16.510  0.8339 -1.5717  0.7219
 2928TIP3    H230276   1.055   2.925  16.431 -1.1351  0.9928  1.5759
 2929TIP3   OH230277   6.641   6.066   2.664  0.7383  0.3259 -0.6770
 2929TIP3    H130278   6.550   6.083   2.688  1.0531  2.0429 -0.5671
 2929TIP3    H230279   6.673   6.008   2.733 -0.4877 -1.0116 -1.1820
 2930TIP3   OH230280   6.502   1.858  16.629  0.0184  0.0856  0.5672
 2930TIP3    H130281   6.558   1.849  16.552 -1.0118 -0.5017 -0.1403
 2930TIP3    H230282   6.554   1.822  16.701  0.8260  0.2373  0.0697
 2931TIP3   OH230283   1.555   0.526  11.315 -0.2828  1.0868 -0.1765
 2931TIP3    H130284   1.469   0.491  11.337  0.2572  1.3145  2.6025
 2931TIP3    H230285   1.538   0.588  11.244 -1.6957 -2.2143 -3.1005
 2932TIP3   OH230286   1.984   5.826  15.181  0.1779 -0.4049 -0.7791
 2932TIP3    H130287   2.037   5.761  15.226  0.7059 -0.3377 -1.2897
 2932TIP3    H230288   2.007   5.816  15.088  0.8638  1.0418 -0.7987
 2933TIP3   OH230289   1.010   0.404   6.025 -0.7378 -0.1474 -0.2385
 2933TIP3    H130290   1.012   0.318   5.982 -0.1207 -1.2260  1.8044
 2933TIP3    H230291   1.074   0.456   5.977  0.4355 -1.5200 -0.2395
 2934TIP3   OH230292   4.200   1.019  13.728  0.0770  0.1254 -0.1169
 2934TIP3    H130293   4.175   1.005  13.637 -3.1092  1.7228  0.3723
 2934TIP3    H230294   4.275   1.079  13.723 -0.5162  0.7802 -1.6952
 2935TIP3   OH230295   4.872   4.380   2.846 -0.1330 -0.1311  0.4860
 2935TIP3    H130296   4.876   4.285   2.839  1.4201  0.0356 -2.7790
 2935TIP3    H230297   4.780   4.401   2.835 -0.1912 -1.2009 -1.4510
 2936TIP3   OH230298   1.465   3.498  11.946 -0.1513  0.3151  0.5395
 2936TIP3    H130299   1.447   3.425  11.888 -1.4120 -0.0655  1.3768
 2936TIP3    H230300   1.557   3.487  11.972 -0.0896 -0.4816 -0.0071
 2937TIP3   OH230301   0.069   1.022   3.686 -0.1496 -0.6524 -0.2832
 2937TIP3    H130302   0.111   1.008   3.601  1.4906 -1.5359  0.6214
 2937TIP3    H230303   0.050   0.935   3.718  0.1142 -0.3795  0.6497
 2938TIP3   OH230304   4.083   6.803  11.450  0.1182 -0.1665 -0.2208
 2938TIP3    H130305   4.104   6.712  11.431 -0.7484 -0.5222  0.4760
 2938TIP3    H230306   4.148   6.854  11.402  1.0304 -1.1671 -0.0566
 2939TIP3   OH230307   4.701   0.576  12.851 -0.4274  0.3384  0.1090
 2939TIP3    H130308   4.690   0.486  12.883 -1.2380  0.5202  0.3570
 2939TIP3    H230309   4.616   0.617  12.864 -0.5739  0.6480 -1.6209
 2940TIP3   OH230310   0.903   0.311   5.465  0.4771  0.2779 -0.4216
 2940TIP3    H130311   0.924   0.243   5.528 -1.5860  1.7789  2.0905
 2940TIP3    H230312   0.983   0.363   5.458  0.8687 -0.1436  0.6954
 2941TIP3   OH230313   5.692   4.591   0.526  0.5984 -0.4782 -0.1053
 2941TIP3    H130314   5.701   4.578   0.432  2.0302  1.0089 -0.2071
 2941TIP3    H230315   5.613   4.542   0.549 -0.4387  0.0563 -2.2725
 2942TIP3   OH230316   6.180   0.198  15.769  0.4939 -1.2879 -0.1679
 2942TIP3    H130317   6.085   0.201  15.775  0.5855 -0.2485  1.1355
 2942TIP3    H230318   6.199   0.223  15.679 -0.4130  0.4711  0.0912
 2943TIP3   OH230319   0.135   4.308   1.859  0.4515 -0.4632  0.0775
 2943TIP3    H130320   0.042   4.311   1.881  0.0187 -0.7757 -1.5877
 2943TIP3    H230321   0.145   4.372   1.788  1.1906 -1.5106 -0.7921
 2944TIP3   OH230322   2.097   1.588   5.168 -0.0690 -0.7711 -0.3267
 2944TIP3    H130323   2.103   1.684   5.160  0.4821 -0.7640  0.1255
 2944TIP3    H230324   2.167   1.555   5.111  0.0127 -0.8910 -0.1570
 2945TIP3   OH230325   1.420   4.632   2.362 -0.0216  0.2064  0.5884
 2945TIP3    H130326   1.466   4.629   2.278  1.5708  1.3977  1.3480
 2945TIP3    H230327   1.368   4.552   2.365  0.8435 -0.4519 -1.0102
 2946TIP3   OH230328   3.061   6.153   1.414  0.2256  0.4877  0.7664
 2946TIP3    H130329   3.064   6.217   1.484  0.3642  1.1204  0.1917
 2946TIP3    H230330   2.985   6.178   1.361  0.0772 -0.0224  0.7315
 2947TIP3   OH230331   3.908   6.156  12.309 -0.2634  0.3023 -0.7177
 2947TIP3    H130332   3.969   6.219  12.347 -0.0538 -1.0065  1.2836
 2947TIP3    H230333   3.961   6.077  12.295 -0.7509  0.1998 -2.2308
 2948TIP3   OH230334   1.956   0.376   5.773  0.2892  0.4645  0.6763
 2948TIP3    H130335   1.993   0.447   5.721  1.2956  0.6405  1.5877
 2948TIP3    H230336   1.947   0.413   5.861  0.4601 -0.4182  1.0767
 2949TIP3   OH230337   4.031   2.946   5.005 -0.6248 -0.4943 -0.2575
 2949TIP3    H130338   4.088   2.941   5.081 -2.0797  0.4337  0.9464
 2949TIP3    H230339   3.943   2.930   5.039 -1.3219 -0.0004 -1.7201
 2950TIP3   OH230340   3.710   2.820   5.796  0.1134  0.3661  0.0540
 2950TIP3    H130341   3.795   2.834   5.754 -0.4545  0.0422 -1.2514
 2950TIP3    H230342   3.731   2.802   5.888  1.6173 -1.9103 -0.6523
 2951TIP3   OH230343   3.535   2.715   2.601 -0.5993 -0.3063 -0.4693
 2951TIP3    H130344   3.620   2.683   2.571 -0.2281  1.3423 -1.2880
 2951TIP3    H230345   3.510   2.782   2.537 -0.5483  2.2134  1.9519
 2952TIP3   OH230346   3.598   0.704  12.505  0.2552  0.3441 -0.2527
 2952TIP3    H130347   3.666   0.733  12.565 -0.1342  0.2628  0.2396
 2952TIP3    H230348   3.551   0.636  12.554 -1.0808  1.3832 -0.0254
 2953TIP3   OH230349   1.328   3.684   1.562  0.9588 -0.1377 -0.5727
 2953TIP3    H130350   1.263   3.679   1.493 -1.0724  0.0908  1.2063
 2953TIP3    H230351   1.346   3.778   1.572 -0.6490  0.0649  0.8029
 2954TIP3   OH230352   2.696   2.891  13.433 -0.0912 -0.4413  0.0503
 2954TIP3    H130353   2.635   2.857  13.499  0.2111  2.4483  2.0183
 2954TIP3    H230354   2.782   2.868  13.467  0.0875  1.4913  1.0849
 2955TIP3   OH230355   6.494   5.074  14.105  0.2701  0.0802 -0.5386
 2955TIP3    H130356   6.466   5.050  14.194  0.5981  0.8491 -0.2216
 2955TIP3    H230357   6.413   5.073  14.053  0.3658 -2.6697 -0.7915
 2956TIP3   OH230358   1.168   2.531   4.274 -0.1180 -0.4295  0.0841
 2956TIP3    H130359   1.177   2.549   4.367  1.6162 -1.6460  0.1891
 2956TIP3    H230360   1.161   2.618   4.234  0.6084  0.1668  1.2041
 2957TIP3   OH230361   1.309   4.239  13.785  0.1271  0.2372  0.3585
 2957TIP3    H130362   1.320   4.328  13.752  0.6526  1.0119  2.4927
 2957TIP3    H230363   1.398   4.210  13.807 -0.0780 -0.6902  0.0021
 2958TIP3   OH230364   6.582   2.035   1.150 -0.1882 -0.5495 -0.1961
 2958TIP3    H130365   6.491   2.021   1.124  0.0180 -0.7883 -0.8083
 2958TIP3    H230366   6.588   2.130   1.165 -0.2948 -0.3906 -1.1126
 2959TIP3   OH230367   6.470   4.368  14.765  0.5313 -0.0287  0.4430
 2959TIP3    H130368   6.500   4.338  14.679 -3.1583  1.0522 -1.4246
 2959TIP3    H230369   6.521   4.448  14.780  1.3245 -0.2889 -0.6730
 2960TIP3   OH230370   4.553   4.605  11.339 -0.2609 -0.7092  0.0301
 2960TIP3    H130371   4.480   4.547  11.317 -1.3220  1.2110 -1.8001
 2960TIP3    H230372   4.514   4.692  11.347  1.4505 -0.0005  1.6355
 2961TIP3   OH230373   4.578   3.815   2.064  0.1462  0.5896 -0.4137
 2961TIP3    H130374   4.524   3.745   2.028  1.9077 -2.0210  1.6096
 2961TIP3    H230375   4.516   3.881   2.093 -1.6437 -0.3028 -1.9781
 2962TIP3   OH230376   1.313   2.504  14.755 -0.5368  0.0399 -0.0553
 2962TIP3    H130377   1.315   2.464  14.842 -2.4271  0.1843  0.1004
 2962TIP3    H230378   1.304   2.598  14.772 -1.6068  0.0112 -0.3625
 2963TIP3   OH230379   1.108   3.116   2.859 -0.6044 -0.1380  0.0608
 2963TIP3    H130380   1.042   3.119   2.789 -0.1327  1.4949 -0.3517
 2963TIP3    H230381   1.062   3.075   2.932 -2.3592  1.5534  0.0119
 2964TIP3   OH230382   6.605   3.348   1.573 -0.2352 -0.3307  0.1569
 2964TIP3    H130383   6.539   3.414   1.553 -1.2012 -0.8848  1.3307
 2964TIP3    H230384   6.605   3.289   1.498  0.3526  0.7560 -0.7203
 2965TIP3   OH230385   0.838   5.362   4.569  0.7572 -0.0945  0.0287
 2965TIP3    H130386   0.753   5.397   4.596  0.2377 -1.7042  0.5988
 2965TIP3    H230387   0.854   5.402   4.483 -1.1504 -0.6661 -0.6506
 2966TIP3   OH230388   6.652   6.546   2.499 -0.0160  0.0051  0.1644
 2966TIP3    H130389   6.674   6.503   2.581  2.0216  0.3314 -0.1545
 2966TIP3    H230390   6.734   6.548   2.450 -0.8439  1.1288 -1.2705
 2967TIP3   OH230391   4.883   4.548  11.970  0.4119 -0.0698 -0.4264
 2967TIP3    H130392   4.929   4.627  12.000 -0.0786  0.3261 -0.7028
 2967TIP3    H230393   4.929   4.476  12.013 -1.3189  0.5297  2.7389
 2968TIP3   OH230394   0.248   0.659  14.223  0.6763 -0.8015 -0.3120
 2968TIP3    H130395   0.328   0.606  14.215  0.2031 -1.3395 -1.9174
 2968TIP3    H230396   0.212   0.661  14.134 -1.8326 -1.7171  0.5986
 2969TIP3   OH230397   1.233   1.061   5.345  0.4482  0.3378  0.2954
 2969TIP3    H130398   1.260   1.099   5.262 -1.3569  1.6469  0.2391
 2969TIP3    H230399   1.252   1.129   5.410 -1.1049  0.6665  0.4567
 2970TIP3   OH230400   4.378   2.137   1.777 -0.1174  0.0139  0.2769
 2970TIP3    H130401   4.307   2.075   1.762  0.5571 -0.4730 -0.9920
 2970TIP3    H230402   4.347   2.219   1.739 -0.7651  0.3366  1.4348
 2971TIP3   OH230403   6.753   0.062  16.527 -0.7850  0.2471  0.2347
 2971TIP3    H130404   6.721  -0.021  16.494  0.7350 -0.3993  0.2771
 2971TIP3    H230405   6.726   0.064  16.618 -0.4647 -0.4072  0.3487
 2972TIP3   OH230406   3.762   5.151   2.556  0.0527  0.3758 -0.4258
 2972TIP3    H130407   3.767   5.083   2.490 -1.8400 -1.4397  1.1731
 2972TIP3    H230408   3.677   5.193   2.542 -0.4901 -0.2064  0.9606
 2973TIP3   OH230409   4.373   3.628  15.193 -0.3580  0.0136  0.0976
 2973TIP3    H130410   4.324   3.551  15.164 -2.5540  0.4231  2.4138
 2973TIP3    H230411   4.328   3.701  15.151 -0.5509  0.2743  0.7552
 2974TIP3   OH230412   3.781   1.462  14.586 -0.1110 -0.1170 -0.0634
 2974TIP3    H130413   3.711   1.524  14.603 -0.6592 -0.4197 -1.1002
 2974TIP3    H230414   3.763   1.389  14.645 -0.5915 -0.1267 -0.2155
 2975TIP3   OH230415   2.062   2.287   2.872 -0.0491 -0.1331 -0.5192
 2975TIP3    H130416   2.073   2.192   2.864  0.3520 -0.1881  0.5550
 2975TIP3    H230417   2.152   2.320   2.883 -0.2683  0.2572  0.1535
 2976TIP3   OH230418   4.758   3.900  11.698 -0.0842 -0.0148 -0.1483
 2976TIP3    H130419   4.714   3.818  11.677 -0.4677  0.4186 -1.1238
 2976TIP3    H230420   4.761   3.947  11.615  3.6210 -0.6392 -0.5225
 2977TIP3   OH230421   4.918   4.064   5.244  0.1203  0.0299 -0.1296
 2977TIP3    H130422   4.826   4.086   5.259 -0.1432 -0.7438 -0.5298
 2977TIP3    H230423   4.950   4.132   5.185 -1.0675 -1.3312 -2.5076
 2978TIP3   OH230424   4.203   3.786   1.130  0.2732 -0.2322  0.0607
 2978TIP3    H130425   4.265   3.780   1.057  1.0265 -0.9699  0.7432
 2978TIP3    H230426   4.127   3.736   1.101 -0.8128  2.1513 -1.5167
 2979TIP3   OH230427   4.950   2.330  13.839 -0.0396 -0.0539  0.1716
 2979TIP3    H130428   4.974   2.283  13.759 -1.2325  1.4888 -1.1512
 2979TIP3    H230429   4.860   2.304  13.856  0.3234 -0.6673  1.2701
 2980TIP3   OH230430   2.866   6.607  16.026  0.6676 -0.6909 -0.2132
 2980TIP3    H130431   2.914   6.669  16.080  0.5004 -1.0437  0.3434
 2980TIP3    H230432   2.892   6.521  16.059  0.1276 -0.8968 -0.3107
 2981TIP3   OH230433   6.148   6.614  16.352  0.1965 -0.3335  0.6433
 2981TIP3    H130434   6.103   6.698  16.362  0.8041  0.1723 -0.6435
 2981TIP3    H230435   6.083   6.555  16.314  0.2258  0.0147  0.0430
 2982TIP3   OH230436   6.643   4.189   4.615 -0.3186 -0.4070 -0.4289
 2982TIP3    H130437   6.615   4.172   4.525 -1.9177  0.6805 -0.1878
 2982TIP3    H230438   6.658   4.283   4.618 -0.9853 -0.3113  0.5933
 2983TIP3   OH230439   5.032   6.307   0.808  0.0861  0.3779 -0.0319
 2983TIP3    H130440   4.988   6.388   0.781 -0.7574  0.3230  1.1091
 2983TIP3    H230441   5.031   6.252   0.730  1.0478  1.6182 -0.9449
 2984TIP3   OH230442   5.808   5.370  16.142  0.6781 -0.8043 -0.1972
 2984TIP3    H130443   5.819   5.416  16.059  1.2157 -0.5459  0.0171
 2984TIP3    H230444   5.726   5.321  16.132 -0.2088  0.6362 -0.2172
 2985TIP3   OH230445   1.361   6.398  16.789 -0.0137 -0.0286  0.0737
 2985TIP3    H130446   1.456   6.388  16.784  0.2029  1.5147  0.6896
 2985TIP3    H230447   1.327   6.313  16.762  1.5791 -1.2332  1.6057
 2986TIP3   OH230448   6.091   1.681  13.306 -0.0684  0.3344  0.7073
 2986TIP3    H130449   6.127   1.672  13.217  0.7523 -0.9303  1.1388
 2986TIP3    H230450   6.036   1.604  13.318 -0.0552  0.4171  1.3502
 2987TIP3   OH230451   3.718   1.172  11.402 -0.1005  0.4748  0.1761
 2987TIP3    H130452   3.674   1.116  11.338 -0.9429  1.0266  0.2535
 2987TIP3    H230453   3.767   1.235  11.349 -2.4864  2.2885 -0.0378
 2988TIP3   OH230454   4.571   1.143   6.151  0.2157 -0.2839 -0.5357
 2988TIP3    H130455   4.658   1.113   6.179  0.5759  0.8677 -0.3726
 2988TIP3    H230456   4.510   1.090   6.203  0.7426 -2.4347 -1.9776
 2989TIP3   OH230457   6.816   6.008  13.650 -0.4772 -0.3769  0.2255
 2989TIP3    H130458   6.731   6.039  13.683 -1.0079 -1.2505 -0.2795
 2989TIP3    H230459   6.802   5.995  13.556  0.4568  0.2177 -0.0067
 2990TIP3   OH230460   4.224   3.491  11.182 -0.0735 -0.5135 -0.0511
 2990TIP3    H130461   4.161   3.445  11.127 -0.8383  0.5734 -0.1037
 2990TIP3    H230462   4.307   3.484  11.135 -0.5652 -0.2373 -0.9727
 2991TIP3   OH230463   2.724   6.260   4.656  0.1383 -0.3834 -0.3383
 2991TIP3    H130464   2.698   6.185   4.710  0.8292 -0.5508 -0.2247
 2991TIP3    H230465   2.815   6.276   4.681  0.4626 -0.4514 -1.4397
 2992TIP3   OH230466   0.705   4.023   2.550 -0.2460 -0.1757 -0.7877
 2992TIP3    H130467   0.647   3.979   2.612  0.0495  1.0662  0.4307
 2992TIP3    H230468   0.776   3.961   2.534 -1.3872 -1.3268 -1.5416
 2993TIP3   OH230469   0.039   1.153  16.515  0.2965 -0.6628 -0.0176
 2993TIP3    H130470   0.087   1.148  16.598  4.2879 -1.1379 -2.1553
 2993TIP3    H230471   0.056   1.241  16.483 -1.2316 -0.4735 -0.3774
 2994TIP3   OH230472   5.655   5.888   0.226 -0.4009  0.2719  0.2679
 2994TIP3    H130473   5.615   5.888   0.139 -1.0478  4.3156  0.3454
 2994TIP3    H230474   5.624   5.808   0.268 -0.8170 -1.3357 -2.8476
 2995TIP3   OH230475   4.358   2.576   4.058  0.6169 -0.1881 -0.2797
 2995TIP3    H130476   4.286   2.515   4.044 -0.2692  0.3811  1.4514
 2995TIP3    H230477   4.334   2.654   4.007  0.7508 -0.5381 -0.8811
 2996TIP3   OH230478   2.202   1.707  12.134  0.4017 -0.1546  0.0048
 2996TIP3    H130479   2.175   1.619  12.158  0.2204  0.3679  1.8619
 2996TIP3    H230480   2.236   1.699  12.044  0.4702 -2.1066  0.1820
 2997TIP3   OH230481   5.879   5.281  14.753 -0.0387  0.0894  0.1242
 2997TIP3    H130482   5.859   5.290  14.660  0.4562  1.3117  0.1306
 2997TIP3    H230483   5.793   5.270  14.794 -0.1898 -1.9711 -0.5938
 2998TIP3   OH230484   4.671   3.840  16.532  0.0680  0.1438 -0.3602
 2998TIP3    H130485   4.732   3.827  16.604 -0.4851  0.5392  0.1858
 2998TIP3    H230486   4.695   3.774  16.467  2.3945  1.5369 -1.0479
 2999TIP3   OH230487   2.638   3.644  10.584 -0.0912  0.1478  0.1074
 2999TIP3    H130488   2.570   3.709  10.565  0.4172  0.1619 -1.8440
 2999TIP3    H230489   2.669   3.668  10.672 -1.1338  1.4299  0.1675
 3000TIP3   OH230490   3.057   1.026  14.245 -0.3378 -0.2840  0.2770
 3000TIP3    H130491   3.091   0.959  14.186 -1.6465 -0.3860 -0.3835
 3000TIP3    H230492   2.963   1.009  14.249 -0.1166 -1.6213  4.0590
 3001TIP3   OH230493   3.889   0.678  17.245 -0.2193  0.2364  0.0399
 3001TIP3    H130494   3.848   0.605  17.291  0.8628  0.1241  0.8654
 3001TIP3    H230495   3.977   0.646  17.224  0.8803  1.8518  1.9120
 3002TIP3   OH230496   4.272   4.100   1.678  0.0085  0.2151 -0.2019
 3002TIP3    H130497   4.328   4.175   1.659 -1.3680  1.2875 -0.1848
 3002TIP3    H230498   4.244   4.069   1.592  0.6043 -0.3123 -0.2101
 3003TIP3   OH230499   2.960   3.382  11.519 -0.2631 -0.1157  0.0784
 3003TIP3    H130500   2.968   3.475  11.539 -0.5567 -0.5806  2.7922
 3003TIP3    H230501   2.871   3.373  11.484 -0.5090  0.5537  0.5027
 3004TIP3   OH230502   0.271   1.100   6.665  0.4096 -0.2763 -0.7496
 3004TIP3    H130503   0.217   1.163   6.619 -0.0417 -1.1772 -1.4959
 3004TIP3    H230504   0.252   1.016   6.622 -0.9261 -1.3901  1.8013
 3005TIP3   OH230505   1.477   3.508   4.734 -0.3337  0.5335 -0.2276
 3005TIP3    H130506   1.427   3.501   4.814  1.4327 -0.3185  0.8576
 3005TIP3    H230507   1.506   3.419   4.715  1.3292  1.0645 -0.3914
 3006TIP3   OH230508   6.438   1.889  15.179  0.3972 -0.6595  0.2637
 3006TIP3    H130509   6.378   1.888  15.253 -1.0831  0.9221 -0.8180
 3006TIP3    H230510   6.404   1.822  15.120 -0.5718  0.4109 -0.4662
 3007TIP3   OH230511   4.203   5.852  12.799 -0.1018  0.1038 -0.4935
 3007TIP3    H130512   4.206   5.892  12.886  1.6293 -1.7859  0.4043
 3007TIP3    H230513   4.295   5.838  12.776 -0.5659 -0.5941 -2.0859
 3008TIP3   OH230514   1.711   4.021   3.148 -0.3022 -0.0538 -0.5179
 3008TIP3    H130515   1.745   4.089   3.206  2.2068 -1.7910  0.2460
 3008TIP3    H230516   1.636   4.061   3.105  0.3413  2.7690  0.7399
 3009TIP3   OH230517   4.295   5.685  13.237 -0.4237 -0.0846 -0.3309
 3009TIP3    H130518   4.378   5.671  13.191 -0.6396 -0.2142 -0.6873
 3009TIP3    H230519   4.228   5.661  13.173 -0.7427  0.2208 -0.1130
 3010TIP3   OH230520   5.142   6.162   4.792 -0.3081  0.1738  0.2450
 3010TIP3    H130521   5.107   6.249   4.777 -1.2659  0.0135  1.4042
 3010TIP3    H230522   5.190   6.169   4.874 -1.0124 -0.5339  0.7423
 3011TIP3   OH230523   0.505   2.013  11.887  0.3037  0.4243  0.2430
 3011TIP3    H130524   0.499   2.084  11.823 -1.1906  0.7234  0.6742
 3011TIP3    H230525   0.415   1.988  11.904  0.7851 -1.2506  0.4935
 3012TIP3   OH230526   6.119   3.246  11.419  0.0198 -0.1314  0.0837
 3012TIP3    H130527   6.107   3.306  11.492 -1.6792 -0.4569  0.1092
 3012TIP3    H230528   6.126   3.303  11.342  1.9695  0.2189  0.4639
 3013TIP3   OH230529   4.968   1.267   0.838  0.5373  0.1104 -0.2465
 3013TIP3    H130530   4.878   1.249   0.811 -0.3902  0.8539  2.1551
 3013TIP3    H230531   5.013   1.288   0.756 -1.2616 -0.9561 -1.6032
 3014TIP3   OH230532   6.118   6.207   1.194  0.5684  0.2095 -0.0402
 3014TIP3    H130533   6.205   6.222   1.156  0.1916 -0.7799 -1.3411
 3014TIP3    H230534   6.136   6.167   1.279  1.4073 -2.4361 -1.3634
 3015TIP3   OH230535   3.608   1.923  12.059 -0.5044 -0.6280  0.9709
 3015TIP3    H130536   3.694   1.916  12.100 -0.6918 -1.5396  1.2369
 3015TIP3    H230537   3.603   2.014  12.029  1.5397 -1.1528 -1.2555
 3016TIP3   OH230538   4.431   6.576  16.641  0.6604  0.1661 -0.0503
 3016TIP3    H130539   4.380   6.562  16.721 -0.2079 -0.3045 -0.6699
 3016TIP3    H230540   4.444   6.671  16.637 -1.8716  0.5689 -0.8477
 3017TIP3   OH230541   5.858   6.163  16.737  0.5672  0.7186  0.5007
 3017TIP3    H130542   5.781   6.107  16.729 -0.3605  1.7164  1.8952
 3017TIP3    H230543   5.894   6.168  16.648  1.1750 -2.6423  0.4117
 3018TIP3   OH230544   1.600   6.666   4.399  0.6258  0.5569  0.8525
 3018TIP3    H130545   1.557   6.736   4.350  1.6037 -0.4540 -1.6037
 3018TIP3    H230546   1.694   6.685   4.390  0.8580 -0.3430  1.2915
 3019TIP3   OH230547   6.137   1.732  15.004 -0.3635  0.5509  0.3743
 3019TIP3    H130548   6.084   1.760  14.929 -0.8362  0.7781  0.7817
 3019TIP3    H230549   6.228   1.745  14.976 -0.5008 -0.3663 -0.5352
 3020TIP3   OH230550   6.410   3.074  14.100 -0.3427  0.2295  0.2958
 3020TIP3    H130551   6.444   2.989  14.072  1.3288  0.8253  0.3458
 3020TIP3    H230552   6.425   3.074  14.195  1.2826  1.1918  0.0858
 3021TIP3   OH230553   3.947   2.037   0.507 -0.5008  0.3260  0.0693
 3021TIP3    H130554   4.025   2.092   0.513  0.0474 -0.4494  0.1844
 3021TIP3    H230555   3.953   1.979   0.583  0.1272 -1.4074 -1.2257
 3022TIP3   OH230556   4.572   3.553  12.336 -0.1589 -0.0336  0.2090
 3022TIP3    H130557   4.547   3.478  12.390  1.7875 -1.0668 -0.2529
 3022TIP3    H230558   4.495   3.568  12.280 -1.6179  0.0858  2.1482
 3023TIP3   OH230559   2.645   6.561  14.514 -0.0731  0.0696  0.4315
 3023TIP3    H130560   2.636   6.652  14.543  2.0423  0.4231  0.1614
 3023TIP3    H230561   2.706   6.566  14.440 -1.1335 -1.4191 -0.5756
 3024TIP3   OH230562   6.419   3.443  15.311  0.2320 -0.3152 -0.4235
 3024TIP3    H130563   6.341   3.443  15.366 -1.0816  0.3006 -2.2115
 3024TIP3    H230564   6.491   3.425  15.372 -1.4104 -2.3851  1.0725
 3025TIP3   OH230565   0.616   6.189  17.234  0.0572 -0.0420 -0.1774
 3025TIP3    H130566   0.585   6.117  17.288  1.7014 -0.0969  0.7582
 3025TIP3    H230567   0.683   6.232  17.287  1.1581  0.4067 -1.8414
 3026TIP3   OH230568   3.212   5.199  12.002  0.1248  0.2587  0.2262
 3026TIP3    H130569   3.139   5.162  11.952 -0.9704  1.6232  0.7285
 3026TIP3    H230570   3.280   5.215  11.937 -0.2125 -0.5524 -0.3459
 3027TIP3   OH230571   4.035   2.637   5.904  0.4154 -0.3850  0.0495
 3027TIP3    H130572   3.964   2.598   5.954  0.5108 -1.5903 -0.7153
 3027TIP3    H230573   4.012   2.730   5.898 -0.8106 -0.6637  0.2751
 3028TIP3   OH230574   0.839   0.901  15.774  0.2821  0.1733  0.7721
 3028TIP3    H130575   0.760   0.870  15.819 -0.5134  0.7032 -0.2090
 3028TIP3    H230576   0.849   0.842  15.699 -1.3424  2.2175 -1.2131
 3029TIP3   OH230577   2.073   5.886  15.533  0.0281 -0.1530  0.1797
 3029TIP3    H130578   2.087   5.816  15.470 -0.2530  1.5943 -1.9287
 3029TIP3    H230579   1.984   5.871  15.567 -1.3835  0.9232 -2.7183
 3030TIP3   OH230580   5.740   6.061   0.543 -0.2718  0.5083 -0.1828
 3030TIP3    H130581   5.813   6.092   0.597 -0.3054  0.4022 -0.0764
 3030TIP3    H230582   5.774   6.063   0.454  0.4719 -1.2723  0.0282
 3031TIP3   OH230583   1.675   0.256  13.335 -0.8740  0.1408 -0.2404
 3031TIP3    H130584   1.614   0.317  13.375 -2.0034 -0.2365 -1.3286
 3031TIP3    H230585   1.654   0.171  13.375 -0.2346  0.2086  0.2616
 3032TIP3   OH230586   4.335   1.965   0.049 -0.3314  0.3774  0.0894
 3032TIP3    H130587   4.281   2.041   0.070 -0.1502  0.9944 -1.5937
 3032TIP3    H230588   4.283   1.916  -0.015  0.1335 -0.2209  0.1640
 3033TIP3   OH230589   0.746   2.570   6.125  0.2850 -0.1610  0.2671
 3033TIP3    H130590   0.796   2.611   6.055 -0.8819  0.8083 -0.0236
 3033TIP3    H230591   0.730   2.640   6.188 -0.9776 -0.3566  0.1943
 3034TIP3   OH230592   1.165   0.334   3.114 -0.0326  0.4169 -0.1398
 3034TIP3    H130593   1.100   0.367   3.051  0.9538  0.3371 -1.2321
 3034TIP3    H230594   1.177   0.242   3.091  0.1726  0.3251  0.3185
 3035TIP3   OH230595   4.393   1.061  13.256 -0.0481 -0.2269  0.0275
 3035TIP3    H130596   4.443   1.143  13.253 -0.1468 -0.0640  1.8938
 3035TIP3    H230597   4.457   0.996  13.285 -0.5555 -0.3210  0.9465
 3036TIP3   OH230598   3.642   5.209   5.334  0.2930 -0.2625  0.5456
 3036TIP3    H130599   3.693   5.140   5.377 -0.8107 -0.9566  0.7859
 3036TIP3    H230600   3.566   5.221   5.391 -1.5436 -1.6576 -1.4667
 3037TIP3   OH230601   0.496   6.363   0.464 -0.0874  0.7151 -0.3167
 3037TIP3    H130602   0.530   6.292   0.410  0.9266  0.2579  0.8758
 3037TIP3    H230603   0.424   6.400   0.413  1.1224  0.6120 -2.1995
 3038TIP3   OH230604   4.442   6.773   1.658 -0.0184  0.2763 -0.2030
 3038TIP3    H130605   4.377   6.787   1.589  0.1886  1.8296 -0.1163
 3038TIP3    H230606   4.419   6.837   1.726  1.6177  0.9218 -0.2092
 3039TIP3   OH230607   0.104   2.830   3.162  0.1535  0.6639 -0.0117
 3039TIP3    H130608   0.043   2.777   3.111  0.7139 -0.1957  0.1694
 3039TIP3    H230609   0.097   2.794   3.251 -0.2788  1.6580  0.3720
 3040TIP3   OH230610   3.802   4.961  15.931  0.1604 -0.4801  0.1481
 3040TIP3    H130611   3.784   4.944  16.023  3.4626  1.9915  1.4654
 3040TIP3    H230612   3.849   4.883  15.901  1.4475 -0.2278  1.4138
 3041TIP3   OH230613   2.986   6.800   2.907 -0.1439 -0.3947  0.0785
 3041TIP3    H130614   3.022   6.856   2.976 -0.2804 -0.1722 -0.0306
 3041TIP3    H230615   3.038   6.821   2.830  0.9050 -1.6056  0.4154
 3042TIP3   OH230616   2.677   3.149   4.417  0.5969 -0.7254  0.0625
 3042TIP3    H130617   2.763   3.187   4.433  0.1099  1.0737 -1.2405
 3042TIP3    H230618   2.628   3.164   4.497  0.2925  1.9243 -0.5421
 3043TIP3   OH230619   5.220   0.698  15.250  0.1904 -0.0001 -0.0366
 3043TIP3    H130620   5.263   0.782  15.266  0.7856 -0.5236  1.2502
 3043TIP3    H230621   5.140   0.703  15.302 -1.7340  1.2123 -2.8937
 3044TIP3   OH230622   2.360   1.392   0.452  0.0806 -0.6071  0.0452
 3044TIP3    H130623   2.389   1.301   0.461  2.1152 -0.4029 -2.8344
 3044TIP3    H230624   2.429   1.434   0.401 -1.7289  2.0660 -0.4132
 3045TIP3   OH230625   0.103   1.660  15.770 -0.0060 -0.1385 -0.4180
 3045TIP3    H130626   0.156   1.583  15.788 -0.3637 -0.7796 -1.8963
 3045TIP3    H230627   0.143   1.730  15.821  0.3130 -1.2983  0.9625
 3046TIP3   OH230628   0.660   4.490   2.343  0.7783 -0.3438 -0.0714
 3046TIP3    H130629   0.750   4.466   2.321  1.1411  0.2423  0.7345
 3046TIP3    H230630   0.668   4.545   2.421 -0.2762 -0.2434 -0.0203
 3047TIP3   OH230631   3.328   0.724   3.212 -0.4407 -0.9851  0.8456
 3047TIP3    H130632   3.358   0.641   3.175  0.5085 -0.4439  0.3661
 3047TIP3    H230633   3.397   0.749   3.274  0.2221  0.3470 -0.3692
 3048TIP3   OH230634   6.097   1.673  12.487 -0.3378 -0.5046  0.0336
 3048TIP3    H130635   6.036   1.687  12.560  0.7458 -1.7003  1.1918
 3048TIP3    H230636   6.180   1.708  12.518 -0.3853  1.1978 -1.5735
 3049TIP3   OH230637   1.449   6.355   2.970  0.3528  0.5526  0.3407
 3049TIP3    H130638   1.391   6.399   3.031 -0.3377  1.2499 -0.7766
 3049TIP3    H230639   1.484   6.425   2.914  0.4942 -0.1178 -0.4397
 3050TIP3   OH230640   5.315   0.170   2.893 -0.0724  0.7994 -1.1586
 3050TIP3    H130641   5.373   0.228   2.941 -1.0960  0.8806  0.0271
 3050TIP3    H230642   5.373   0.105   2.853  0.8488  1.0024 -0.2007
 3051TIP3   OH230643   0.030   0.081   2.773 -0.5253 -0.2649  0.4473
 3051TIP3    H130644  -0.006   0.093   2.861  1.0818 -0.8765  1.2108
 3051TIP3    H230645   0.101   0.018   2.784 -1.1703 -1.4282 -1.5335
 3052TIP3   OH230646   3.816   5.614  11.949 -0.0926 -0.1739 -0.1653
 3052TIP3    H130647   3.856   5.672  11.884 -0.2154 -1.3193 -1.2991
 3052TIP3    H230648   3.757   5.670  11.999 -0.9189  0.5113 -1.8428
 3053TIP3   OH230649   2.468   3.794   0.948  0.4641  0.6022  0.1807
 3053TIP3    H130650   2.465   3.716   1.005  1.1585  0.2235 -0.2898
 3053TIP3    H230651   2.495   3.760   0.863 -0.8868  1.1134 -0.4780
 3054TIP3   OH230652   3.504   5.175   4.425 -0.2350 -0.7670 -0.1875
 3054TIP3    H130653   3.513   5.096   4.478 -0.2318 -0.0672  0.8987
 3054TIP3    H230654   3.433   5.224   4.467 -0.6817 -0.4871 -1.2335
 3055TIP3   OH230655   2.078   4.648  16.565  0.4309  0.1594 -0.0256
 3055TIP3    H130656   1.992   4.648  16.523 -0.0508 -1.1065  0.9235
 3055TIP3    H230657   2.085   4.735  16.605  0.4462  0.9890 -1.7428
 3056TIP3   OH230658   1.788   0.464  13.511  0.6530 -0.2921 -0.0713
 3056TIP3    H130659   1.860   0.422  13.463  0.5282 -0.5083 -0.0711
 3056TIP3    H230660   1.710   0.417  13.481  0.3889  0.6023 -0.8372
 3057TIP3   OH230661   1.060   6.170  15.977 -0.1634  0.2049 -0.5297
 3057TIP3    H130662   1.130   6.204  16.033 -0.5101 -0.1314  0.1183
 3057TIP3    H230663   1.096   6.175  15.888  0.0922  1.5003 -0.3758
 3058TIP3   OH230664   6.068   1.868   1.726 -0.1016 -1.1873  0.4012
 3058TIP3    H130665   6.013   1.883   1.649  0.2669 -0.1402  0.3249
 3058TIP3    H230666   6.120   1.791   1.704 -1.1064 -1.8349  0.2373
 3059TIP3   OH230667   4.038   6.714   0.195  0.0047  0.2004 -0.3330
 3059TIP3    H130668   3.955   6.757   0.174 -0.0170  0.9011  1.1089
 3059TIP3    H230669   4.014   6.644   0.255  0.6204  1.5608  1.5844
 3060TIP3   OH230670   1.052   2.180  16.350  0.1048 -0.4182 -0.3924
 3060TIP3    H130671   1.034   2.086  16.346 -1.0264 -0.1713 -1.8718
 3060TIP3    H230672   0.990   2.219  16.290  1.5538  1.1476 -0.9531
 3061TIP3   OH230673   1.398   5.142   5.573 -0.1562  0.2449  0.0784
 3061TIP3    H130674   1.453   5.111   5.501 -0.6854 -1.2258  0.2654
 3061TIP3    H230675   1.358   5.063   5.608 -0.8038  1.0634  1.2615
 3062TIP3   OH230676   0.651   1.742  15.566 -0.2145 -0.0056 -0.2587
 3062TIP3    H130677   0.559   1.767  15.574 -0.3585 -0.3170 -0.9301
 3062TIP3    H230678   0.675   1.763  15.476  0.7020  1.1153  0.2152
 3063TIP3   OH230679   3.662   6.420  15.101  0.1550 -0.1833 -0.5983
 3063TIP3    H130680   3.704   6.490  15.151  0.1595 -0.7077  0.1581
 3063TIP3    H230681   3.652   6.349  15.165 -1.1318 -0.3642 -0.9779
 3064TIP3   OH230682   1.659   2.921   3.277 -0.2515 -0.4466 -0.4308
 3064TIP3    H130683   1.619   2.847   3.322  0.2532 -1.2118 -1.2158
 3064TIP3    H230684   1.743   2.889   3.247  0.2703  0.6561 -0.2012
 3065TIP3   OH230685   0.739   0.566   2.979 -0.4166 -0.0057  0.6538
 3065TIP3    H130686   0.752   0.614   2.897  1.2336 -0.5308  0.5559
 3065TIP3    H230687   0.645   0.550   2.983 -0.4733 -0.6283 -1.5339
 3066TIP3   OH230688   0.390   2.923   0.961  0.0519  0.4122 -0.0378
 3066TIP3    H130689   0.463   2.862   0.950  0.1082  0.7626 -1.8585
 3066TIP3    H230690   0.431   3.009   0.968 -0.1550  0.7677 -2.3405
 3067TIP3   OH230691   3.839   0.159  11.981  0.0995 -0.2856 -0.2155
 3067TIP3    H130692   3.877   0.198  11.903 -0.6582  1.7955  0.3836
 3067TIP3    H230693   3.817   0.234  12.037 -3.3350 -1.3806  0.1529
 3068TIP3   OH230694   4.846   6.166  15.800 -0.7426  0.2836 -0.1385
 3068TIP3    H130695   4.820   6.202  15.884 -0.1806 -0.0692  0.1928
 3068TIP3    H230696   4.841   6.071  15.812  2.2906  0.1080  0.5069
 3069TIP3   OH230697   5.313   5.105  14.339 -0.0677  0.1775  0.2420
 3069TIP3    H130698   5.240   5.092  14.400 -0.9297  1.6646 -0.4037
 3069TIP3    H230699   5.273   5.147  14.263  1.0351 -1.3497 -1.2498
 3070TIP3   OH230700   0.711   4.487  14.992  0.0246 -0.4088 -0.1495
 3070TIP3    H130701   0.786   4.543  15.016  0.1739 -0.1494 -1.1791
 3070TIP3    H230702   0.716   4.481  14.897 -0.0625 -2.0889 -0.0756
 3071TIP3   OH230703   2.346   4.906   1.745  0.5494  0.6577  0.0581
 3071TIP3    H130704   2.366   4.999   1.746  0.3747  0.7285 -1.1990
 3071TIP3    H230705   2.370   4.877   1.656  2.1685 -0.8467  0.9097
 3072TIP3   OH230706   3.028   4.159   3.666 -0.1408 -0.2540  0.1748
 3072TIP3    H130707   3.090   4.123   3.730  0.3115  0.2944  0.0570
 3072TIP3    H230708   3.084   4.196   3.597 -0.5518  1.3551  0.6509
 3073TIP3   OH230709   0.759   1.077   6.304 -0.3620 -0.1789  0.4060
 3073TIP3    H130710   0.669   1.077   6.271 -0.0669  0.9464 -0.4859
 3073TIP3    H230711   0.751   1.095   6.397 -1.0294  0.7295  0.1865
 3074TIP3   OH230712   1.714   2.306  13.582 -0.5271  0.0421  0.1854
 3074TIP3    H130713   1.714   2.397  13.612 -1.0406  0.3491 -0.7240
 3074TIP3    H230714   1.643   2.302  13.518 -1.5025 -1.3709  1.3076
 3075TIP3   OH230715   0.155   0.305   0.951  0.3136  0.3665 -0.3157
 3075TIP3    H130716   0.112   0.230   0.910 -0.0497  0.8076 -0.7738
 3075TIP3    H230717   0.095   0.378   0.934 -0.3310  0.4034  1.8767
 3076TIP3   OH230718   3.291   3.745  11.738  0.2548 -0.5993  0.0460
 3076TIP3    H130719   3.342   3.748  11.657 -0.2758  0.3444 -0.2760
 3076TIP3    H230720   3.207   3.709  11.712 -0.1245  0.2586  0.0379
 3077TIP3   OH230721   5.210   4.928   5.202  0.5482 -0.3927  0.2843
 3077TIP3    H130722   5.167   4.891   5.125 -1.1230  0.2475  0.8502
 3077TIP3    H230723   5.302   4.937   5.177 -0.0497  0.3851 -1.8823
 3078TIP3   OH230724   2.815   5.947   1.176 -0.7665 -0.1688  0.1825
 3078TIP3    H130725   2.746   5.921   1.237  0.2663 -0.0389  1.4497
 3078TIP3    H230726   2.768   5.977   1.098 -2.1572  0.5143  1.2433
 3079TIP3   OH230727   6.125   0.143   1.456  0.2701 -0.7768 -0.2056
 3079TIP3    H130728   6.203   0.103   1.494  1.0897  0.9857  0.0955
 3079TIP3    H230729   6.160   0.213   1.400 -1.0175 -1.5934 -2.1193
 3080TIP3   OH230730   3.717   1.185   5.611  0.0394 -0.0745 -0.4068
 3080TIP3    H130731   3.678   1.122   5.550  0.1778  1.8099 -2.5599
 3080TIP3    H230732   3.810   1.186   5.589  0.2388  0.0878  0.3908
 3081TIP3   OH230733   5.825   6.387   3.330 -0.3632 -0.5130 -0.3154
 3081TIP3    H130734   5.819   6.360   3.238 -1.3706 -0.6593 -0.2203
 3081TIP3    H230735   5.799   6.479   3.329  2.9153  0.5366 -0.6202
 3082TIP3   OH230736   2.269   0.537   2.710  0.1877  0.5625 -0.0131
 3082TIP3    H130737   2.203   0.479   2.672  0.2590  0.3938  0.1219
 3082TIP3    H230738   2.277   0.509   2.801  2.4716 -1.3092 -0.6730
 3083TIP3   OH230739   5.405   1.749  17.112 -0.5818 -0.2264  0.1727
 3083TIP3    H130740   5.408   1.760  17.207  0.7031  0.6299  0.0560
 3083TIP3    H230741   5.339   1.811  17.082  1.0846  1.6907  0.2677
 3084TIP3   OH230742   0.910   3.101  11.866 -0.0773  0.1072  0.7301
 3084TIP3    H130743   0.916   3.009  11.840 -0.4599  0.4894 -0.7779
 3084TIP3    H230744   0.843   3.103  11.934  0.4689 -0.8169  1.3315
 3085TIP3   OH230745   6.531   1.610  11.728  0.4349  0.0773  0.2714
 3085TIP3    H130746   6.486   1.649  11.802 -1.6275 -0.1968 -0.7702
 3085TIP3    H230747   6.602   1.559  11.767 -2.1957 -2.2828  2.3056
 3086TIP3   OH230748   1.250   1.568   3.675  0.5377 -0.1578  0.3163
 3086TIP3    H130749   1.158   1.594   3.665 -0.2201 -1.8098  2.2190
 3086TIP3    H230750   1.253   1.479   3.640  1.3776 -0.1601  0.3878
 3087TIP3   OH230751   2.223   2.759   1.007 -0.1683 -0.4176  0.1146
 3087TIP3    H130752   2.156   2.761   0.939  1.3879 -0.5329 -1.4688
 3087TIP3    H230753   2.216   2.671   1.045 -0.8993 -0.4310 -0.0392
 3088TIP3   OH230754   1.195   5.100  13.794  0.1431  0.3480 -0.2441
 3088TIP3    H130755   1.103   5.087  13.820  0.2067 -1.8075 -0.9211
 3088TIP3    H230756   1.197   5.190  13.761 -1.3139  1.0504  1.3849
 3089TIP3   OH230757   1.363   0.118   6.386  0.7439 -0.1773  0.4252
 3089TIP3    H130758   1.319   0.053   6.441  2.6517 -1.2295  0.7974
 3089TIP3    H230759   1.379   0.192   6.444  0.5153 -0.2558  0.5910
 3090TIP3   OH230760   4.170   2.396   2.123  0.7493  0.6184 -0.5952
 3090TIP3    H130761   4.185   2.485   2.156 -0.8723  1.4950 -2.0878
 3090TIP3    H230762   4.139   2.347   2.200 -2.1565  2.3880 -0.4913
 3091TIP3   OH230763   4.343   5.241   3.810 -0.5253  0.3650 -0.2055
 3091TIP3    H130764   4.409   5.176   3.833 -1.8500 -0.7143  0.7436
 3091TIP3    H230765   4.366   5.318   3.861 -0.8453 -0.5191  1.3459
 3092TIP3   OH230766   2.882   1.048  12.290  0.3584 -0.0803  0.7201
 3092TIP3    H130767   2.938   0.986  12.337 -0.6204 -1.7506 -0.2266
 3092TIP3    H230768   2.910   1.041  12.198 -1.5744 -1.2405  0.1556
 3093TIP3   OH230769   1.009   6.749  16.346 -0.1394 -0.3810 -0.3357
 3093TIP3    H130770   0.973   6.827  16.386  0.5032 -0.3486  0.1850
 3093TIP3    H230771   0.939   6.684  16.354 -0.0531 -0.3582  0.7797
 3094TIP3   OH230772   3.078   1.202   1.686  0.1771 -0.8044 -0.8552
 3094TIP3    H130773   3.064   1.275   1.625  0.9063 -0.0811 -0.1850
 3094TIP3    H230774   2.990   1.175   1.711 -0.1220  0.8064 -0.0286
 3095TIP3   OH230775   0.964   0.109  12.179  0.3236 -0.2909  0.2525
 3095TIP3    H130776   1.007   0.173  12.123 -1.3124  0.4732 -0.2161
 3095TIP3    H230777   1.016   0.030  12.171  1.8879  0.7156  0.1307
 3096TIP3   OH230778   0.902   5.609   5.712 -0.3894 -0.0441  0.3266
 3096TIP3    H130779   0.848   5.530   5.706 -0.1545 -0.1521 -0.4760
 3096TIP3    H230780   0.982   5.587   5.664  1.5685 -0.8190  3.6278
 3097TIP3   OH230781   4.494   3.843   1.588  0.0260  0.3553  0.1466
 3097TIP3    H130782   4.547   3.764   1.576 -0.2994  0.1844 -0.1962
 3097TIP3    H230783   4.462   3.864   1.500  0.7145  1.2999  0.0960
 3098TIP3   OH230784   6.554   3.678  12.703 -0.2683 -0.2146 -0.0466
 3098TIP3    H130785   6.616   3.606  12.715  0.3685  0.3938  0.4218
 3098TIP3    H230786   6.594   3.751  12.750 -0.6144  0.6139 -1.0169
 3099TIP3   OH230787   0.214   3.009  11.716  0.1313  0.2443  0.0591
 3099TIP3    H130788   0.291   3.058  11.746  0.0031 -0.7646  2.2131
 3099TIP3    H230789   0.148   3.024  11.784 -0.9933 -0.3318 -0.8644
 3100TIP3   OH230790   4.252   3.578   5.981 -0.0683 -0.2956  0.2467
 3100TIP3    H130791   4.236   3.506   6.043  1.0435  1.7174  3.0800
 3100TIP3    H230792   4.243   3.657   6.034 -0.4003  1.6687 -2.5475
 3101TIP3   OH230793   0.288   5.924   3.011 -0.1570 -0.0662  0.2835
 3101TIP3    H130794   0.237   5.843   3.009 -0.5909  0.1717  1.2746
 3101TIP3    H230795   0.231   5.989   2.970  0.3253 -0.3238 -0.8220
 3102TIP3   OH230796   3.902   4.850   0.283 -0.8384 -0.1229  0.0610
 3102TIP3    H130797   3.841   4.804   0.225 -0.4252 -0.1291 -0.3735
 3102TIP3    H230798   3.863   4.936   0.297  0.2514  0.8266 -2.2675
 3103TIP3   OH230799   2.226   2.887   4.804  0.1684  0.1385  0.1079
 3103TIP3    H130800   2.269   2.802   4.793  2.0337  0.9265  0.9119
 3103TIP3    H230801   2.275   2.946   4.746 -0.3871  0.9004  0.3947
 3104TIP3   OH230802   6.430   5.376  13.658  0.3794 -0.3449 -0.0552
 3104TIP3    H130803   6.465   5.402  13.743 -1.1911 -1.3581  0.9400
 3104TIP3    H230804   6.335   5.376  13.670  0.0431  0.6332 -2.1673
 3105TIP3   OH230805   3.626   0.202   0.502  0.1386 -0.2862 -0.2419
 3105TIP3    H130806   3.709   0.208   0.550  1.5044 -3.6128 -1.8319
 3105TIP3    H230807   3.567   0.156   0.562  0.2912 -0.2268 -0.0461
 3106TIP3   OH230808   6.193   2.692   2.657  0.6809  0.0250 -0.1631
 3106TIP3    H130809   6.115   2.715   2.607  1.1889 -1.8134 -1.9801
 3106TIP3    H230810   6.266   2.709   2.597  1.5414  0.1577  0.8931
 3107TIP3   OH230811   2.763   0.548  13.643 -0.1738  0.1241 -0.0694
 3107TIP3    H130812   2.715   0.629  13.625  0.2589  0.8395  1.8275
 3107TIP3    H230813   2.818   0.535  13.565 -2.2713  0.0902 -1.6328
 3108TIP3   OH230814   1.949   3.665   5.181 -0.0930  0.0749 -0.2775
 3108TIP3    H130815   1.906   3.651   5.265 -0.2664  1.3820 -0.1352
 3108TIP3    H230816   2.025   3.607   5.184 -1.0651 -1.2328  0.0255
 3109TIP3   OH230817   6.557   6.258   3.806  0.2360 -0.6013 -0.2197
 3109TIP3    H130818   6.563   6.351   3.788  1.4578  0.0091  2.6593
 3109TIP3    H230819   6.608   6.216   3.737  1.5144  1.0812 -0.3547
 3110TIP3   OH230820   3.271   1.706   1.244  0.4163  0.0244 -0.4270
 3110TIP3    H130821   3.310   1.621   1.266  1.8272  0.8072  0.2630
 3110TIP3    H230822   3.205   1.721   1.311 -0.7141 -1.0459 -1.2500
 3111TIP3   OH230823   3.693   4.547   1.420  0.7207 -0.7723 -0.3510
 3111TIP3    H130824   3.722   4.464   1.459 -2.0026 -2.4852 -1.6354
 3111TIP3    H230825   3.685   4.527   1.326 -1.5492  0.3734 -0.4671
 3112TIP3   OH230826   1.990   6.178   2.492  0.2482  0.7873  0.1558
 3112TIP3    H130827   2.055   6.208   2.429  0.8605 -0.7664 -0.0031
 3112TIP3    H230828   1.920   6.141   2.438 -0.8430  2.5075  0.3210
 3113TIP3   OH230829   3.609   2.748   1.865  0.5183 -0.4192  0.4027
 3113TIP3    H130830   3.541   2.801   1.905  0.7127 -0.8489  1.3225
 3113TIP3    H230831   3.657   2.809   1.808  0.7423  0.3957  1.4435
 3114TIP3   OH230832   0.902   4.871  13.190  0.0255 -0.2089 -0.1483
 3114TIP3    H130833   0.848   4.806  13.236  0.2991  0.4060  1.0823
 3114TIP3    H230834   0.923   4.829  13.106 -2.0756 -0.5805 -0.5348
 3115TIP3   OH230835   5.983   5.983   5.357 -0.2642 -1.1904 -0.1101
 3115TIP3    H130836   6.078   5.992   5.349 -0.1489  1.6787  2.7001
 3115TIP3    H230837   5.949   6.015   5.273  1.2272  1.6506  0.2566
 3116TIP3   OH230838   4.484   1.263   6.523  0.4339  0.4148  0.1466
 3116TIP3    H130839   4.414   1.242   6.585 -2.1043 -0.4227 -2.7272
 3116TIP3    H230840   4.483   1.190   6.461  0.0018  2.9427 -3.1088
 3117TIP3   OH230841   1.468   3.449  14.053  0.6182 -0.0580 -0.1637
 3117TIP3    H130842   1.419   3.497  13.987 -0.3775 -0.2697  0.3953
 3117TIP3    H230843   1.431   3.361  14.051  1.7685 -0.5481 -0.5165
 3118TIP3   OH230844   5.786   2.910  11.761 -0.4022 -0.2758 -0.2109
 3118TIP3    H130845   5.800   2.815  11.761 -1.3314 -0.4212  0.1774
 3118TIP3    H230846   5.760   2.929  11.671 -1.3128 -0.5733 -0.0237
 3119TIP3   OH230847   1.116   4.581   4.384 -0.0757  0.0550 -0.0335
 3119TIP3    H130848   1.063   4.630   4.322 -2.0567 -1.2305  0.5560
 3119TIP3    H230849   1.053   4.533   4.437  1.6788 -1.1910  1.0379
 3120TIP3   OH230850   0.035   4.355  16.330  0.3444  0.1800 -0.2103
 3120TIP3    H130851   0.089   4.396  16.262  2.2030 -0.3653  0.8578
 3120TIP3    H230852   0.093   4.291  16.371 -1.5313 -1.3357  0.2142
 3121TIP3   OH230853   3.489   0.415   1.447 -0.2056  0.2218  0.1351
 3121TIP3    H130854   3.415   0.358   1.425  0.2709 -0.2530 -0.2710
 3121TIP3    H230855   3.530   0.435   1.363  0.9513 -0.6632  0.4558
 3122TIP3   OH230856   6.112   0.518  12.279 -0.2174 -0.4188  0.0361
 3122TIP3    H130857   6.041   0.464  12.245  1.2097 -1.4549 -1.4551
 3122TIP3    H230858   6.146   0.468  12.354 -0.4050 -0.4389  0.1078
 3123TIP3   OH230859   0.958   3.582  16.472  0.0374 -0.5996 -0.6185
 3123TIP3    H130860   0.899   3.511  16.447 -0.6628 -0.0270 -0.6216
 3123TIP3    H230861   0.978   3.564  16.564 -1.4264  0.0551 -0.1334
 3124TIP3   OH230862   5.006   6.690  11.715 -0.3829 -0.1802 -0.0751
 3124TIP3    H130863   5.065   6.695  11.640 -0.3539 -0.9462 -0.1124
 3124TIP3    H230864   4.921   6.668  11.678 -0.4808 -0.0434  0.0675
 3125TIP3   OH230865   3.966   6.204  11.736  0.3699  0.0446 -0.3252
 3125TIP3    H130866   4.029   6.200  11.808  0.4457  1.2805 -0.3139
 3125TIP3    H230867   3.882   6.221  11.779  0.3660  0.4741 -0.4983
 3126TIP3   OH230868   0.756   6.767  15.738 -0.3481  0.1080  0.1162
 3126TIP3    H130869   0.663   6.788  15.734 -0.4436 -0.4395 -1.0711
 3126TIP3    H230870   0.759   6.677  15.772 -0.2003  0.3874  0.8615
 3127TIP3   OH230871   2.161   1.761  17.059 -0.5400 -0.1558  0.3838
 3127TIP3    H130872   2.148   1.677  17.015  0.9346 -0.0301 -0.3561
 3127TIP3    H230873   2.127   1.747  17.148  1.2978 -2.1216  0.8504
 3128TIP3   OH230874   3.851   5.994   5.552 -0.4722 -0.2931 -0.0648
 3128TIP3    H130875   3.827   6.061   5.616 -1.8058  0.0548 -0.8909
 3128TIP3    H230876   3.881   6.043   5.475 -1.1641 -0.6343 -0.5660
 3129TIP3   OH230877   2.912   2.553   1.519 -0.3983  0.3828 -0.0286
 3129TIP3    H130878   2.919   2.598   1.436 -0.2729  0.6964  0.1516
 3129TIP3    H230879   2.837   2.594   1.563  0.5303  1.3476  0.7013
 3130TIP3   OH230880   5.252   0.968  11.851 -0.2324  0.4199 -0.0461
 3130TIP3    H130881   5.245   1.055  11.812  0.1894 -0.3842 -2.0177
 3130TIP3    H230882   5.326   0.927  11.807 -1.1580 -1.3716 -0.0256
 3131TIP3   OH230883   5.048   4.844  11.513 -0.7862  0.5795  0.5254
 3131TIP3    H130884   5.041   4.774  11.448 -0.5493  1.2614 -0.2538
 3131TIP3    H230885   5.086   4.918  11.465 -2.7308  1.8651  0.8313
 3132TIP3   OH230886   0.512   6.294   2.605  0.4608 -0.2861 -0.4001
 3132TIP3    H130887   0.452   6.249   2.545  0.4647 -0.4561 -0.2748
 3132TIP3    H230888   0.591   6.240   2.606  0.5789 -0.1165 -0.4838
 3133TIP3   OH230889   0.043   0.293  12.851  0.3657  0.4628  0.0285
 3133TIP3    H130890   0.031   0.329  12.939 -1.7020  1.6338 -0.6518
 3133TIP3    H230891  -0.041   0.309  12.807  1.1736 -0.5205 -2.0098
 3134TIP3   OH230892   5.381   5.862   3.116  0.5746 -0.6285 -0.0398
 3134TIP3    H130893   5.476   5.868   3.128  0.4863 -0.9148  0.8279
 3134TIP3    H230894   5.360   5.934   3.057  1.0666  0.6580  1.3086
 3135TIP3   OH230895   2.768   0.692   1.417  0.4900 -0.2709  0.4667
 3135TIP3    H130896   2.704   0.760   1.437 -0.6696 -0.5895 -1.7927
 3135TIP3    H230897   2.853   0.736   1.424  0.1780  0.0526  3.9362
 3136TIP3   OH230898   2.325   2.522   0.047  0.2810  0.2871 -0.0071
 3136TIP3    H130899   2.392   2.467   0.005 -0.0287 -1.4116  1.5783
 3136TIP3    H230900   2.243   2.476   0.031  0.0159  0.2228  1.3754
 3137TIP3   OH230901   2.618   4.489  14.008  0.1229  0.1831  0.5822
 3137TIP3    H130902   2.710   4.499  13.982  0.4930  0.5611  1.9376
 3137TIP3    H230903   2.577   4.446  13.933  1.4686 -0.2690  0.0614
 3138TIP3   OH230904   0.802   0.421  15.845  0.1771  0.4118 -0.2283
 3138TIP3    H130905   0.801   0.356  15.774  1.7822 -2.4116  2.1254
 3138TIP3    H230906   0.712   0.423  15.877  0.2338 -1.1988  0.0823
 3139TIP3   OH230907   5.518   1.000  11.346 -0.0823  0.2749 -0.2003
 3139TIP3    H130908   5.552   1.087  11.325 -0.5851 -0.0906 -2.7837
 3139TIP3    H230909   5.425   1.013  11.361 -0.0860  0.2272 -0.1816
 3140TIP3   OH230910   0.986   0.089   2.286  0.1328  0.6545 -0.3878
 3140TIP3    H130911   0.900   0.074   2.326  0.2106 -0.8854 -0.7420
 3140TIP3    H230912   0.982   0.179   2.253 -2.0683  0.0163 -2.1006
 3141TIP3   OH230913   4.989   3.812  16.465 -0.1291  0.3227  0.9179
 3141TIP3    H130914   4.972   3.719  16.480 -2.9667  0.9160  2.0047
 3141TIP3    H230915   4.966   3.825  16.373  1.4031 -0.2200  0.4286
 3142TIP3   OH230916   4.761   4.898  11.558 -0.2534  0.2405  0.2288
 3142TIP3    H130917   4.843   4.929  11.596 -0.3891 -0.5970  1.2478
 3142TIP3    H230918   4.788   4.843  11.484  0.2062 -1.3206  1.5018
 3143TIP3   OH230919   2.034   1.322   5.441 -0.9149  0.2971  0.6209
 3143TIP3    H130920   2.022   1.365   5.525 -1.4024  1.6830 -0.1296
 3143TIP3    H230921   1.966   1.359   5.385 -0.5183 -0.5016 -0.4227
 3144TIP3   OH230922   6.572   4.993  11.757  0.1764  0.2597 -0.3799
 3144TIP3    H130923   6.577   5.001  11.662  0.7183  1.8132 -0.2493
 3144TIP3    H230924   6.638   4.928  11.780 -1.9226 -2.3498 -1.2659
 3145TIP3   OH230925   6.671   2.046  12.459  0.0384 -0.6256  0.4088
 3145TIP3    H130926   6.711   2.108  12.520 -1.5371  2.0359 -1.0622
 3145TIP3    H230927   6.594   2.013  12.505  1.9314 -3.2196  1.9731
 3146TIP3   OH230928   5.566   6.156  11.937 -0.2223  0.2714 -0.2145
 3146TIP3    H130929   5.562   6.184  12.028 -1.1772  0.2961 -0.2538
 3146TIP3    H230930   5.475   6.158  11.907  0.0638  0.1524 -1.1347
 3147TIP3   OH230931   1.110   1.918  12.095 -0.2239 -0.4883 -0.6546
 3147TIP3    H130932   1.104   2.010  12.120 -0.6509  0.2985 -3.2907
 3147TIP3    H230933   1.190   1.886  12.135  1.0778  1.6651 -1.3879
 3148TIP3   OH230934   5.801   4.117  16.274  0.1967 -0.1958  0.1005
 3148TIP3    H130935   5.838   4.107  16.187  0.1785 -0.1561  0.0869
 3148TIP3    H230936   5.710   4.089  16.266  0.4916 -1.2608  0.3534
 3149TIP3   OH230937   2.316   0.147   0.940 -0.2011  0.0542 -0.5061
 3149TIP3    H130938   2.363   0.156   1.023 -2.0623  0.4768  0.5372
 3149TIP3    H230939   2.324   0.053   0.919 -2.8168 -0.9191  2.1470
 3150TIP3   OH230940   3.390   0.543   1.737 -0.0799 -0.2564  0.1037
 3150TIP3    H130941   3.300   0.561   1.710  0.0395 -0.8570 -0.7382
 3150TIP3    H230942   3.410   0.457   1.698  0.6264 -0.4368  0.8395
 3151TIP3   OH230943   0.256   3.190  17.138 -0.0268 -0.0602  0.4162
 3151TIP3    H130944   0.313   3.134  17.191  0.5154 -1.5570 -1.5964
 3151TIP3    H230945   0.237   3.265  17.193  0.5895 -1.4529  2.6504
 3152TIP3   OH230946   2.384   4.825   2.035 -0.1977  0.1024  0.1077
 3152TIP3    H130947   2.313   4.883   2.062 -0.3625  0.9819 -2.0132
 3152TIP3    H230948   2.378   4.822   1.940 -0.1888 -3.4421  0.0661
 3153TIP3   OH230949   2.348   2.227   1.942 -0.3403  0.1928  0.1542
 3153TIP3    H130950   2.304   2.202   1.861  0.6316 -0.2214 -0.2683
 3153TIP3    H230951   2.290   2.290   1.983 -0.5754  0.8645 -1.1609
 3154TIP3   OH230952   2.289   3.495  10.604  0.3006  0.3855  0.0165
 3154TIP3    H130953   2.265   3.524  10.516 -0.0676  0.4609  0.1385
 3154TIP3    H230954   2.236   3.417  10.619  1.1935 -0.2907 -0.2599
 3155TIP3   OH230955   6.788   5.273  12.270  0.1988 -0.7988  0.6750
 3155TIP3    H130956   6.696   5.300  12.276  0.2201 -0.5195 -0.1501
 3155TIP3    H230957   6.791   5.215  12.194  0.6707 -0.9710  0.8211
 3156TIP3   OH230958   2.783   6.531   4.990 -0.2477  0.9044 -0.6679
 3156TIP3    H130959   2.806   6.441   4.967  0.3772  1.0750 -0.7209
 3156TIP3    H230960   2.779   6.531   5.086  1.7482  1.2691 -0.5369
 3157TIP3   OH230961   1.082   3.151  11.352  0.5732  0.2208 -0.2000
 3157TIP3    H130962   1.008   3.109  11.394  0.2237  2.1653  1.2949
 3157TIP3    H230963   1.142   3.172  11.424  1.5711  0.6234 -1.1101
 3158TIP3   OH230964   0.673   4.069   1.239 -0.0007  0.1787  0.2537
 3158TIP3    H130965   0.614   4.012   1.288  0.7502 -0.0095  0.9619
 3158TIP3    H230966   0.657   4.046   1.147 -0.5303 -0.3583  0.4716
 3159TIP3   OH230967   6.646   2.090   5.097  0.3824  0.2772  0.0442
 3159TIP3    H130968   6.607   2.177   5.101  2.2227  1.1458  0.4064
 3159TIP3    H230969   6.712   2.096   5.028  0.6088 -0.8081  0.1386
 3160TIP3   OH230970   0.221   1.847  12.997  0.1130 -0.6565  0.8226
 3160TIP3    H130971   0.206   1.757  12.968 -0.8677 -0.1750 -0.2694
 3160TIP3    H230972   0.299   1.842  13.052  1.9410 -1.7133 -1.6481
 3161TIP3   OH230973   3.338   1.263  12.886  0.5880  0.3167 -0.4525
 3161TIP3    H130974   3.407   1.328  12.899  0.7767 -0.2151  1.4819
 3161TIP3    H230975   3.261   1.301  12.929  0.4275 -0.2791 -0.2008
 3162TIP3   OH230976   6.733   0.056  14.339  0.4894 -0.0439  0.4534
 3162TIP3    H130977   6.801   0.018  14.283  1.1609 -1.0918  1.8988
 3162TIP3    H230978   6.769   0.140  14.367  0.3520  0.2684 -0.3025
 3163TIP3   OH230979   4.791   1.444  14.445 -0.0349 -0.4687  0.1030
 3163TIP3    H130980   4.878   1.419  14.416  0.3610  0.1734  0.7171
 3163TIP3    H230981   4.733   1.376  14.409  0.8929 -1.7793  0.9802
 3164TIP3   OH230982   3.359   3.208   0.974 -0.1910  0.4240 -0.3641
 3164TIP3    H130983   3.375   3.147   1.046  0.0055 -0.5552 -1.1988
 3164TIP3    H230984   3.271   3.187   0.943  0.6582 -0.9784 -2.0291
 3165TIP3   OH230985   1.314   4.675  16.041 -0.5119 -0.3847  0.3097
 3165TIP3    H130986   1.286   4.604  15.983 -0.2858 -0.0587 -0.2091
 3165TIP3    H230987   1.240   4.690  16.099 -0.2957 -1.5216  0.8977
 3166TIP3   OH230988   2.277   4.019  11.694  0.2454 -0.5055  0.0296
 3166TIP3    H130989   2.290   3.989  11.784  3.3846 -1.5597 -0.6433
 3166TIP3    H230990   2.331   4.098  11.686 -1.8088  0.9406 -0.3749
 3167TIP3   OH230991   4.472   2.343  12.611 -0.5008 -0.1932  0.0230
 3167TIP3    H130992   4.531   2.368  12.682  0.5455 -1.4936 -0.3562
 3167TIP3    H230993   4.468   2.247  12.616 -2.3720 -0.1703 -0.1442
 3168TIP3   OH230994   6.543   3.130  13.241 -0.1100 -0.4369 -0.0484
 3168TIP3    H130995   6.626   3.084  13.234 -0.2250 -0.7363  0.5157
 3168TIP3    H230996   6.544   3.192  13.168  1.7112  1.3069  1.3205
 3169TIP3   OH230997   3.335   4.910  13.468 -0.0748 -0.4437 -0.5593
 3169TIP3    H130998   3.278   4.843  13.508  0.3070 -0.6108 -0.2878
 3169TIP3    H230999   3.335   4.889  13.375 -1.2979  0.1943 -0.7168
 3170TIP3   OH231000   3.380   3.106  15.392 -0.0852  0.1841  0.0584
 3170TIP3    H131001   3.394   3.059  15.475 -0.2920  1.7197  1.0089
 3170TIP3    H231002   3.446   3.071  15.333 -0.3294 -1.3921  0.6697
 3171TIP3   OH231003   4.825   3.927   2.045  0.8453 -0.1400 -0.2363
 3171TIP3    H131004   4.758   3.859   2.047  0.7602 -0.0437  0.5156
 3171TIP3    H231005   4.787   3.999   2.097  1.5495 -0.1070  0.2466
 3172TIP3   OH231006   5.496   3.284   5.941 -0.0079 -0.3306 -0.0233
 3172TIP3    H131007   5.414   3.294   5.892  0.4367  2.8832 -0.3672
 3172TIP3    H231008   5.468   3.273   6.032 -0.7948 -2.2001 -0.4527
 3173TIP3   OH231009   5.017   5.295   3.511 -0.1073 -0.1790 -0.2451
 3173TIP3    H131010   4.931   5.263   3.538 -0.0667 -0.6047 -0.6091
 3173TIP3    H231011   5.038   5.365   3.573 -0.3171 -0.6828  0.3969
 3174TIP3   OH231012   4.363   1.677  14.781  0.4804  0.1711  0.4769
 3174TIP3    H131013   4.443   1.710  14.740  1.6424  0.4655  2.7926
 3174TIP3    H231014   4.367   1.582  14.769  0.4821  0.2887 -0.5460
 3175TIP3   OH231015   2.444   4.959  13.792 -0.4027 -0.3845  0.1952
 3175TIP3    H131016   2.535   4.981  13.814 -0.3112 -0.5310 -0.0389
 3175TIP3    H231017   2.447   4.866  13.767 -0.6103 -0.3772  0.1425
 3176TIP3   OH231018   2.468   1.787   1.388 -0.4828 -0.0293  0.1079
 3176TIP3    H131019   2.553   1.743   1.388 -0.1260  0.6442 -0.4348
 3176TIP3    H231020   2.433   1.772   1.476 -0.3637 -1.3751 -0.0518
 3177TIP3   OH231021   3.372   3.433   4.754 -0.0832 -0.4389  0.1329
 3177TIP3    H131022   3.425   3.457   4.679 -0.0745  0.3416  0.3835
 3177TIP3    H231023   3.300   3.496   4.755 -0.9400 -1.3861 -0.1098
 3178TIP3   OH231024   6.126   5.114   1.723 -0.7249  0.8297  0.0185
 3178TIP3    H131025   6.194   5.163   1.770  0.5933  0.4322 -1.3779
 3178TIP3    H231026   6.114   5.034   1.775 -1.2084  1.5781  1.0694
 3179TIP3   OH231027   4.303   4.327   3.508  0.2203  0.4888  0.1219
 3179TIP3    H131028   4.247   4.301   3.581  2.1621  2.8559  2.7132
 3179TIP3    H231029   4.364   4.255   3.497 -0.5748 -0.2240  0.2949
 3180TIP3   OH231030   0.712   0.496  11.133 -0.5487  0.0870 -0.1940
 3180TIP3    H131031   0.718   0.587  11.161 -1.2472  0.2738 -0.6466
 3180TIP3    H231032   0.739   0.497  11.041  1.6114 -0.5017  0.3722
 3181TIP3   OH231033   1.863   4.568   2.282  0.5442  0.0603  0.0888
 3181TIP3    H131034   1.921   4.597   2.211  0.4637  1.5037  0.5659
 3181TIP3    H231035   1.916   4.507   2.333  2.0488  2.0651  1.0623
 3182TIP3   OH231036   5.155   2.678  12.579  0.3215 -0.0493  0.0727
 3182TIP3    H131037   5.159   2.670  12.483  1.9108 -0.0520  0.1160
 3182TIP3    H231038   5.085   2.617  12.605 -0.8522  0.7121 -1.1402
 3183TIP3   OH231039   0.075   6.580  11.313  0.0129  0.4312 -0.3016
 3183TIP3    H131040   0.050   6.672  11.313 -3.4663 -0.3182  2.5130
 3183TIP3    H231041   0.135   6.571  11.387 -0.3238  0.3251 -0.0373
 3184TIP3   OH231042   5.569   4.705  13.636  0.1261  0.0618  0.0415
 3184TIP3    H131043   5.528   4.710  13.549 -0.7263  1.0892  0.4782
 3184TIP3    H231044   5.530   4.628  13.676  0.7739 -0.6122 -0.5993
 3185TIP3   OH231045   5.921   1.717   0.346  0.3929 -0.0097 -0.0149
 3185TIP3    H131046   5.886   1.657   0.411 -0.8356 -1.0743 -1.5870
 3185TIP3    H231047   6.013   1.728   0.370  1.0013 -3.4488 -0.2987
 3186TIP3   OH231048   0.889   0.809   4.207 -0.1964 -0.1599 -0.0078
 3186TIP3    H131049   0.904   0.887   4.261 -0.1713  0.2227 -0.5698
 3186TIP3    H231050   0.969   0.757   4.216 -0.2349 -0.1515  0.4075
 3187TIP3   OH231051   5.492   6.298   5.704  0.4024  0.2138  0.7054
 3187TIP3    H131052   5.415   6.309   5.649 -0.1289 -0.5920  1.2709
 3187TIP3    H231053   5.468   6.229   5.766  1.6386 -0.1999  0.7573
 3188TIP3   OH231054   5.926   3.939   1.357  0.1454 -0.1924 -0.3157
 3188TIP3    H131055   5.924   3.844   1.342  0.5908 -0.3745  0.6756
 3188TIP3    H231056   5.835   3.967   1.347 -0.0384 -0.7776 -0.3194
 3189TIP3   OH231057   5.490   6.716   0.027 -0.1379  0.1409 -0.4853
 3189TIP3    H131058   5.426   6.678   0.086 -0.2160 -0.0462 -0.6874
 3189TIP3    H231059   5.438   6.748  -0.047 -0.0572  0.5039 -0.3847
 3190TIP3   OH231060   6.601   3.990   0.168  0.4514 -0.3573 -0.4451
 3190TIP3    H131061   6.671   3.961   0.110  1.6030 -0.7224  1.0507
 3190TIP3    H231062   6.612   4.085   0.173  0.1436 -0.2847 -1.0561
 3191TIP3   OH231063   3.746   2.607  12.092 -0.1851  0.8724 -0.2013
 3191TIP3    H131064   3.781   2.676  12.036 -3.6376  1.9154 -1.3547
 3191TIP3    H231065   3.731   2.650  12.177 -0.5404  1.0199 -0.3357
 3192TIP3   OH231066   4.329   4.781  13.938 -0.0307 -0.3619  0.2196
 3192TIP3    H131067   4.294   4.870  13.937 -0.4855 -0.4999 -1.9117
 3192TIP3    H231068   4.390   4.779  14.011 -2.3039  0.7509  2.2949
 3193TIP3   OH231069   2.893   5.542  14.185  0.2217 -0.4312  0.2424
 3193TIP3    H131070   2.965   5.504  14.236  1.3897  1.2709 -0.0510
 3193TIP3    H231071   2.866   5.619  14.234 -0.5777 -0.3716 -0.2734
 3194TIP3   OH231072   3.275   1.158   4.774  0.3013  0.7966 -0.5652
 3194TIP3    H131073   3.283   1.063   4.766 -0.5750  0.4993  1.4794
 3194TIP3    H231074   3.305   1.191   4.689  2.9960 -1.1242 -0.4996
 3195TIP3   OH231075   0.641   4.459   4.655  0.1959  1.0400 -0.1939
 3195TIP3    H131076   0.550   4.468   4.627  0.3137 -0.2601 -1.0970
 3195TIP3    H231077   0.638   4.469   4.750 -0.9871  0.4136 -0.1457
 3196TIP3   OH231078   5.628   2.398  16.070  0.9448 -0.0155  0.2796
 3196TIP3    H131079   5.686   2.474  16.061  0.5908  0.2717  0.4016
 3196TIP3    H231080   5.688   2.325  16.084  1.3415  0.0386 -1.0672
 3197TIP3   OH231081   1.322   5.608   5.348  0.2021  0.1326 -0.5727
 3197TIP3    H131082   1.260   5.627   5.278  1.6757  1.4763 -1.6141
 3197TIP3    H231083   1.329   5.690   5.397  1.1149  0.0145 -0.4722
 3198TIP3   OH231084   2.482   3.852  15.856  0.1471  0.1904 -0.0234
 3198TIP3    H131085   2.483   3.761  15.883  0.4105 -0.1765 -1.2069
 3198TIP3    H231086   2.553   3.859  15.791 -0.6530  0.9436 -0.8441
 3199TIP3   OH231087   0.636   1.919  14.706  0.2983 -0.3397  0.1843
 3199TIP3    H131088   0.635   1.839  14.758  0.2324  0.3952  1.3628
 3199TIP3    H231089   0.694   1.978  14.755 -1.3069  1.0445  0.4921
 3200TIP3   OH231090   6.046   4.962  12.076  0.0995 -0.2408  0.5892
 3200TIP3    H131091   6.140   4.961  12.094  1.1977 -1.7701 -3.8789
 3200TIP3    H231092   6.036   5.021  12.001 -2.5076 -0.2623  0.8220
 3201TIP3   OH231093   2.674   6.391  11.448  0.3246  0.5312 -0.1829
 3201TIP3    H131094   2.648   6.358  11.362  1.5502 -1.3435  0.0966
 3201TIP3    H231095   2.709   6.479  11.430  0.9532  0.0155 -1.6789
 3202TIP3   OH231096   6.577   1.694   3.995 -0.0286 -0.3941 -0.1190
 3202TIP3    H131097   6.513   1.628   4.023 -0.9013  0.4481 -0.0583
 3202TIP3    H231098   6.607   1.663   3.909 -1.1802 -0.3662 -0.5560
 3203TIP3   OH231099   1.158   0.815  17.034  0.5170  0.3198  0.2700
 3203TIP3    H131100   1.087   0.759  17.003 -0.2393  0.8265  1.0584
 3203TIP3    H231101   1.167   0.882  16.966  1.6227 -0.8709 -0.8219
 3204TIP3   OH231102   1.747   4.412  13.676  0.1853  0.2651  0.3609
 3204TIP3    H131103   1.676   4.461  13.719 -0.7340  0.6440 -1.5053
 3204TIP3    H231104   1.702   4.351  13.619  1.3768 -0.9267  0.6547
 3205TIP3   OH231105   0.216   4.436   6.222  0.0395  0.0565 -0.7544
 3205TIP3    H131106   0.173   4.360   6.261  0.3156  0.4887  0.4333
 3205TIP3    H231107   0.164   4.511   6.252  0.4973  0.4306 -0.8898
 3206TIP3   OH231108   6.307   4.432  12.277  0.4421  0.2380 -0.0051
 3206TIP3    H131109   6.235   4.478  12.322  1.0806  0.1908  1.1127
 3206TIP3    H231110   6.318   4.479  12.195 -0.8532  0.2578 -0.1802
 3207TIP3   OH231111   2.873   1.425   2.137  0.4468  0.1126 -0.3244
 3207TIP3    H131112   2.921   1.445   2.057 -2.2293 -0.4472 -2.2006
 3207TIP3    H231113   2.780   1.434   2.113 -0.5475 -2.1504  2.1331
 3208TIP3   OH231114   3.753   2.598   2.506  0.0195  0.1943 -0.4581
 3208TIP3    H131115   3.817   2.547   2.556  0.1200 -0.3390 -1.1159
 3208TIP3    H231116   3.804   2.669   2.468 -0.0497  0.5801  0.1456
 3209TIP3   OH231117   4.833   6.109  17.211  0.2085 -0.1957  0.2435
 3209TIP3    H131118   4.914   6.060  17.229 -0.4799 -1.1706  0.7799
 3209TIP3    H231119   4.789   6.115  17.295 -0.0643  0.7440  0.0433
 3210TIP3   OH231120   0.306   2.330  15.776  0.0545  0.3114 -0.2389
 3210TIP3    H131121   0.256   2.356  15.699 -0.4198  0.7537  0.2034
 3210TIP3    H231122   0.397   2.344  15.752 -0.0527 -0.2312 -0.9614
 3211TIP3   OH231123   1.122   1.754   0.020  0.4187  0.3765 -0.2508
 3211TIP3    H131124   1.129   1.695  -0.055 -0.2607 -1.1635  0.8483
 3211TIP3    H231125   1.173   1.711   0.089 -1.7007 -0.0059  1.1809
 3212TIP3   OH231126   2.368   6.643   3.434  0.3880  0.3884  0.2577
 3212TIP3    H131127   2.373   6.731   3.395 -1.8468  0.6715  0.4775
 3212TIP3    H231128   2.428   6.590   3.382 -1.1635  1.1565 -2.4889
 3213TIP3   OH231129   3.609   1.623   2.381 -0.1648  0.0784  0.3317
 3213TIP3    H131130   3.583   1.602   2.470 -1.0894  0.4064  0.1460
 3213TIP3    H231131   3.626   1.717   2.382  1.0790 -0.1189  0.4484
 3214TIP3   OH231132   5.709   6.365   3.059  0.5221  0.4476 -0.7389
 3214TIP3    H131133   5.672   6.434   3.004 -0.5217 -0.2581 -0.9540
 3214TIP3    H231134   5.801   6.387   3.066  0.4225  1.2635 -1.7139
 3215TIP3   OH231135   3.712   0.611  16.232  0.2607 -0.3841  0.2212
 3215TIP3    H131136   3.757   0.543  16.181 -0.0758  1.5543 -2.8828
 3215TIP3    H231137   3.633   0.568  16.265  0.2576 -1.6383 -1.2946
 3216TIP3   OH231138   6.003   5.350   0.490 -0.0998 -0.5960  0.2345
 3216TIP3    H131139   5.919   5.357   0.535 -0.6593  0.9551 -0.9329
 3216TIP3    H231140   5.986   5.288   0.418  0.1952 -1.4419  0.8846
 3217TIP3   OH231141   0.389   4.286  17.036  0.0779  0.0689 -0.0630
 3217TIP3    H131142   0.365   4.374  17.009  0.2313  0.4009  0.8329
 3217TIP3    H231143   0.472   4.297  17.082 -0.1384 -0.4716  0.4728
 3218TIP3   OH231144   4.895   2.288   4.001  0.0014 -0.3976  0.4746
 3218TIP3    H131145   4.986   2.260   4.013  0.1125 -1.0758 -1.5844
 3218TIP3    H231146   4.843   2.209   4.016 -0.0590 -0.5636 -0.5431
 3219TIP3   OH231147   0.722   2.305  13.807  0.0504  0.4218 -0.2881
 3219TIP3    H131148   0.683   2.258  13.880  0.9050 -0.3161 -0.2932
 3219TIP3    H231149   0.813   2.319  13.833 -0.0660  1.6876 -0.4794
 3220TIP3   OH231150   0.817   1.293   3.935  0.0440 -0.6011 -0.0530
 3220TIP3    H131151   0.787   1.372   3.889  0.3028 -0.5325 -0.1048
 3220TIP3    H231152   0.808   1.314   4.028  2.2289  0.3418  0.0065
 3221TIP3   OH231153   2.176   2.586  14.466 -0.5250  0.1653 -0.1170
 3221TIP3    H131154   2.267   2.574  14.437 -0.2619  1.3703  0.1331
 3221TIP3    H231155   2.145   2.661  14.415 -1.3513 -0.1681 -0.1154
 3222TIP3   OH231156   0.361   1.807   3.569  0.2163 -0.5403 -0.0529
 3222TIP3    H131157   0.368   1.713   3.584 -0.6304 -0.9388 -1.8585
 3222TIP3    H231158   0.428   1.846   3.625  1.4120 -2.3036 -0.1935
 3223TIP3   OH231159   3.551   6.099  13.401 -0.3648  0.1546 -0.4290
 3223TIP3    H131160   3.465   6.121  13.366 -0.9476 -0.8534  0.2991
 3223TIP3    H231161   3.565   6.008  13.374  1.3126  0.8532 -2.1092
 3224TIP3   OH231162   1.084   5.603   4.816  0.1590 -0.3700 -0.1489
 3224TIP3    H131163   1.051   5.693   4.824  3.6297  0.8888  2.0008
 3224TIP3    H231164   1.099   5.592   4.722 -0.0562  1.4211 -0.4376
 3225TIP3   OH231165   2.042   4.056  16.463  0.4197 -0.7196  0.6597
 3225TIP3    H131166   2.129   4.094  16.452 -0.4987  2.2389  2.3722
 3225TIP3    H231167   2.043   4.021  16.553 -0.4271  0.2725  1.0705
 3226TIP3   OH231168   4.229   2.204  13.823  0.4971  0.6314 -0.0461
 3226TIP3    H131169   4.219   2.192  13.917 -0.6608  1.9217  0.0194
 3226TIP3    H231170   4.141   2.191  13.787  1.2373 -1.7491 -1.2227
 3227TIP3   OH231171   6.655   1.166   2.158 -0.2720  0.2945  0.1277
 3227TIP3    H131172   6.645   1.076   2.127 -0.2668  0.4058 -0.2110
 3227TIP3    H231173   6.615   1.167   2.245 -0.0426 -0.0937  0.2374
 3228TIP3   OH231174   3.062   3.706   2.101  0.1227  0.0491  0.4963
 3228TIP3    H131175   3.014   3.788   2.111  0.2899  0.0686  1.2577
 3228TIP3    H231176   3.083   3.680   2.191  0.6451 -0.4871  0.2277
 3229TIP3   OH231177   6.004   4.096   0.371  0.6547  0.3069 -0.2217
 3229TIP3    H131178   6.053   4.162   0.322 -0.5331  1.7373  0.4429
 3229TIP3    H231179   5.924   4.083   0.319  0.4805  0.0617  0.1045
 3230TIP3   OH231180   3.144   5.822   1.892  0.3630  0.5763 -0.4881
 3230TIP3    H131181   3.148   5.873   1.811  0.1152  0.2148 -0.7279
 3230TIP3    H231182   3.233   5.789   1.904  0.8473  2.0843  0.3339
 3231TIP3   OH231183   2.718   5.260  14.374 -0.2030  0.3365 -0.6419
 3231TIP3    H131184   2.624   5.268  14.392 -0.1717 -1.3390  0.5041
 3231TIP3    H231185   2.760   5.301  14.450 -0.0122 -0.1515 -0.4855
 3232TIP3   OH231186   4.882   0.427  15.289 -0.5400  0.2730  0.9777
 3232TIP3    H131187   4.895   0.515  15.325  0.5545  0.3316  0.4879
 3232TIP3    H231188   4.808   0.391  15.339  0.3090  0.7040  2.6345
 3233TIP3   OH231189   4.845   2.275   3.199 -0.5515 -0.0868 -0.2977
 3233TIP3    H131190   4.892   2.313   3.273 -1.7518  1.4135 -0.2341
 3233TIP3    H231191   4.912   2.258   3.133  0.4949 -1.1620  1.0016
 3234TIP3   OH231192   5.450   1.636  12.520  0.1390  0.5554  0.0813
 3234TIP3    H131193   5.420   1.629  12.429  0.2251  1.5096 -0.0315
 3234TIP3    H231194   5.373   1.667  12.568  0.3968  1.1199  0.1346
 3235TIP3   OH231195   5.225   6.612  15.719  0.2248 -0.1868  0.2528
 3235TIP3    H131196   5.218   6.614  15.624 -0.8986  1.2499  0.3326
 3235TIP3    H231197   5.313   6.578  15.736  0.8012  0.4422 -1.3006
 3236TIP3   OH231198   0.144   3.381  14.606  0.0729 -0.1286  0.1020
 3236TIP3    H131199   0.118   3.309  14.662 -0.1404  0.6706  1.0476
 3236TIP3    H231200   0.237   3.395  14.626 -0.0645  0.3139  0.4246
 3237TIP3   OH231201   4.031   2.143  14.384 -0.4432  0.1679  0.0073
 3237TIP3    H131202   3.988   2.228  14.378 -1.5962 -0.0500  3.2161
 3237TIP3    H231203   4.123   2.162  14.370 -1.0399  1.2511 -3.2453
 3238TIP3   OH231204   0.856   0.933  10.636  0.2852  0.6022  0.2296
 3238TIP3    H131205   0.805   1.015  10.641 -0.8214  0.0176 -0.8736
 3238TIP3    H231206   0.930   0.955  10.579 -0.3346  0.6997 -0.5608
 3239TIP3   OH231207   3.259   0.782   5.929 -0.5357 -0.0789 -0.5436
 3239TIP3    H131208   3.222   0.699   5.898  1.4534 -1.1557 -0.2311
 3239TIP3    H231209   3.343   0.757   5.967 -2.0333  1.3352  4.3785
 3240TIP3   OH231210   0.172   0.658   2.255 -0.4202  0.6563  0.4181
 3240TIP3    H131211   0.227   0.709   2.314 -0.5802 -0.1640  1.3026
 3240TIP3    H231212   0.230   0.588   2.224 -0.6022  0.5420  0.3359
 3241TIP3   OH231213   3.648   0.676  14.977  0.2579  0.3503 -0.1784
 3241TIP3    H131214   3.689   0.712  14.898 -3.0281  2.1670 -1.2321
 3241TIP3    H231215   3.651   0.747  15.040 -1.4101  0.6514 -0.3897
 3242TIP3   OH231216   4.824   1.359   6.186  0.4307  0.1410 -0.5855
 3242TIP3    H131217   4.795   1.283   6.238 -0.6773 -0.2080 -1.6760
 3242TIP3    H231218   4.905   1.329   6.145  1.3303  0.4192  0.8818
 3243TIP3   OH231219   0.594   1.485   5.495  0.5418  0.1821  0.0131
 3243TIP3    H131220   0.641   1.403   5.478  0.0893 -0.1172  0.1774
 3243TIP3    H231221   0.516   1.480   5.440 -0.2810 -0.2130  1.1713
 3244TIP3   OH231222   2.095   1.653   1.748  0.4645  0.4548  0.3335
 3244TIP3    H131223   2.066   1.597   1.821  0.6540 -0.9647 -0.6423
 3244TIP3    H231224   2.186   1.674   1.769  1.4822 -2.3368 -0.8071
 3245TIP3   OH231225   0.203   5.204  14.982  0.1524 -0.2126 -0.8672
 3245TIP3    H131226   0.256   5.131  15.015  0.0597  0.3444  0.5969
 3245TIP3    H231227   0.251   5.283  15.009 -1.3457  0.3045  0.4246
 3246TIP3   OH231228   3.791   4.885  12.764 -0.2418  0.3593  0.5027
 3246TIP3    H131229   3.885   4.905  12.761 -0.3936  1.0176 -1.2868
 3246TIP3    H231230   3.749   4.971  12.773 -0.7112  0.2834 -0.7710
 3247TIP3   OH231231   0.303   0.694   0.049 -0.4515 -0.1781  0.3948
 3247TIP3    H131232   0.242   0.740  -0.009  0.5246 -1.3135 -1.6282
 3247TIP3    H231233   0.261   0.610   0.068  1.2169 -1.8797 -2.7335
 3248TIP3   OH231234   2.650   2.009  11.404 -0.0973  0.9885 -0.2210
 3248TIP3    H131235   2.745   2.009  11.415 -0.2401  0.0109  1.2332
 3248TIP3    H231236   2.629   1.920  11.376 -0.7926  0.3888  1.9797
 3249TIP3   OH231237   0.977   4.249   0.385  0.3218 -0.4213 -0.3061
 3249TIP3    H131238   1.055   4.258   0.439 -0.5289  2.5029  0.6408
 3249TIP3    H231239   1.005   4.278   0.298  0.4773 -0.1488 -0.1649
 3250TIP3   OH231240   1.251   3.463  16.440  0.2511 -0.2252 -0.8450
 3250TIP3    H131241   1.176   3.521  16.434  0.7122  0.2366 -2.9860
 3250TIP3    H231242   1.225   3.385  16.390 -0.5807 -2.2525  2.4274
 3251TIP3   OH231243   4.809   1.859   1.419 -0.3422  0.4382  0.1945
 3251TIP3    H131244   4.725   1.886   1.455 -0.5606  1.6534 -1.1545
 3251TIP3    H231245   4.873   1.920   1.456  0.0287 -0.7137  1.5111
 3252TIP3   OH231246   4.966   4.131  17.052  0.1656 -0.1489  0.0603
 3252TIP3    H131247   4.940   4.221  17.074  0.1558 -0.3808  1.0596
 3252TIP3    H231248   5.060   4.138  17.033  1.0197 -0.4137  3.5135
 3253TIP3   OH231249   5.436   3.235   2.307  0.3146  0.0346 -0.0716
 3253TIP3    H131250   5.531   3.218   2.304  0.4970  0.9524  0.2791
 3253TIP3    H231251   5.417   3.250   2.399 -0.7488 -3.1029  0.3531
 3254TIP3   OH231252   2.716   5.296   4.424 -0.7035  0.0858  0.0152
 3254TIP3    H131253   2.645   5.265   4.480 -0.5524  1.0336  0.7782
 3254TIP3    H231254   2.785   5.230   4.433 -0.3879  0.5721  1.5839
 3255TIP3   OH231255   2.374   4.139  13.077  0.4452 -0.2395 -0.1921
 3255TIP3    H131256   2.293   4.139  13.025  0.2017  0.0074  0.1852
 3255TIP3    H231257   2.366   4.064  13.135  1.4912 -1.5804 -1.6809
 3256TIP3   OH231258   5.672   0.304  15.982  0.0936  0.1315 -0.1620
 3256TIP3    H131259   5.630   0.288  15.898  2.0574  1.6604 -1.5365
 3256TIP3    H231260   5.610   0.271  16.047 -2.4157  0.7651 -2.0969
 3257TIP3   OH231261   4.775   6.636  16.045 -0.0635 -0.2699 -0.2642
 3257TIP3    H131262   4.706   6.656  15.982 -0.8620 -0.2004  0.5967
 3257TIP3    H231263   4.839   6.706  16.034 -1.1874  0.9121  0.3842
 3258TIP3   OH231264   2.206   4.682  14.791 -0.1515 -0.2346  0.4753
 3258TIP3    H131265   2.179   4.743  14.860  1.1383 -0.4347  1.1816
 3258TIP3    H231266   2.291   4.714  14.762 -1.0103  0.3020 -1.6220
 3259TIP3   OH231267   5.947   3.796  16.057 -0.1121 -0.4508 -0.3588
 3259TIP3    H131268   5.913   3.884  16.074 -0.3670 -0.8146  1.1291
 3259TIP3    H231269   5.958   3.757  16.144  1.0556 -1.5003 -0.9384
 3260TIP3   OH231270   5.474   6.383  15.100  0.2360  0.1666  0.7768
 3260TIP3    H131271   5.382   6.377  15.075 -0.2616  1.2912  2.1907
 3260TIP3    H231272   5.502   6.292  15.109 -0.5156 -0.2003 -0.3854
 3261TIP3   OH231273   2.975   2.237  16.030 -0.6452  0.0630  0.2198
 3261TIP3    H131274   2.917   2.226  16.106 -0.0980 -2.5990  0.3638
 3261TIP3    H231275   3.064   2.232  16.067 -0.3581  0.5182 -0.3994
 3262TIP3   OH231276   0.749   1.132   5.910 -0.3336  0.0415 -0.3930
 3262TIP3    H131277   0.690   1.156   5.839 -0.7127 -3.2907 -1.4184
 3262TIP3    H231278   0.702   1.064   5.958  1.9980 -1.6341 -0.3013
 3263TIP3   OH231279   1.174   5.747  12.914 -0.4702 -0.5067  0.3379
 3263TIP3    H131280   1.146   5.836  12.933 -3.3078 -1.6595  2.3178
 3263TIP3    H231281   1.220   5.719  12.993 -0.2150 -1.0151  0.0111
 3264TIP3   OH231282   5.211   5.378   1.580  0.7010  0.0909 -0.2189
 3264TIP3    H131283   5.177   5.411   1.496  0.4512 -0.5008 -0.3541
 3264TIP3    H231284   5.172   5.435   1.646 -1.9829 -1.5776 -0.2120
 3265TIP3   OH231285   3.619   1.560   0.748 -0.1780 -0.5053  0.6722
 3265TIP3    H131286   3.604   1.648   0.783  0.1761  0.0216 -0.4447
 3265TIP3    H231287   3.623   1.504   0.825 -1.4858  0.2801  1.3474
 3266TIP3   OH231288   3.831   3.032  15.085 -0.1530  0.7725 -0.0360
 3266TIP3    H131289   3.833   2.941  15.113 -0.2160  0.0877 -2.0661
 3266TIP3    H231290   3.883   3.079  15.150 -0.1841 -0.6775  1.0847
 3267TIP3   OH231291   1.159   6.726  16.631  0.2539 -0.2771  0.4032
 3267TIP3    H131292   1.064   6.732  16.642  0.0124 -2.3875 -0.0759
 3267TIP3    H231293   1.194   6.722  16.720 -0.0508  0.8169  0.5899
 3268TIP3   OH231294   3.589   1.494  11.014  0.8524  0.0580 -0.0755
 3268TIP3    H131295   3.631   1.420  10.970  1.7734 -1.3690  2.9055
 3268TIP3    H231296   3.502   1.462  11.037  0.6909  0.4665 -0.1063
 3269TIP3   OH231297   5.281   0.957  12.385 -0.2513  0.3472 -0.2034
 3269TIP3    H131298   5.209   0.942  12.325  0.0440 -0.9427 -0.2642
 3269TIP3    H231299   5.354   0.985  12.330 -0.3409  0.3995 -0.2940
 3270TIP3   OH231300   2.485   6.460   1.760 -0.1593  0.5960  0.0226
 3270TIP3    H131301   2.408   6.516   1.765  0.0630  0.8662  0.6230
 3270TIP3    H231302   2.464   6.394   1.695 -2.8215 -2.2097  3.3411
 3271TIP3   OH231303   6.521   4.936  11.178 -0.6031  0.0100  0.6963
 3271TIP3    H131304   6.612   4.908  11.162 -0.5755 -0.4275  1.5845
 3271TIP3    H231305   6.484   4.944  11.090  0.4727  0.8195  0.2903
 3272TIP3   OH231306   3.868   6.551   1.969 -0.3973 -0.1136  0.1864
 3272TIP3    H131307   3.804   6.480   1.962 -1.2772  0.6967 -0.2028
 3272TIP3    H231308   3.891   6.553   2.062  2.5714 -3.3784 -0.2785
 3273TIP3   OH231309   6.002   0.137   2.799  0.5451 -0.3068  0.3586
 3273TIP3    H131310   5.911   0.112   2.784  0.5576 -0.0125 -0.2404
 3273TIP3    H231311   6.053   0.078   2.743  0.5680  1.0840 -1.1517
 3274TIP3   OH231312   3.255   2.402   1.142  0.0792 -0.0568 -0.0547
 3274TIP3    H131313   3.220   2.316   1.119 -0.0017 -0.3824  1.2325
 3274TIP3    H231314   3.328   2.383   1.201  1.8262  0.6587 -1.8751
 3275TIP3   OH231315   2.760   1.640   2.677  0.0407  0.2857  0.3264
 3275TIP3    H131316   2.744   1.582   2.751 -1.6611  0.0265 -0.2016
 3275TIP3    H231317   2.702   1.607   2.608 -0.4846  2.1848 -0.2086
 3276TIP3   OH231318   4.472   0.443  12.986 -0.3764 -0.4031 -0.2952
 3276TIP3    H131319   4.402   0.403  13.037  0.8759 -1.8712  0.3435
 3276TIP3    H231320   4.482   0.386  12.910 -0.1306  0.0256 -0.5938
 3277TIP3   OH231321   3.800   0.923  12.102  0.0519 -0.2456  0.3316
 3277TIP3    H131322   3.799   0.847  12.159  1.3018 -0.6920 -0.2057
 3277TIP3    H231323   3.725   0.911  12.044 -1.6573  0.5493  2.2309
 3278TIP3   OH231324   4.926   0.017   1.452 -0.3604 -0.4854  0.0807
 3278TIP3    H131325   4.836   0.049   1.446 -0.1227  1.5339  4.0710
 3278TIP3    H231326   4.934  -0.016   1.541  1.9460 -4.1519 -1.2359
 3279TIP3   OH231327   4.520   4.065  17.000 -0.8843  0.2150  0.3323
 3279TIP3    H131328   4.490   4.108  16.920  1.2651  1.7348  0.2381
 3279TIP3    H231329   4.448   4.009  17.027 -1.9666  0.2772 -2.2272
 3280TIP3   OH231330   0.162   6.707   5.033 -0.2643 -0.1609  0.1047
 3280TIP3    H131331   0.142   6.680   4.944 -0.9943  2.8764 -0.7778
 3280TIP3    H231332   0.257   6.713   5.036 -0.2828  1.9863 -1.3251
 3281TIP3   OH231333   5.239   0.053   1.331 -0.2308 -0.2439 -0.4280
 3281TIP3    H131334   5.197   0.007   1.404 -0.4808 -1.1332 -1.1132
 3281TIP3    H231335   5.284  -0.017   1.282 -0.9657  0.1741 -1.7277
 3282TIP3   OH231336   6.620   5.465   0.882 -0.3266 -0.8065 -0.2663
 3282TIP3    H131337   6.548   5.474   0.945  2.1489  2.2300  2.5179
 3282TIP3    H231338   6.667   5.386   0.909  0.0849 -0.1243  1.0811
 3283TIP3   OH231339   6.679   0.151  12.257  0.0296  0.0262  0.4211
 3283TIP3    H131340   6.770   0.146  12.285 -0.2775 -1.8282  1.2531
 3283TIP3    H231341   6.677   0.223  12.194  2.0088  0.2533  0.5546
 3284TIP3   OH231342   2.805   2.627  16.574 -0.0178 -0.9813  0.0025
 3284TIP3    H131343   2.838   2.537  16.572  0.6733 -0.7304 -0.2708
 3284TIP3    H231344   2.741   2.631  16.503 -0.9523 -1.5868  0.7939
 3285TIP3   OH231345   5.562   1.820  12.092 -0.0105  0.4818  0.2773
 3285TIP3    H131346   5.482   1.824  12.039  0.1760  1.4210  0.0407
 3285TIP3    H231347   5.633   1.823  12.028  0.2207 -0.3654  0.4861
 3286TIP3   OH231348   4.104   6.454  12.594  0.0563  0.5724  0.1565
 3286TIP3    H131349   4.059   6.411  12.666 -0.1263  0.4130 -0.0496
 3286TIP3    H231350   4.034   6.499  12.545 -0.2529 -1.4944 -1.4521
 3287TIP3   OH231351   2.439   2.697   1.228 -0.3685 -0.4964 -0.1102
 3287TIP3    H131352   2.529   2.728   1.216 -0.3158  0.1586  1.6876
 3287TIP3    H231353   2.438   2.610   1.187  0.5425  0.2653 -1.8289
 3288TIP3   OH231354   4.307   1.182   6.707  0.0101 -0.5018 -0.1306
 3288TIP3    H131355   4.219   1.208   6.735 -0.0179  0.2692 -0.8863
 3288TIP3    H231356   4.329   1.108   6.764  0.7079  2.0389  3.2558
 3289TIP3   OH231357   4.239   0.568  16.897 -0.5344 -0.1355  0.4959
 3289TIP3    H131358   4.261   0.480  16.868  1.1194 -0.2772  1.9863
 3289TIP3    H231359   4.250   0.623  16.819 -0.3237 -1.0548 -0.1303
 3290TIP3   OH231360   3.366   2.611   3.767  0.4347  0.6230 -0.0807
 3290TIP3    H131361   3.284   2.647   3.735  0.5473  0.4864 -0.5229
 3290TIP3    H231362   3.346   2.519   3.784  0.3959  0.6773  0.1717
 3291TIP3   OH231363   3.985   3.726   2.215 -0.1359  0.2816  0.5080
 3291TIP3    H131364   4.001   3.648   2.162  2.7502  1.3566 -0.3296
 3291TIP3    H231365   3.917   3.698   2.277 -0.1416 -2.4848 -0.5999
 3292TIP3   OH231366   6.644   2.763   2.058 -0.7065  0.1438 -0.1669
 3292TIP3    H131367   6.619   2.843   2.105 -0.3316  0.5553 -0.6571
 3292TIP3    H231368   6.613   2.777   1.969 -0.1542 -0.0139 -0.3889
 3293TIP3   OH231369   2.696   3.183  14.078  0.9308  0.1386  0.3209
 3293TIP3    H131370   2.703   3.118  14.009  0.4559  0.0069  0.3976
 3293TIP3    H231371   2.713   3.267  14.033 -0.1307  0.1380 -0.1175
 3294TIP3   OH231372   0.330   2.039  14.803 -0.4197  0.1061 -1.2769
 3294TIP3    H131373   0.413   2.068  14.840 -1.4213  0.8988  0.5296
 3294TIP3    H231374   0.282   2.121  14.787 -2.0572 -0.3544  0.8190
 3295TIP3   OH231375   4.554   2.282   0.218 -0.3243 -0.4577 -0.1680
 3295TIP3    H131376   4.519   2.194   0.233 -0.6059 -0.0634  1.6286
 3295TIP3    H231377   4.646   2.276   0.245 -0.7142  0.1444  1.3626
 3296TIP3   OH231378   3.283   4.875  15.459  0.1267  0.0284  0.6706
 3296TIP3    H131379   3.266   4.964  15.488  0.9931  0.4693 -0.0977
 3296TIP3    H231380   3.210   4.823  15.493 -0.5011  1.0687  0.9359
 3297TIP3   OH231381   6.307   3.936  11.633 -0.4121  0.4654  0.3210
 3297TIP3    H131382   6.366   3.945  11.708  1.8021  0.9832 -1.3932
 3297TIP3    H231383   6.250   4.013  11.638 -0.4721  0.3689  1.5649
 3298TIP3   OH231384   5.870   4.416   2.691  0.0709  0.1825  0.1188
 3298TIP3    H131385   5.774   4.416   2.690  0.0627 -0.4610  0.0324
 3298TIP3    H231386   5.895   4.503   2.661 -0.4898  0.7934  1.3716
 3299TIP3   OH231387   0.034   2.225   6.253  0.2596 -0.5823  0.1145
 3299TIP3    H131388   0.048   2.135   6.223 -1.6291 -0.4033 -1.5035
 3299TIP3    H231389  -0.061   2.234   6.259  0.4435  0.9829  1.3944
 3300TIP3   OH231390   0.101   5.429   0.870  0.1959  0.0049 -0.3912
 3300TIP3    H131391   0.124   5.344   0.833 -2.1577 -0.0907 -1.8606
 3300TIP3    H231392   0.116   5.419   0.964 -0.6805 -2.3195 -0.4312
 3301TIP3   OH231393   5.631   3.946  17.091 -0.4378 -0.4573  0.2629
 3301TIP3    H131394   5.705   3.886  17.078  1.4970  1.8542 -0.1987
 3301TIP3    H231395   5.643   4.013  17.023 -0.4930  2.2582  2.7304
 3302TIP3   OH231396   5.604   4.236   3.979  0.3414  0.6066  0.2405
 3302TIP3    H131397   5.639   4.285   3.905  0.3440  1.4457  0.7859
 3302TIP3    H231398   5.675   4.234   4.043  0.4021 -0.2679  0.1592
 3303TIP3   OH231399   4.195   2.451   1.826  0.0656  0.1551  0.3326
 3303TIP3    H131400   4.189   2.367   1.779 -0.6879  0.3133  0.1350
 3303TIP3    H231401   4.219   2.427   1.915 -0.2022 -0.2754  0.2913
 3304TIP3   OH231402   2.745   3.578  12.042  0.3791  0.0836 -0.1375
 3304TIP3    H131403   2.763   3.505  11.983  0.9985 -1.0054  1.3297
 3304TIP3    H231404   2.821   3.635  12.035 -0.0889  0.5932 -1.2603
 3305TIP3   OH231405   4.417   6.727   2.904 -0.0758 -0.4398 -0.0976
 3305TIP3    H131406   4.355   6.780   2.953 -2.1880 -1.6326 -1.3545
 3305TIP3    H231407   4.381   6.639   2.907  1.9913 -1.3612 -0.2391
 3306TIP3   OH231408   5.503   3.040  11.615 -0.0565  0.2627 -0.0870
 3306TIP3    H131409   5.595   3.060  11.601 -0.3230  1.1657 -0.6270
 3306TIP3    H231410   5.497   3.016  11.707  0.7136  0.1762 -0.0558
 3307TIP3   OH231411   0.501   3.996  11.520 -0.0663  0.5769 -0.5316
 3307TIP3    H131412   0.537   3.907  11.512 -1.3504  0.0234 -0.3169
 3307TIP3    H231413   0.567   4.044  11.571 -0.0101 -0.6331  0.5697
 3308TIP3   OH231414   1.229   6.509  17.075 -0.4476  0.4439  0.2627
 3308TIP3    H131415   1.172   6.581  17.047 -0.3462  0.9009  1.1979
 3308TIP3    H231416   1.169   6.438  17.098 -0.5905  0.5418  0.1953
 3309TIP3   OH231417   5.422   2.794   4.045 -0.0626 -0.9968  0.4199
 3309TIP3    H131418   5.437   2.818   4.136 -3.5927  1.0720  0.6371
 3309TIP3    H231419   5.340   2.745   4.046  0.6551 -2.3732 -1.5111
 3310TIP3   OH231420   2.527   0.781   3.076 -0.4101 -0.0688  0.9524
 3310TIP3    H131421   2.609   0.810   3.037 -0.6475  2.3740  2.0732
 3310TIP3    H231422   2.552   0.749   3.163 -0.3931 -1.6316  0.4061
 3311TIP3   OH231423   1.981   2.803  12.669 -0.3051  0.0180 -0.0637
 3311TIP3    H131424   1.972   2.739  12.599  0.3151 -1.5769  1.2645
 3311TIP3    H231425   1.897   2.801  12.714  0.1967 -0.9603  0.8597
 3312TIP3   OH231426   1.971   0.330   4.392 -0.5934 -0.1800 -0.1744
 3312TIP3    H131427   1.911   0.301   4.324 -0.0701  0.1054 -0.7680
 3312TIP3    H231428   2.008   0.249   4.428 -1.4326 -0.3665  0.3040
 3313TIP3   OH231429   1.819   1.188   3.363  0.1238  0.4549  0.1466
 3313TIP3    H131430   1.900   1.227   3.396 -0.2062  1.1502  0.1570
 3313TIP3    H231431   1.786   1.136   3.435 -0.4903  1.8016  0.8740
 3314TIP3   OH231432   3.590   1.717  16.848  0.6252 -0.0114 -0.2949
 3314TIP3    H131433   3.516   1.690  16.903  1.1405 -1.4581 -0.2596
 3314TIP3    H231434   3.583   1.812  16.843 -0.7849 -0.0577  0.3462
 3315TIP3   OH231435   0.871   1.945   2.367  0.3650  0.1329  0.4566
 3315TIP3    H131436   0.959   1.963   2.335  0.0055  0.6765 -0.2646
 3315TIP3    H231437   0.876   1.857   2.403  0.6426 -0.8102 -1.7264
 3316TIP3   OH231438   0.814   5.854  13.347  0.1452  0.0261 -0.5053
 3316TIP3    H131439   0.880   5.792  13.314  0.9028  0.6189 -0.1463
 3316TIP3    H231440   0.736   5.800  13.361 -0.0046 -0.3644 -2.5824
 3317TIP3   OH231441   4.126   3.709  12.632  0.4489  0.4263  0.5004
 3317TIP3    H131442   4.120   3.717  12.537  2.1935  1.2807  0.4228
 3317TIP3    H231443   4.220   3.710  12.650  0.4030 -3.4513  1.9551
 3318TIP3   OH231444   0.008   3.688  16.129 -0.5031 -0.2937 -0.0317
 3318TIP3    H131445   0.090   3.715  16.087 -0.3763  0.8950  0.9541
 3318TIP3    H231446  -0.059   3.702  16.061  0.1184 -1.5515 -0.9420
 3319TIP3   OH231447   5.111   6.444   5.860 -0.5827  0.1316  0.7058
 3319TIP3    H131448   5.204   6.451   5.838  0.2559 -3.6218  2.1213
 3319TIP3    H231449   5.067   6.430   5.776  0.3921  0.3265  0.1490
 3320TIP3   OH231450   4.195   5.332  16.632  0.2537  0.1839 -0.2707
 3320TIP3    H131451   4.221   5.424  16.638  0.8481 -0.0722  1.6580
 3320TIP3    H231452   4.154   5.325  16.546  0.6188  2.1363 -0.6610
 3321TIP3   OH231453   1.910   4.886  11.271 -0.1038  0.1139  0.3266
 3321TIP3    H131454   1.913   4.885  11.367 -1.6646 -1.1353  0.4089
 3321TIP3    H231455   1.863   4.967  11.250  0.6509  0.6285  0.5763
 3322TIP3   OH231456   3.959   0.531  12.751 -0.2766 -0.0495  0.1281
 3322TIP3    H131457   3.914   0.475  12.814 -0.8479  0.7553  0.4584
 3322TIP3    H231458   4.036   0.481  12.724 -0.1683 -0.5086  1.2667
 3323TIP3   OH231459   4.781   6.658  16.985 -0.3183  0.1968  0.0455
 3323TIP3    H131460   4.842   6.642  16.913 -0.4609  0.6182 -0.1734
 3323TIP3    H231461   4.729   6.732  16.956 -0.4078  0.3415  0.5670
 3324TIP3   OH231462   0.579   6.175   5.889  0.9962  0.1610  0.5019
 3324TIP3    H131463   0.622   6.123   5.957  2.0360 -0.3334 -0.4771
 3324TIP3    H231464   0.504   6.122   5.862 -0.0323  0.8441  1.9600
 3325TIP3   OH231465   4.000   2.532  11.873 -0.2023 -0.3363 -0.1126
 3325TIP3    H131466   3.982   2.501  11.962  0.5174  1.2544  0.6404
 3325TIP3    H231467   3.914   2.539  11.832 -0.5083 -1.5423  0.2894
 3326TIP3   OH231468   2.994   1.426  15.652 -0.4070 -0.8686 -0.0892
 3326TIP3    H131469   2.948   1.404  15.733  0.8005 -1.8925  0.3489
 3326TIP3    H231470   2.983   1.349  15.597 -0.6885 -0.4216 -0.6642
 3327TIP3   OH231471   2.517   1.215   5.356  1.2075 -0.2902  0.1956
 3327TIP3    H131472   2.515   1.275   5.282  1.5473 -0.4733  0.0385
 3327TIP3    H231473   2.434   1.166   5.349  0.9591  0.1134  0.2896
 3328TIP3   OH231474   1.150   4.929   1.964  0.2540 -0.4358 -0.7247
 3328TIP3    H131475   1.126   4.904   2.053  0.3044 -0.3282 -0.6808
 3328TIP3    H231476   1.191   5.015   1.973 -2.4158  0.9862 -1.1723
 3329TIP3   OH231477   6.361   0.148   3.676  0.3510 -0.1565  0.3818
 3329TIP3    H131478   6.409   0.119   3.598 -0.1386  0.8451 -0.3135
 3329TIP3    H231479   6.314   0.070   3.706 -0.1271 -0.3468 -0.8330
 3330TIP3   OH231480   6.821   6.726   1.904  0.5741 -0.5466 -0.4237
 3330TIP3    H131481   6.772   6.662   1.955 -0.0801 -0.5385 -1.0187
 3330TIP3    H231482   6.823   6.689   1.815  0.1903  0.2319 -0.7719
 3331TIP3   OH231483   6.245   1.041  11.663 -0.0609  0.6221 -0.7652
 3331TIP3    H131484   6.245   0.949  11.689  0.0595  0.9555  0.4626
 3331TIP3    H231485   6.327   1.052  11.615  0.5460  0.3749  0.1903
 3332TIP3   OH231486   1.425   0.612   5.011 -0.2030 -0.3721  0.0339
 3332TIP3    H131487   1.511   0.652   5.028  1.0716 -1.4425 -3.1343
 3332TIP3    H231488   1.428   0.530   5.059  0.1435  0.0144  0.6981
 3333TIP3   OH231489   2.026   4.091   0.504 -0.5448 -0.9029  0.4928
 3333TIP3    H131490   2.014   4.032   0.578  1.2994 -2.3965 -0.2984
 3333TIP3    H231491   2.066   4.036   0.437 -1.0804  0.6934 -1.1994
 3334TIP3   OH231492   6.451   2.914   0.912 -0.3528  0.1510 -0.8927
 3334TIP3    H131493   6.474   2.953   0.828 -1.1654  0.6212 -0.9057
 3334TIP3    H231494   6.356   2.922   0.918 -0.3114  0.0997  0.0547
 3335TIP3   OH231495   0.540   5.077   1.539 -0.3016 -0.3770 -0.0198
 3335TIP3    H131496   0.553   5.170   1.561 -1.2671 -0.0725 -0.6900
 3335TIP3    H231497   0.627   5.038   1.549 -0.2059  0.2289  1.9812
 3336TIP3   OH231498   1.277   1.869  14.465  0.3597 -0.0674  0.1627
 3336TIP3    H131499   1.242   1.958  14.461  0.3299 -0.1103 -0.7851
 3336TIP3    H231500   1.233   1.830  14.541  0.6200  0.8161  0.7940
 3337TIP3   OH231501   4.007   3.267   4.318  0.3785  0.0343  0.0792
 3337TIP3    H131502   3.946   3.235   4.251  0.0044 -1.6261  1.1520
 3337TIP3    H231503   3.953   3.276   4.397  1.1685  0.2834  0.6048
 3338TIP3   OH231504   6.003   0.360   4.366 -0.2348  0.2195  0.3649
 3338TIP3    H131505   6.000   0.342   4.460  1.4804  1.0082  0.6053
 3338TIP3    H231506   6.056   0.440   4.359 -1.8022  1.2085 -1.1448
 3339TIP3   OH231507   5.127   1.111  11.272 -0.6214 -0.0979 -0.2880
 3339TIP3    H131508   5.174   1.187  11.237 -1.1645  0.2517 -0.2716
 3339TIP3    H231509   5.128   1.047  11.200  2.2743 -1.2016  0.6255
 3340TIP3   OH231510   2.431   5.407   2.555  0.0590  0.1134 -0.0011
 3340TIP3    H131511   2.444   5.407   2.650 -0.7816  0.9445  0.1230
 3340TIP3    H231512   2.341   5.436   2.542  0.2904  0.4186 -1.0684
 3341TIP3   OH231513   5.561   2.543  10.828 -0.7816 -0.0275  0.1966
 3341TIP3    H131514   5.584   2.627  10.867 -0.1085  0.4781 -1.2201
 3341TIP3    H231515   5.492   2.563  10.765  1.6221  0.1121 -2.5932
 3342TIP3   OH231516   1.408   3.793   6.175  0.3863 -0.8205  0.3590
 3342TIP3    H131517   1.392   3.769   6.266 -0.7078  0.5402  0.5558
 3342TIP3    H231518   1.425   3.710   6.131 -0.1501 -1.6145  1.5928
 3343TIP3   OH231519   5.667   1.324  16.803 -0.2238 -0.3696 -0.2509
 3343TIP3    H131520   5.590   1.338  16.748 -0.8967 -0.9444  0.5115
 3343TIP3    H231521   5.670   1.400  16.860 -0.3004 -0.4004 -0.2055
 3344TIP3   OH231522   5.232   4.354   5.908 -0.5039  0.7666  0.4474
 3344TIP3    H131523   5.282   4.417   5.959  1.0673  0.3450 -0.5190
 3344TIP3    H231524   5.179   4.307   5.973 -2.3883  3.5658  1.1290
 3345TIP3   OH231525   2.200   4.555  12.796  0.3803  0.0906  0.2604
 3345TIP3    H131526   2.246   4.593  12.871  0.0072  1.7423 -0.3163
 3345TIP3    H231527   2.119   4.521  12.833 -0.4066  2.0670  0.4370
 3346TIP3   OH231528   4.853   5.970  16.246  0.2495 -0.0886 -0.9211
 3346TIP3    H131529   4.856   6.061  16.277  2.4978 -0.7988  1.2755
 3346TIP3    H231530   4.782   5.930  16.296  0.2595  0.0956 -0.7561
 3347TIP3   OH231531   0.674   3.257  16.239  0.0369 -0.1532  0.2187
 3347TIP3    H131532   0.640   3.172  16.268 -0.1680 -0.4752 -0.9340
 3347TIP3    H231533   0.768   3.254  16.257 -0.2316  0.0855  1.8462
 3348TIP3   OH231534   5.301   2.891   2.189  1.0141 -0.0266  0.4252
 3348TIP3    H131535   5.273   2.974   2.150  1.1273 -0.1027  0.1822
 3348TIP3    H231536   5.237   2.875   2.259  0.9199  0.2024  0.3929
 3349TIP3   OH231537   0.056   5.337   2.369 -0.5361 -0.2394  0.5723
 3349TIP3    H131538   0.030   5.407   2.428  1.3497  0.0755  1.1096
 3349TIP3    H231539   0.149   5.352   2.354 -1.2744  1.0617 -4.3451
 3350TIP3   OH231540   3.240   6.403  15.931  0.1842 -0.3236  0.4335
 3350TIP3    H131541   3.191   6.376  15.853 -0.0228 -0.2235  0.5268
 3350TIP3    H231542   3.328   6.370  15.916 -0.3158 -2.1140  1.0613
 3351TIP3   OH231543   0.720   2.926   5.578 -0.1389  0.6739 -0.2365
 3351TIP3    H131544   0.713   2.942   5.484 -1.2010  0.3292 -0.2239
 3351TIP3    H231545   0.803   2.880   5.588  0.1618  1.0391 -0.9547
 3352TIP3   OH231546   5.121   4.967   6.208 -0.2073  0.2636  0.2214
 3352TIP3    H131547   5.115   4.950   6.114 -0.0507  0.7246  0.1236
 3352TIP3    H231548   5.031   4.984   6.235 -0.4146 -0.9909  0.3865
 3353TIP3   OH231549   4.073   2.064  14.666 -0.4179  0.2723  0.4768
 3353TIP3    H131550   4.057   2.129  14.598 -2.1342 -0.1537  0.4230
 3353TIP3    H231551   4.018   2.092  14.739  0.1682 -0.1666  1.0937
 3354TIP3   OH231552   3.019   4.230   3.017 -0.7212  0.2413 -0.4882
 3354TIP3    H131553   3.048   4.319   3.002 -1.8650  0.4478 -1.6822
 3354TIP3    H231554   3.053   4.207   3.104  0.4783  1.4421 -0.6191
 3355TIP3   OH231555   0.268   5.869  14.919  0.5057 -0.1287  0.2369
 3355TIP3    H131556   0.330   5.878  14.991  1.6579 -1.4437 -0.5421
 3355TIP3    H231557   0.229   5.783  14.932 -1.8927  1.0306  1.2256
 3356TIP3   OH231558   5.453   2.749  11.905  0.1910 -0.1433  0.0661
 3356TIP3    H131559   5.542   2.765  11.935  1.0795  1.3121 -2.9461
 3356TIP3    H231560   5.403   2.823  11.940  0.0871 -1.0123  1.8394
 3357TIP3   OH231561   0.699   6.328  16.756  0.2226 -0.0101 -0.1725
 3357TIP3    H131562   0.691   6.264  16.827  0.1116  0.0050 -0.1711
 3357TIP3    H231563   0.705   6.412  16.801 -0.7321  0.0820 -0.1947
 3358TIP3   OH231564   2.898   3.245   1.420 -0.8188  0.1118  0.7706
 3358TIP3    H131565   2.964   3.178   1.404 -0.6034  0.3520  0.6497
 3358TIP3    H231566   2.947   3.326   1.434 -1.0878  0.3569  0.3645
 3359TIP3   OH231567   0.174   1.907   0.737  0.1469  0.0937 -0.1165
 3359TIP3    H131568   0.113   1.936   0.804  0.3890 -0.2528  0.2611
 3359TIP3    H231569   0.257   1.948   0.760 -0.0429  0.9374 -0.8919
 3360TIP3   OH231570   5.531   6.810  15.911  0.0662 -0.1907 -0.0841
 3360TIP3    H131571   5.457   6.869  15.922  0.2938  0.0597  0.1208
 3360TIP3    H231572   5.574   6.841  15.831  0.4901  0.2601  0.3102
 3361TIP3   OH231573   3.052   3.199  13.799 -0.4693 -0.1263  1.4579
 3361TIP3    H131574   3.058   3.186  13.893  0.6331  2.4990  1.8564
 3361TIP3    H231575   3.046   3.294  13.788  1.0403 -0.2160 -1.1567
 3362TIP3   OH231576   1.323   6.610   6.176 -0.1414  0.2516 -0.5560
 3362TIP3    H131577   1.239   6.625   6.219  0.7027  2.5434  0.4330
 3362TIP3    H231578   1.386   6.603   6.248  0.5644 -1.3323 -1.2861
 3363TIP3   OH231579   0.560   3.553   2.236  0.1104  0.1878 -0.1850
 3363TIP3    H131580   0.579   3.646   2.252  0.8965  0.0754 -0.4333
 3363TIP3    H231581   0.627   3.525   2.173 -0.3844 -0.4404 -0.4395
 3364TIP3   OH231582   6.632   5.170   6.411 -0.3016 -0.1579  0.0000
 3364TIP3    H131583   6.571   5.187   6.340 -0.3070 -2.9884 -0.7902
 3364TIP3    H231584   6.605   5.086   6.448  2.0702 -0.7012  0.7370
 3365TIP3   OH231585   0.764   4.498  14.001  0.5503  0.2115  0.2461
 3365TIP3    H131586   0.718   4.515  14.083  0.8748  0.4608  0.3796
 3365TIP3    H231587   0.728   4.561  13.939  0.5012  0.2072  0.2708
 3366TIP3   OH231588   1.454   5.493  14.193  0.0719 -0.4550 -0.1566
 3366TIP3    H131589   1.528   5.477  14.251 -0.6513  0.8995  1.1951
 3366TIP3    H231590   1.491   5.543  14.120  0.6448 -0.5290  0.0818
 3367TIP3   OH231591   3.439   0.739  15.966 -0.4332 -0.3839  0.5840
 3367TIP3    H131592   3.469   0.765  16.053 -0.5417  0.8713  0.2736
 3367TIP3    H231593   3.519   0.739  15.913 -0.6211  0.7115  0.2746
 3368TIP3   OH231594   0.363   2.690   3.473 -0.2540  0.3385  0.0307
 3368TIP3    H131595   0.368   2.724   3.383  2.0160 -0.3156 -0.1670
 3368TIP3    H231596   0.313   2.609   3.465  1.4255 -0.6537 -1.0208
 3369TIP3   OH231597   3.781   0.485  14.729  0.2247  0.0392  0.3433
 3369TIP3    H131598   3.868   0.470  14.766  0.0836 -2.3584 -0.1477
 3369TIP3    H231599   3.799   0.517  14.640  0.5867  0.1047  0.4347
 3370TIP3   OH231600   5.732   1.250   3.405 -0.2116  0.1560 -0.6383
 3370TIP3    H131601   5.667   1.311   3.440 -0.7769  0.2943 -1.8708
 3370TIP3    H231602   5.809   1.304   3.387 -1.2793  0.9056 -3.3252
 3371TIP3   OH231603   6.046   4.122   2.956  0.5257 -0.3124 -0.2624
 3371TIP3    H131604   5.971   4.181   2.965  1.3673  0.5553  1.5883
 3371TIP3    H231605   6.080   4.139   2.868 -0.1048  0.9224 -0.2836
 3372TIP3   OH231606   6.088   6.687  16.733 -0.1658  0.5055  0.0482
 3372TIP3    H131607   6.123   6.686  16.644 -1.5800  1.1926 -0.5460
 3372TIP3    H231608   6.111   6.601  16.769 -0.2601 -0.0970 -1.2673
 3373TIP3   OH231609   0.901   5.816   6.299  1.0269 -0.5517 -0.3719
 3373TIP3    H131610   0.964   5.753   6.264  1.3516  0.3823 -1.5590
 3373TIP3    H231611   0.902   5.888   6.235 -1.5629 -0.6965 -0.6544
 3374TIP3   OH231612   3.109   6.542   3.807 -0.4473  0.4193 -0.1287
 3374TIP3    H131613   3.201   6.564   3.802  0.0002 -1.4745 -1.2179
 3374TIP3    H231614   3.063   6.622   3.784  0.9359  1.1658 -0.3584
 3375TIP3   OH231615   1.708   0.189  11.780 -0.0461 -0.6857 -0.0379
 3375TIP3    H131616   1.792   0.173  11.823  0.5607  1.1479 -0.4684
 3375TIP3    H231617   1.730   0.202  11.688 -0.9926 -1.6220 -0.4164
 3376TIP3   OH231618   6.545   5.677   4.468  0.4967  0.2802 -0.3025
 3376TIP3    H131619   6.635   5.648   4.479  0.4038  0.5232  1.4246
 3376TIP3    H231620   6.537   5.752   4.527 -1.4004 -1.0650  1.2976
 3377TIP3   OH231621   3.504   2.258  13.808 -0.1641 -0.3387 -0.0539
 3377TIP3    H131622   3.508   2.165  13.832 -0.3177  0.2103  2.2627
 3377TIP3    H231623   3.442   2.296  13.870  1.4767  1.7099  0.4171
 3378TIP3   OH231624   2.580   6.811  15.765  0.6170  0.2659  0.0604
 3378TIP3    H131625   2.648   6.756  15.804  1.1267  1.8570  1.5351
 3378TIP3    H231626   2.562   6.770  15.680  1.7232 -1.5259  0.6303
 3379TIP3   OH231627   3.364   4.065  15.101  0.5190  0.1198  0.4521
 3379TIP3    H131628   3.394   4.153  15.077 -0.9046  0.7920  1.0493
 3379TIP3    H231629   3.301   4.079  15.172  0.7037 -1.4329  0.9552
 3380TIP3   OH231630   3.613   3.597  16.640  0.2822 -0.0409 -0.1743
 3380TIP3    H131631   3.579   3.683  16.665  1.4834  0.4726 -0.2598
 3380TIP3    H231632   3.706   3.600  16.662  0.0901 -1.8391  1.1930
 3381TIP3   OH231633   0.290   3.448  12.273  0.3778  0.3901  0.2401
 3381TIP3    H131634   0.262   3.426  12.184 -0.3491  0.7036  0.3806
 3381TIP3    H231635   0.245   3.385  12.328 -0.0516  0.8979  0.4737
 3382TIP3   OH231636   3.589   3.332  17.139  0.7353  0.3163 -0.0275
 3382TIP3    H131637   3.541   3.361  17.217  1.7103 -0.8761  1.0756
 3382TIP3    H231638   3.663   3.392  17.133  0.1558  0.9776 -0.5882
 3383TIP3   OH231639   6.663   3.402   1.861 -0.0472 -0.4620  0.4576
 3383TIP3    H131640   6.651   3.495   1.844  0.5009 -0.6290 -1.0245
 3383TIP3    H231641   6.673   3.363   1.774 -1.5597 -2.0969  0.9458
 3384TIP3   OH231642   0.304   6.361   5.823 -0.1202 -0.2027 -0.0849
 3384TIP3    H131643   0.382   6.350   5.878  0.0932  2.3793  0.2469
 3384TIP3    H231644   0.231   6.334   5.879  0.2368  0.9480  1.0051
 3385TIP3   OH231645   0.605   3.459   4.378 -0.2283 -0.3256 -0.1752
 3385TIP3    H131646   0.542   3.519   4.417  1.0172 -0.0135  1.5013
 3385TIP3    H231647   0.640   3.506   4.302  1.7416  1.8077  1.8797
 3386TIP3   OH231648   6.068   2.017   4.070  0.2629  0.3969  0.3365
 3386TIP3    H131649   6.066   2.097   4.122  0.4947  0.6972 -0.1118
 3386TIP3    H231650   6.161   2.001   4.055  0.1920  0.4868 -0.2430
 3387TIP3   OH231651   1.498   3.919  11.073  0.1413 -0.2361 -0.1642
 3387TIP3    H131652   1.407   3.928  11.045  0.4693  0.5066 -1.0253
 3387TIP3    H231653   1.549   3.924  10.993  1.1521  2.5457  0.5256
 3388TIP3   OH231654   5.800   5.391  14.506  0.3055  0.9090  0.4791
 3388TIP3    H131655   5.855   5.354  14.437  0.6073 -2.2442  2.1983
 3388TIP3    H231656   5.710   5.366  14.481  0.3332  0.4768  0.8016
 3389TIP3   OH231657   5.866   3.696   1.788  0.5213 -0.6407 -0.1606
 3389TIP3    H131658   5.946   3.674   1.740  0.0885 -1.2311 -0.6312
 3389TIP3    H231659   5.830   3.772   1.742  1.0146 -0.1365  0.2884
 3390TIP3   OH231660   2.417   5.804  15.398 -0.1521 -0.7127 -0.0933
 3390TIP3    H131661   2.499   5.807  15.446 -1.1321  1.2012  1.6501
 3390TIP3    H231662   2.373   5.725  15.429 -0.1317 -0.2760  1.1082
 3391TIP3   OH231663   3.913   5.959   0.019  0.2399 -0.1070  0.2126
 3391TIP3    H131664   3.820   5.950  -0.000 -0.3799  1.5195  2.0914
 3391TIP3    H231665   3.946   5.869   0.020 -1.3535 -0.7340 -0.2701
 3392TIP3   OH231666   2.884   2.589   5.562  0.4427 -0.0961 -0.5412
 3392TIP3    H131667   2.905   2.501   5.532  0.3892 -0.0015 -0.8562
 3392TIP3    H231668   2.871   2.640   5.482  0.1361  0.1180 -0.3579
 3393TIP3   OH231669   1.158   3.414  11.296 -0.2176  0.1294 -0.1616
 3393TIP3    H131670   1.183   3.356  11.368  0.4329 -0.2395 -0.6768
 3393TIP3    H231671   1.168   3.360  11.218 -2.8472 -0.1447 -0.4249
 3394TIP3   OH231672   4.828   0.158   4.409  0.2270 -0.3714  0.3285
 3394TIP3    H131673   4.905   0.212   4.428  0.6474 -1.5188  2.1688
 3394TIP3    H231674   4.757   0.200   4.457  0.0189 -0.1147 -0.2021
 3395TIP3   OH231675   1.123   0.455  14.675  0.0880  0.2730 -0.2481
 3395TIP3    H131676   1.141   0.391  14.744  0.1165  2.2227  1.6911
 3395TIP3    H231677   1.036   0.433  14.644 -0.1061 -0.4263  0.7336
 3396TIP3   OH231678   5.599   5.856  12.206  0.0480  0.4724 -0.1533
 3396TIP3    H131679   5.682   5.815  12.182  0.5392  1.7924 -0.8443
 3396TIP3    H231680   5.624   5.938  12.249 -0.8946  0.0991  1.2045
 3397TIP3   OH231681   4.332   1.936   3.463  0.2991 -0.3787  0.0180
 3397TIP3    H131682   4.378   2.003   3.514 -0.0782 -0.9082  1.0835
 3397TIP3    H231683   4.377   1.854   3.485  1.3488 -0.4004 -1.9784
 3398TIP3   OH231684   0.123   2.807  15.346  0.6935 -0.6046  0.2738
 3398TIP3    H131685   0.134   2.716  15.317 -3.0934 -2.1358  2.9168
 3398TIP3    H231686   0.067   2.846  15.279  2.6670  0.0632 -1.0914
 3399TIP3   OH231687   2.310   1.480   3.540  0.0975  0.3786  0.1098
 3399TIP3    H131688   2.235   1.538   3.528  0.7801  1.1420 -0.6184
 3399TIP3    H231689   2.360   1.519   3.611 -0.1860 -0.1397  0.6060
 3400TIP3   OH231690   2.329   4.024   0.204  0.2371 -0.2090  0.9537
 3400TIP3    H131691   2.384   3.948   0.187 -0.9195 -0.6443 -1.1049
 3400TIP3    H231692   2.243   3.988   0.224 -0.4591  0.5094 -0.5505
 3401TIP3   OH231693   5.083   5.208   0.687  0.0560 -0.0787  0.0926
 3401TIP3    H131694   5.023   5.151   0.734 -0.5292  1.3594  1.1610
 3401TIP3    H231695   5.156   5.151   0.662 -0.5719 -1.3103  0.9656
 3402TIP3   OH231696   0.086   2.987   5.654  0.1949  0.9712 -0.3972
 3402TIP3    H131697   0.074   2.893   5.663  0.5812  0.9881  0.5237
 3402TIP3    H231698   0.163   3.006   5.708 -0.7433  2.0160  0.6387
 3403TIP3   OH231699   3.423   3.135   4.038  0.0985 -0.4434 -0.0169
 3403TIP3    H131700   3.410   3.221   3.998 -1.0319  0.2269  1.6840
 3403TIP3    H231701   3.335   3.098   4.046  0.4261 -1.1207  0.6461
 3404TIP3   OH231702   1.095   3.547  14.224 -0.4338 -0.1161 -0.4183
 3404TIP3    H131703   1.095   3.456  14.254  2.8439 -0.2378 -0.4155
 3404TIP3    H231704   1.135   3.595  14.297  0.7907  0.7712 -1.6292
 3405TIP3   OH231705   0.827   3.329  11.742 -1.0870  0.3084 -0.2044
 3405TIP3    H131706   0.879   3.255  11.773 -1.9736 -0.0427  0.5044
 3405TIP3    H231707   0.759   3.290  11.688 -1.9564  0.5109  0.7012
 3406TIP3   OH231708   2.971   4.467   5.498  0.1673  0.1775  0.2504
 3406TIP3    H131709   2.969   4.375   5.522 -3.0491  0.2129  0.5113
 3406TIP3    H231710   2.916   4.473   5.420 -0.7728  2.0182  0.9892
 3407TIP3   OH231711   5.126   1.665   1.340 -0.2209 -0.5580 -0.2205
 3407TIP3    H131712   5.078   1.583   1.333 -1.1841 -0.2443  1.8680
 3407TIP3    H231713   5.141   1.677   1.434  1.0136  1.0280 -0.5636
 3408TIP3   OH231714   2.641   3.757   5.449  0.4081 -0.0482 -0.1775
 3408TIP3    H131715   2.568   3.753   5.387 -0.9060  0.6552  1.2594
 3408TIP3    H231716   2.719   3.745   5.394 -0.8012 -2.3166 -1.5809
 3409TIP3   OH231717   5.650   0.727  11.474  0.0424  0.0304 -0.1626
 3409TIP3    H131718   5.655   0.680  11.390 -0.6487  1.2301 -0.9009
 3409TIP3    H231719   5.605   0.809  11.453 -1.2721 -0.1767  1.6225
 3410TIP3   OH231720   3.923   1.418  15.171 -0.4578  0.1995 -0.2844
 3410TIP3    H131721   3.877   1.426  15.088  2.0987  1.6038 -1.6602
 3410TIP3    H231722   3.921   1.324  15.190 -0.3045 -0.2813 -2.4189
 3411TIP3   OH231723   6.311   5.484  15.012 -0.0474  0.0186  0.0219
 3411TIP3    H131724   6.372   5.421  14.973  2.6498  2.2668  0.2437
 3411TIP3    H231725   6.336   5.488  15.104 -0.0180  1.4809 -0.0192
 3412TIP3   OH231726   3.280   4.038   1.691 -0.2508 -0.2898 -0.4389
 3412TIP3    H131727   3.269   3.943   1.685  0.8578 -0.4034 -1.0879
 3412TIP3    H231728   3.257   4.060   1.781 -0.7534 -1.1419 -0.3553
 3413TIP3   OH231729   0.200   5.544   5.829  0.0239 -0.2173  0.1435
 3413TIP3    H131730   0.191   5.629   5.871 -0.6292 -1.2750  2.2838
 3413TIP3    H231731   0.276   5.504   5.871  0.2842 -0.7419 -0.7850
 3414TIP3   OH231732   0.773   5.747  16.354  0.6730  0.1074 -0.3865
 3414TIP3    H131733   0.791   5.781  16.442 -1.0260 -0.2194  0.1245
 3414TIP3    H231734   0.761   5.825  16.300  2.8295  0.3373 -0.6415
 3415TIP3   OH231735   0.090   5.108  15.707  0.3568 -0.4618 -0.1349
 3415TIP3    H131736   0.043   5.143  15.631 -0.3202 -0.9770  0.0410
 3415TIP3    H231737   0.022   5.066  15.760  0.6364  0.8100  1.3049
 3416TIP3   OH231738   4.177   1.185   5.104 -0.1099 -0.0997  0.1290
 3416TIP3    H131739   4.270   1.201   5.090 -0.2249  1.0192  0.5646
 3416TIP3    H231740   4.145   1.152   5.020  0.9336 -1.8452  0.3589
 3417TIP3   OH231741   3.135   0.054  13.005 -0.0549  0.0081 -0.8947
 3417TIP3    H131742   3.146   0.101  12.923 -0.2574 -0.0565 -0.9613
 3417TIP3    H231743   3.044   0.023  13.002 -0.1058  0.1317 -0.5815
 3418TIP3   OH231744   2.840   0.483   2.512  0.3315  0.4872  0.1859
 3418TIP3    H131745   2.913   0.423   2.494 -1.0628 -1.0294 -0.6635
 3418TIP3    H231746   2.819   0.466   2.604  0.2270 -0.0071  0.0731
 3419TIP3   OH231747   6.320   3.672   4.541 -0.4182  0.1744  0.2620
 3419TIP3    H131748   6.370   3.748   4.569  1.2129 -0.4014 -0.9592
 3419TIP3    H231749   6.239   3.708   4.504  0.0491  1.2729  0.2863
 3420TIP3   OH231750   3.206   3.799  15.574 -0.3371  0.4203  0.3242
 3420TIP3    H131751   3.291   3.797  15.531 -0.5164  0.3501 -0.0338
 3420TIP3    H231752   3.167   3.882  15.546 -0.8932 -0.1065 -0.5169
 3421TIP3   OH231753   0.714   5.891  14.541  0.1349 -0.3821  0.4243
 3421TIP3    H131754   0.767   5.864  14.616 -0.4778  0.7345  1.3084
 3421TIP3    H231755   0.774   5.942  14.486  0.4335 -0.6871  0.4624
 3422TIP3   OH231756   1.745   6.044  11.007 -0.6329 -0.0638 -0.7501
 3422TIP3    H131757   1.820   6.000  11.047 -0.4533  0.8742 -0.0085
 3422TIP3    H231758   1.702   5.976  10.955  0.0115 -0.9290 -0.1809
 3423TIP3   OH231759   1.896   0.285  12.833 -0.9736  0.0352  0.3026
 3423TIP3    H131760   1.977   0.245  12.864 -1.5553 -0.7981  0.7928
 3423TIP3    H231761   1.920   0.331  12.752  0.5758  2.2388  1.9128
 3424TIP3   OH231762   6.220   2.334  12.782  0.3592 -0.1291 -0.3476
 3424TIP3    H131763   6.275   2.288  12.845 -1.9312 -2.0636  0.3435
 3424TIP3    H231764   6.130   2.318  12.810 -0.6641  1.8896 -2.1221
 3425TIP3   OH231765   5.826   4.490  15.647 -0.3060 -0.3490 -0.3617
 3425TIP3    H131766   5.760   4.430  15.682  1.2960 -1.2461  1.3029
 3425TIP3    H231767   5.874   4.520  15.724  2.7290 -1.5673 -1.6124
 3426TIP3   OH231768   0.740   3.300  15.028  0.5301  0.0745  0.1786
 3426TIP3    H131769   0.674   3.253  14.977 -1.0964  0.4846  1.8113
 3426TIP3    H231770   0.719   3.281  15.119  1.7708  1.4124  0.7950
 3427TIP3   OH231771   0.802   4.951  12.330 -0.1182  0.3495  0.5480
 3427TIP3    H131772   0.858   4.875  12.345  0.8404  1.2150  1.4311
 3427TIP3    H231773   0.814   4.972  12.238  0.3124 -0.0230  0.5167
 3428TIP3   OH231774   2.886   2.770   4.102  0.3324  0.2086  0.2264
 3428TIP3    H131775   2.872   2.863   4.083 -2.4922 -0.1136  0.3490
 3428TIP3    H231776   2.859   2.725   4.022  1.3485 -0.5453  0.2953
 3429TIP3   OH231777   1.976   3.556  12.125 -0.1442  0.1151  0.2260
 3429TIP3    H131778   2.001   3.617  12.056  1.6048 -1.6597 -0.8425
 3429TIP3    H231779   1.899   3.511  12.090  0.7633 -0.8108 -0.6583
 3430TIP3   OH231780   1.696   5.430  12.560  0.0686 -0.1593  0.1827
 3430TIP3    H131781   1.694   5.414  12.466 -0.0555 -0.7772  0.2874
 3430TIP3    H231782   1.648   5.512  12.571  2.0121  1.1539 -0.5134
 3431TIP3   OH231783   4.406   3.354   0.008 -0.0882 -0.5941 -0.4782
 3431TIP3    H131784   4.435   3.442   0.029  2.3548 -1.6263  0.9089
 3431TIP3    H231785   4.487   3.304  -0.003 -1.3072 -3.2116  1.3432
 3432TIP3   OH231786   2.477   6.600  12.775  0.1509  0.7392 -0.2956
 3432TIP3    H131787   2.441   6.656  12.844  1.0286 -0.5446  1.2921
 3432TIP3    H231788   2.426   6.519  12.780  0.8831  0.2562 -0.4511
 3433TIP3   OH231789   3.196   2.970  16.520 -0.0647  0.2390 -0.1010
 3433TIP3    H131790   3.154   3.050  16.490  1.0300  2.0440  2.7941
 3433TIP3    H231791   3.268   2.956  16.458  0.7446  2.5014  0.2219
 3434TIP3   OH231792   4.887   6.112  11.816  0.2602  0.0324  0.6037
 3434TIP3    H131793   4.828   6.088  11.744  0.7528  1.2534 -0.2433
 3434TIP3    H231794   4.975   6.106  11.777  0.6583 -0.8702  1.5883
 3435TIP3   OH231795   2.979   6.359  16.099 -0.3566 -0.1225  0.6120
 3435TIP3    H131796   3.058   6.353  16.046 -1.5571  0.3820 -1.3473
 3435TIP3    H231797   2.926   6.284  16.072 -1.7354  1.1177 -0.2510
 3436TIP3   OH231798   4.392   3.982  11.764  0.4478 -0.3276 -0.7131
 3436TIP3    H131799   4.456   4.034  11.812  0.8892 -1.2501 -0.2669
 3436TIP3    H231800   4.381   3.903  11.818 -1.0926 -0.1733 -0.7510
 3437TIP3   OH231801   2.317   4.447   5.157 -0.5386  0.3040 -0.4783
 3437TIP3    H131802   2.229   4.461   5.192 -0.1423 -0.8727  1.0676
 3437TIP3    H231803   2.321   4.503   5.079 -2.3703  0.9705 -0.1308
 3438TIP3   OH231804   3.338   2.402   4.094 -0.3461 -0.2881  0.5364
 3438TIP3    H131805   3.315   2.384   4.003 -0.8489 -1.9899  0.9591
 3438TIP3    H231806   3.284   2.477   4.118 -1.0833 -0.5595 -0.2278
 3439TIP3   OH231807   2.211   4.692  13.884 -0.1507  0.3075  0.1286
 3439TIP3    H131808   2.219   4.620  13.821  0.2943 -0.1443  0.6926
 3439TIP3    H231809   2.226   4.651  13.969  0.8839  1.1905  0.3932
 3440TIP3   OH231810   0.504   4.632   0.381 -0.6922  0.4175  0.1448
 3440TIP3    H131811   0.486   4.707   0.325 -0.9686 -1.0790 -1.8698
 3440TIP3    H231812   0.566   4.666   0.446  0.8502  1.9187 -1.9514
 3441TIP3   OH231813   4.677   5.495   4.993  0.0850  0.1383 -0.4844
 3441TIP3    H131814   4.761   5.479   4.951  0.3392  0.4959 -0.1176
 3441TIP3    H231815   4.612   5.475   4.925  0.3650 -2.2489 -0.1276
 3442TIP3   OH231816   2.986   0.435   4.126  0.1918  0.5656  0.1039
 3442TIP3    H131817   2.904   0.445   4.173 -0.4498 -2.1007 -0.2689
 3442TIP3    H231818   2.961   0.403   4.039  1.5733 -0.5137  0.0538
 3443TIP3   OH231819   0.184   1.410   0.427  0.3559 -0.1218  0.3950
 3443TIP3    H131820   0.186   1.381   0.336  0.4309  0.2426  0.2754
 3443TIP3    H231821   0.159   1.503   0.421  3.8472  0.9740  0.4628
 3444TIP3   OH231822   2.552   0.287   6.350  0.2317 -0.0442  0.6246
 3444TIP3    H131823   2.480   0.315   6.407 -0.3018  0.4527 -0.2672
 3444TIP3    H231824   2.551   0.351   6.278  3.4198  1.8078  2.0147
 3445TIP3   OH231825   0.177   5.999   6.783 -0.3298 -0.3133  0.6161
 3445TIP3    H131826   0.266   5.973   6.758  0.1392  0.9704  0.8908
 3445TIP3    H231827   0.121   5.930   6.746  0.6675 -0.4922 -0.6376
 3446TIP3   OH231828   1.718   5.371   5.810 -0.3598  0.6969  0.3385
 3446TIP3    H131829   1.687   5.407   5.893 -1.0157 -0.4607  0.6105
 3446TIP3    H231830   1.798   5.324   5.832 -0.3892  0.6159  0.2749
 3447TIP3   OH231831   2.789   5.625  15.093 -0.2945  0.3248  0.0859
 3447TIP3    H131832   2.833   5.687  15.150 -0.2704 -0.1285  0.5706
 3447TIP3    H231833   2.787   5.668  15.007  0.6633  0.5487  0.1636
 3448TIP3   OH231834   2.620   0.024   6.282 -0.4578  0.2116 -0.5328
 3448TIP3    H131835   2.543  -0.011   6.326 -1.4310  0.4375 -1.9653
 3448TIP3    H231836   2.630   0.113   6.317 -0.7361  0.1104 -0.1920
 3449TIP3   OH231837   0.005   1.117   6.506 -0.1646 -0.3996  0.0454
 3449TIP3    H131838  -0.034   1.036   6.473 -0.3802 -0.8350  1.3106
 3449TIP3    H231839  -0.063   1.157   6.560  0.8579 -0.8168  1.7145
 3450TIP3   OH231840   1.344   4.273  10.652 -0.4729  0.2678  0.2204
 3450TIP3    H131841   1.326   4.256  10.745 -2.0415  1.7202  0.2277
 3450TIP3    H231842   1.281   4.341  10.628 -0.8000 -0.8027 -2.1791
 3451TIP3   OH231843   0.802   2.464   0.181  0.4998 -0.0745 -0.4110
 3451TIP3    H131844   0.746   2.539   0.163  0.0332 -0.5045 -0.7746
 3451TIP3    H231845   0.805   2.416   0.098  1.3606 -0.0879 -0.3822
 3452TIP3   OH231846   4.380   4.346   4.042  0.4533  0.3575  0.3182
 3452TIP3    H131847   4.403   4.277   3.980  3.3604  2.4780 -1.2182
 3452TIP3    H231848   4.350   4.418   3.988 -0.9224  0.9199  1.7558
 3453TIP3   OH231849   3.422   6.211  15.762  0.1209 -0.0776  0.4384
 3453TIP3    H131850   3.478   6.161  15.821 -1.3045 -0.0831  1.8560
 3453TIP3    H231851   3.364   6.146  15.723 -0.4315  0.1988  0.7788
 3454TIP3   OH231852   4.483   3.758   3.080  0.3318  0.5486  0.6145
 3454TIP3    H131853   4.399   3.800   3.096 -0.1739 -0.7710  1.5971
 3454TIP3    H231854   4.482   3.679   3.135  1.7964 -0.0226 -0.1086
 3455TIP3   OH231855   4.549   3.772   5.384  0.5324 -0.6011 -0.1751
 3455TIP3    H131856   4.589   3.777   5.470  1.3916  0.5657 -0.6249
 3455TIP3    H231857   4.515   3.859   5.367 -0.8111 -1.1573 -0.4798
 3456TIP3   OH231858   2.641   2.914   2.035  0.3645 -0.6954  0.9743
 3456TIP3    H131859   2.599   2.986   2.082 -0.1076 -0.1044 -0.3136
 3456TIP3    H231860   2.714   2.888   2.091 -0.7584 -0.6898  2.5031
 3457TIP3   OH231861   2.446   4.087   6.016  0.1100 -0.0188 -0.9713
 3457TIP3    H131862   2.424   4.103   6.108 -0.1339  0.1633 -1.0613
 3457TIP3    H231863   2.396   4.152   5.967  1.1794  0.7016 -1.1573
 3458TIP3   OH231864   4.559   0.001   6.102  0.0052  0.6128  0.1620
 3458TIP3    H131865   4.506  -0.071   6.070 -0.5809  0.1460  2.0427
 3458TIP3    H231866   4.634  -0.041   6.144 -0.0582  1.1064  0.7930
 3459TIP3   OH231867   2.916   1.852   0.039 -0.4810 -0.2231  0.5808
 3459TIP3    H131868   2.980   1.801   0.088 -1.4468 -0.9984  1.0737
 3459TIP3    H231869   2.831   1.821   0.071 -1.1688 -0.8949 -1.6955
 3460TIP3   OH231870   2.376   2.494  14.296  0.5494 -0.1823 -0.1862
 3460TIP3    H131871   2.463   2.527  14.322  0.0150  2.0585 -1.0423
 3460TIP3    H231872   2.395   2.416  14.243  2.0283  0.1120 -0.1403
 3461TIP3   OH231873   3.539   3.927  10.894  0.3191 -0.2601  0.0524
 3461TIP3    H131874   3.611   3.954  10.837  0.1819  0.7883  0.3499
 3461TIP3    H231875   3.559   3.836  10.915  0.4111 -0.6593 -1.5913
 3462TIP3   OH231876   4.450   4.408   2.188 -0.7534  0.3545  0.1739
 3462TIP3    H131877   4.473   4.345   2.120  0.7504 -0.2921  1.2319
 3462TIP3    H231878   4.528   4.462   2.199 -0.4766 -0.3549  2.2149
 3463TIP3   OH231879   0.212   2.477   3.382  0.6540 -0.5788 -0.4239
 3463TIP3    H131880   0.246   2.388   3.375 -0.6054 -1.2153  0.9993
 3463TIP3    H231881   0.121   2.470   3.352  0.5628  0.2515 -0.3576
 3464TIP3   OH231882   0.309   3.740  15.668  0.6713  0.3428 -0.7538
 3464TIP3    H131883   0.394   3.700  15.686  0.0619 -0.4188  0.5207
 3464TIP3    H231884   0.282   3.701  15.585  1.6810  0.7984 -1.3108
 3465TIP3   OH231885   2.356   0.647   0.795  0.3400 -0.1070  0.1310
 3465TIP3    H131886   2.320   0.618   0.711  0.7181  0.2275 -0.1532
 3465TIP3    H231887   2.430   0.589   0.811  1.5328  1.0925 -0.7835
 3466TIP3   OH231888   2.360   3.099  12.096  0.3510  0.9203  0.2661
 3466TIP3    H131889   2.410   3.066  12.170 -0.1186 -0.0174  0.1712
 3466TIP3    H231890   2.269   3.078  12.116  0.2598  0.2585 -0.7749
 3467TIP3   OH231891   2.408   1.155  16.582  0.0321  0.7445 -0.4291
 3467TIP3    H131892   2.388   1.088  16.517  0.3358  1.0332 -0.8356
 3467TIP3    H231893   2.360   1.129  16.660  2.0438 -1.2867  0.2387
 3468TIP3   OH231894   1.644   6.094  13.916 -0.9181  0.2780  0.5180
 3468TIP3    H131895   1.635   6.127  13.827  0.1959 -0.5006  0.1009
 3468TIP3    H231896   1.598   6.010  13.916  2.3324 -1.6770 -0.4815
 3469TIP3   OH231897   1.324   4.618   5.288  0.3931 -0.2032 -0.1334
 3469TIP3    H131898   1.332   4.696   5.233  1.7570 -0.7089 -0.6895
 3469TIP3    H231899   1.234   4.621   5.320  0.3972  1.5629 -0.1851
 3470TIP3   OH231900   3.378   2.264  11.530  0.0066 -0.2175  0.6341
 3470TIP3    H131901   3.436   2.323  11.481 -0.8058  0.3114  0.2719
 3470TIP3    H231902   3.435   2.219  11.591  1.0048 -0.6541 -0.5837
 3471TIP3   OH231903   5.456   3.053  11.236  0.0812 -0.2347 -0.4463
 3471TIP3    H131904   5.437   3.139  11.199  0.2502 -0.9246 -2.2008
 3471TIP3    H231905   5.375   3.029  11.282 -0.3537  0.4049 -0.8583
 3472TIP3   OH231906   2.374   0.146   3.436  0.1883 -0.3598 -0.7273
 3472TIP3    H131907   2.466   0.154   3.464  0.5263 -1.5425 -1.4226
 3472TIP3    H231908   2.324   0.145   3.517  0.6035  1.9996 -0.3657
 3473TIP3   OH231909   4.325   3.095  13.818  0.2242 -0.4587 -0.3161
 3473TIP3    H131910   4.268   3.050  13.881 -1.2322  1.4431 -0.1989
 3473TIP3    H231911   4.410   3.100  13.862 -0.6941  0.5884  1.4480
 3474TIP3   OH231912   6.758   2.905  16.122  0.0917 -0.9616  0.4140
 3474TIP3    H131913   6.777   2.881  16.213  1.5427  1.4615  0.8279
 3474TIP3    H231914   6.794   2.993  16.112 -1.1161 -0.6675 -2.1835
 3475TIP3   OH231915   0.529   5.162   4.256 -0.0032 -0.6803 -0.0654
 3475TIP3    H131916   0.477   5.138   4.179 -0.4399 -0.2396  0.0895
 3475TIP3    H231917   0.571   5.245   4.232  0.6161 -1.0166 -0.1790
 3476TIP3   OH231918   1.188   2.543  17.118  0.0346  0.4240  0.4415
 3476TIP3    H131919   1.178   2.553  17.213  1.5032 -0.1643  0.6828
 3476TIP3    H231920   1.245   2.467  17.108  2.1063  2.0399 -0.8155
 3477TIP3   OH231921   0.830   0.104  15.062  0.5083 -0.1110  0.1648
 3477TIP3    H131922   0.925   0.114  15.067  0.3788  1.2180  0.1219
 3477TIP3    H231923   0.796   0.155  15.136 -0.1777 -0.7737  0.3308
 3478TIP3   OH231924   4.636   6.399   5.924 -0.2313  0.1067 -0.2925
 3478TIP3    H131925   4.598   6.405   6.011  0.0116  0.6446 -0.2229
 3478TIP3    H231926   4.567   6.432   5.866  0.8722  3.2196  0.0310
 3479TIP3   OH231927   6.743   4.586  16.854  0.4584  0.3289  0.8222
 3479TIP3    H131928   6.823   4.574  16.905  0.4129 -1.5411  0.5342
 3479TIP3    H231929   6.691   4.508  16.872  0.4432 -0.4428 -2.0442
 3480TIP3   OH231930   2.355   1.948   2.017 -0.1516  0.1706  0.1842
 3480TIP3    H131931   2.269   1.947   2.060  0.7734  0.1472  2.1333
 3480TIP3    H231932   2.374   2.041   2.005 -0.4040  0.1768 -0.2140
 3481TIP3   OH231933   1.097   2.560  11.668 -0.1130 -0.2989  0.2373
 3481TIP3    H131934   1.178   2.516  11.646 -0.5955 -0.5270 -1.1647
 3481TIP3    H231935   1.047   2.495  11.718  0.7805  0.0526  1.6557
 3482TIP3   OH231936   3.407   6.705  15.869  0.6656  0.5971  0.3227
 3482TIP3    H131937   3.351   6.639  15.829  1.4185 -0.2676  0.6810
 3482TIP3    H231938   3.350   6.782  15.876 -1.1757 -0.8343  2.6336
 3483TIP3   OH231939   0.859   4.949   3.737 -0.4703  0.0257 -0.0166
 3483TIP3    H131940   0.858   5.045   3.728  0.4928 -0.0805 -1.4754
 3483TIP3    H231941   0.766   4.925   3.739 -0.7282  0.9372 -0.2862
 3484TIP3   OH231942   0.409   4.219   3.906  0.3341 -0.1314 -0.2169
 3484TIP3    H131943   0.444   4.270   3.833  0.9355 -1.0589 -0.5960
 3484TIP3    H231944   0.351   4.155   3.865  1.5632 -1.4038 -0.0192
 3485TIP3   OH231945   2.092   4.147   2.401  0.4914 -0.4572  0.0321
 3485TIP3    H131946   2.134   4.071   2.443 -2.3942 -1.6248  1.0444
 3485TIP3    H231947   2.060   4.114   2.317  0.6404  0.1146 -0.2542
 3486TIP3   OH231948   2.116   2.041   2.577 -0.2340 -0.0280  0.5626
 3486TIP3    H131949   2.178   1.993   2.523 -1.5250 -1.0851 -0.0088
 3486TIP3    H231950   2.143   2.021   2.667 -0.1192 -0.9747  0.3266
 3487TIP3   OH231951   3.444   3.911   6.190  0.5307  0.5144 -0.0629
 3487TIP3    H131952   3.472   3.825   6.221 -2.7558 -0.6871 -0.0435
 3487TIP3    H231953   3.419   3.958   6.270  1.1121  1.0512 -0.1855
 3488TIP3   OH231954   1.910   3.806  15.092 -0.0667  0.5955  0.3092
 3488TIP3    H131955   1.902   3.812  15.187 -1.2554  0.7656  0.2112
 3488TIP3    H231956   1.937   3.894  15.065 -1.2900  1.0009  0.3573
 3489TIP3   OH231957   2.131   3.077  11.036  0.1843  0.5811 -0.1293
 3489TIP3    H131958   2.066   3.039  10.976 -1.9938 -0.3716  2.6048
 3489TIP3    H231959   2.188   3.004  11.059 -0.9732  0.0830  1.3314
 3490TIP3   OH231960   0.938   3.957   3.083 -0.8389  0.2799  0.3690
 3490TIP3    H131961   1.012   3.932   3.139 -0.8173  0.8421  0.5889
 3490TIP3    H231962   0.861   3.944   3.138 -0.8015  1.0583  0.6149
 3491TIP3   OH231963   4.181   2.314  10.628 -0.1731 -0.2086 -0.7513
 3491TIP3    H131964   4.251   2.313  10.563  0.2146 -0.4511 -0.3375
 3491TIP3    H231965   4.218   2.362  10.703 -0.4749 -0.2706 -0.5600
 3492TIP3   OH231966   0.974   4.773  14.212  0.5629 -0.3858  0.0526
 3492TIP3    H131967   1.048   4.814  14.258 -0.7070  0.6287  1.3110
 3492TIP3    H231968   0.922   4.847  14.180  0.9936 -1.0739 -2.4347
 3493TIP3   OH231969   4.284   2.107  14.105 -0.0343  0.0167 -0.4186
 3493TIP3    H131970   4.286   2.198  14.076 -1.0839 -0.4621 -2.0810
 3493TIP3    H231971   4.336   2.107  14.185 -0.5692  2.1985 -0.0105
 3494TIP3   OH231972   1.421   1.384   6.604 -0.2713 -0.3944  0.1394
 3494TIP3    H131973   1.392   1.296   6.626 -1.7450 -0.6207 -2.3294
 3494TIP3    H231974   1.476   1.373   6.527 -2.6538  0.9555 -1.9003
 3495TIP3   OH231975   2.987   5.318  13.253 -0.1704  0.0050 -0.0600
 3495TIP3    H131976   3.034   5.328  13.335 -0.0272  0.0114 -0.1414
 3495TIP3    H231977   3.053   5.332  13.185 -0.3152  0.1345 -0.1763
 3496TIP3   OH231978   4.770   1.202  12.872  0.0621  0.4315  0.0737
 3496TIP3    H131979   4.692   1.254  12.891  0.4851  1.4148 -0.7892
 3496TIP3    H231980   4.809   1.186  12.957 -1.1345 -0.1818  0.5329
 3497TIP3   OH231981   5.870   5.598  14.663  0.3394 -0.1485 -0.1300
 3497TIP3    H131982   5.958   5.574  14.691  0.4064  0.5587  0.2831
 3497TIP3    H231983   5.831   5.515  14.634  0.1884 -0.9874  2.2333
 3498TIP3   OH231984   0.909   4.294   4.355 -0.3336  0.1440 -0.2370
 3498TIP3    H131985   0.883   4.371   4.405 -2.9575 -1.3593  0.9410
 3498TIP3    H231986   0.836   4.279   4.295  0.6022 -0.8481 -1.1729
 3499TIP3   OH231987   4.508   4.306   5.066 -0.1010 -0.4036 -0.1498
 3499TIP3    H131988   4.570   4.351   5.008  0.4425 -0.2581  0.5374
 3499TIP3    H231989   4.434   4.285   5.009  0.2279  0.1403 -0.8002
 3500TIP3   OH231990   3.510   1.625  16.374  0.5754  0.0290  0.9184
 3500TIP3    H131991   3.544   1.677  16.446  1.5585 -0.5977  0.9256
 3500TIP3    H231992   3.586   1.610  16.317 -0.2943  1.0283 -0.5763
 3501TIP3   OH231993   2.372   2.856   3.957 -0.4581  0.3538  0.1530
 3501TIP3    H131994   2.398   2.901   4.037 -0.9604  1.2220 -0.1600
 3501TIP3    H231995   2.455   2.836   3.912 -0.1811 -0.0964  0.8557
 3502TIP3   OH231996   0.324   1.813  15.336  0.4103 -0.3179 -0.2112
 3502TIP3    H131997   0.302   1.721  15.328 -1.9854  0.0466  1.3143
 3502TIP3    H231998   0.333   1.844  15.246  2.1930 -2.1829 -0.7426
 3503TIP3   OH231999   0.706   5.191   2.074 -0.3037 -0.6894  0.0727
 3503TIP3    H132000   0.632   5.170   2.016  0.3584 -1.1789 -0.6125
 3503TIP3    H232001   0.726   5.282   2.055 -0.0462 -0.8668 -0.5371
 3504TIP3   OH232002   0.459   5.852   4.615  0.4557 -0.1115 -0.4737
 3504TIP3    H132003   0.503   5.782   4.663 -0.8461 -1.3817 -1.0800
 3504TIP3    H232004   0.508   5.860   4.533  1.6644  0.9284  0.3001
 3505TIP3   OH232005   4.246   5.403  14.194 -0.1049  0.3153 -0.0163
 3505TIP3    H132006   4.230   5.357  14.276  0.7922  1.6300  0.9461
 3505TIP3    H232007   4.212   5.491  14.210  2.0972  1.2725 -0.1785
 3506TIP3   OH232008   6.161   4.380   1.451 -0.2125  0.7390 -0.1439
 3506TIP3    H132009   6.228   4.381   1.383 -0.7021  1.8313 -0.6398
 3506TIP3    H232010   6.085   4.339   1.411  0.4990 -1.6882  0.8172
 3507TIP3   OH232011   0.772   1.283  13.203  0.6387 -0.3419 -0.1426
 3507TIP3    H132012   0.820   1.352  13.158 -0.1410  0.4128  0.1526
 3507TIP3    H232013   0.829   1.254  13.273  0.5064  0.8295  0.4611
 3508TIP3   OH232014   3.549   1.712   5.506 -0.2747  0.3067 -0.1242
 3508TIP3    H132015   3.595   1.640   5.464  0.4074  0.1109  0.9260
 3508TIP3    H232016   3.598   1.790   5.480  1.4106  0.0018  1.8815
 3509TIP3   OH232017   0.683   1.734   3.002 -0.4363 -0.1656 -0.5404
 3509TIP3    H132018   0.607   1.792   2.993 -0.5774 -0.2343  0.1651
 3509TIP3    H232019   0.757   1.793   3.013 -0.1819 -0.0599 -2.5141
 3510TIP3   OH232020   1.106   4.359   0.162  0.1410  0.3738 -0.0064
 3510TIP3    H132021   1.195   4.371   0.131  0.0664 -1.2296 -0.9426
 3510TIP3    H232022   1.060   4.438   0.133  0.8117  0.3271 -1.2711
 3511TIP3   OH232023   3.610   3.839   6.503 -0.3955 -0.4489 -0.1652
 3511TIP3    H132024   3.517   3.831   6.525 -0.1958 -2.0836  0.2300
 3511TIP3    H232025   3.617   3.804   6.414 -0.2250  0.0629 -0.3536
 3512TIP3   OH232026   0.601   3.417   6.884  0.7807  0.0521  0.1641
 3512TIP3    H132027   0.554   3.372   6.954  1.9508 -0.1204  0.8567
 3512TIP3    H232028   0.554   3.393   6.804 -1.6168  1.5739  0.9915
 3513TIP3   OH232029   3.773   1.514  13.439  0.3478  0.0646 -0.5353
 3513TIP3    H132030   3.685   1.552  13.436  0.1971 -0.1931  0.4105
 3513TIP3    H232031   3.786   1.490  13.531  1.5174  0.3547 -0.6054
 3514TIP3   OH232032   3.220   1.417   6.504  0.1199 -0.3496  0.5989
 3514TIP3    H132033   3.139   1.404   6.554  0.3322  0.4287  1.1537
 3514TIP3    H232034   3.212   1.356   6.430 -0.8606 -0.4521  0.7760
 3515TIP3   OH232035   0.381   4.935  10.569  0.5088 -0.1335  0.0837
 3515TIP3    H132036   0.473   4.952  10.588  1.0842 -3.1239  0.4597
 3515TIP3    H232037   0.366   4.976  10.484  2.3133  0.0247 -0.1988
 3516TIP3   OH232038   0.573   0.440  16.052  0.6227 -0.0917 -0.5764
 3516TIP3    H132039   0.524   0.357  16.053 -1.1047  0.8670  0.7024
 3516TIP3    H232040   0.646   0.425  16.112  0.3933 -0.7380 -0.4461
 3517TIP3   OH232041   0.559   1.950   5.423 -0.2964  0.4572  0.6573
 3517TIP3    H132042   0.616   1.875   5.436  0.7240  1.1207  0.1042
 3517TIP3    H232043   0.617   2.020   5.395 -1.4164  1.0722 -0.2187
 3518TIP3   OH232044   5.196   2.228   6.119 -0.4590 -0.1888  0.4771
 3518TIP3    H132045   5.195   2.143   6.075  1.7744  0.3705 -0.8655
 3518TIP3    H232046   5.235   2.211   6.204  1.5246 -0.3562 -0.3967
 3519TIP3   OH232047   3.591   5.100   5.943  0.0249 -0.7854  0.5089
 3519TIP3    H132048   3.581   5.189   5.910 -2.3041 -0.6283  1.4287
 3519TIP3    H232049   3.550   5.102   6.030  0.0994 -2.6990  0.6337
 3520TIP3   OH232050   6.433   5.096   3.812  0.3782  0.6638  0.3777
 3520TIP3    H132051   6.382   5.078   3.891 -0.1169 -1.2243 -0.3225
 3520TIP3    H232052   6.384   5.166   3.768  0.6040  1.6675  1.6511
 3521TIP3   OH232053   3.425   4.672   2.520 -0.2109 -0.3982 -0.5667
 3521TIP3    H132054   3.348   4.726   2.538  0.1662 -0.3459  1.1177
 3521TIP3    H232055   3.497   4.735   2.512 -0.5572 -0.2874 -4.0237
 3522TIP3   OH232056   0.417   4.633  11.960  0.0138  0.6123 -0.0426
 3522TIP3    H132057   0.465   4.623  11.878 -0.4857  0.3024 -0.3044
 3522TIP3    H232058   0.342   4.575  11.951  0.8035 -0.7109  1.2931
 3523TIP3   OH232059   1.541   1.138   1.200  0.1275 -0.4713  0.3803
 3523TIP3    H132060   1.472   1.074   1.182  1.1486 -1.2508 -1.0121
 3523TIP3    H232061   1.592   1.141   1.119  0.7776  1.2953  0.8095
 3524TIP3   OH232062   0.434   2.241  14.404  0.3953 -0.7197  0.3338
 3524TIP3    H132063   0.418   2.194  14.322  1.7359 -2.6112  1.0824
 3524TIP3    H232064   0.441   2.172  14.470  1.2592  0.6246  1.7070
 3525TIP3   OH232065   5.860   6.558  15.331 -0.3234  0.1826  0.3806
 3525TIP3    H132066   5.927   6.502  15.291 -0.7248  0.1659 -0.2725
 3525TIP3    H232067   5.782   6.503  15.334 -0.4527  0.3806  0.6596
 3526TIP3   OH232068   1.084   1.554  15.203 -0.1230 -0.1926  0.0717
 3526TIP3    H132069   1.055   1.621  15.141 -0.8131 -0.4529  0.1089
 3526TIP3    H232070   1.032   1.477  15.181  0.3369 -0.5800  0.3337
 3527TIP3   OH232071   1.612   1.965  15.639 -0.0675 -0.2726  0.0519
 3527TIP3    H132072   1.704   1.993  15.633  0.1478 -0.9343  0.0750
 3527TIP3    H232073   1.568   2.036  15.685  0.6087 -0.3119  0.7996
 3528TIP3   OH232074   1.475   2.159   0.084 -0.7039  0.5119  0.0818
 3528TIP3    H132075   1.500   2.070   0.060 -1.0531  0.4370 -0.0088
 3528TIP3    H232076   1.553   2.195   0.127 -0.9024 -0.1933  1.0670
 3529TIP3   OH232077   3.675   4.572  17.135  1.0311  0.3966  0.3874
 3529TIP3    H132078   3.611   4.511  17.170  0.2309  1.9701  1.7994
 3529TIP3    H232079   3.657   4.575  17.041 -0.2439 -0.0134  0.6028
 3530TIP3   OH232080   2.219   4.024   5.160 -0.0287 -0.4800  0.3652
 3530TIP3    H132081   2.222   3.977   5.243 -0.1302 -0.5777  0.3137
 3530TIP3    H232082   2.305   4.064   5.152 -0.7187  1.3534  1.5696
 3531TIP3   OH232083   2.118   0.256  12.033 -0.1974  0.1726 -0.2921
 3531TIP3    H132084   2.088   0.344  12.055 -0.3246  0.1161 -0.2394
 3531TIP3    H232085   2.184   0.270  11.965 -1.5239  0.1936 -1.6276
 3532TIP3   OH232086   5.801   1.109   4.108  0.3146 -0.2314 -0.1038
 3532TIP3    H132087   5.833   1.053   4.179  0.8946 -2.5533 -2.0699
 3532TIP3    H232088   5.727   1.156   4.146  1.3296 -0.4688  2.3605
 3533TIP3   OH232089   0.240   5.187  13.173 -0.4477  0.5572  0.5101
 3533TIP3    H132090   0.155   5.154  13.146 -1.0583  3.1837 -1.1861
 3533TIP3    H232091   0.302   5.145  13.114 -0.7055 -0.2983  0.8283
 3534TIP3   OH232092   1.888   4.627  15.760 -0.4898 -0.4856  0.7526
 3534TIP3    H132093   1.980   4.602  15.751 -0.3621  0.2078  0.0004
 3534TIP3    H232094   1.840   4.553  15.725 -0.1761 -0.4644  0.2597
 3535TIP3   OH232095   2.804   5.913  17.196 -0.3352 -0.4412 -0.2253
 3535TIP3    H132096   2.814   5.820  17.176 -2.6971 -0.7750 -0.0768
 3535TIP3    H232097   2.766   5.915  17.284  1.9373  0.7756  0.8237
 3536TIP3   OH232098   5.736   0.880  16.124 -0.2818 -0.2460 -0.2548
 3536TIP3    H132099   5.645   0.877  16.155  0.1500 -0.9479  1.0149
 3536TIP3    H232100   5.729   0.881  16.029 -1.6209 -1.0029 -0.1860
 3537TIP3   OH232101   2.190   2.210   1.694 -0.5627  0.0443 -0.2317
 3537TIP3    H132102   2.240   2.286   1.666  0.3465 -1.1373 -2.0270
 3537TIP3    H232103   2.130   2.193   1.621 -1.1241 -0.6382  0.3726
 3538TIP3   OH232104   2.488   0.714   5.016 -0.3236 -0.4022  0.7263
 3538TIP3    H132105   2.474   0.662   5.095  0.8866 -0.3219  1.0129
 3538TIP3    H232106   2.427   0.677   4.952 -0.7964 -0.9479  1.4698
 3539TIP3   OH232107   3.251   0.188   1.657 -0.2298 -0.4203 -0.0109
 3539TIP3    H132108   3.194   0.253   1.698  0.0397  0.5017 -1.0410
 3539TIP3    H232109   3.300   0.150   1.729  1.1939  2.0654  0.4570
 3540TIP3   OH232110   1.878   2.265   3.147  0.4343 -0.0360 -0.3697
 3540TIP3    H132111   1.959   2.216   3.139 -0.4718 -1.3216 -2.7455
 3540TIP3    H232112   1.905   2.357   3.143  1.8197 -0.4187 -0.3152
 3541TIP3   OH232113   3.331   3.450  16.198  0.3543 -1.0528  0.2864
 3541TIP3    H132114   3.375   3.453  16.113  0.2723  0.1810  0.2776
 3541TIP3    H232115   3.273   3.526  16.199  2.1327  0.4451  2.3792
 3542TIP3   OH232116   5.731   0.936  17.086 -0.2330  0.0744 -0.2820
 3542TIP3    H132117   5.817   0.928  17.045 -0.4752  0.5649 -0.8958
 3542TIP3    H232118   5.695   0.847  17.082  0.3180 -0.1783  0.1596
 3543TIP3   OH232119   1.835   0.776  10.644  0.2223  0.4601  0.8873
 3543TIP3    H132120   1.841   0.862  10.687  1.6179  0.2334  1.2068
 3543TIP3    H232121   1.745   0.771  10.613 -0.3189  1.4009  2.2127
 3544TIP3   OH232122   2.047   4.307  14.162  0.1079 -0.1714  0.1199
 3544TIP3    H132123   1.994   4.234  14.130 -0.3932  0.0090  0.5207
 3544TIP3    H232124   2.045   4.298  14.257 -2.6034  2.1016  0.4410
 3545TIP3   OH232125   4.781   0.475   3.283  0.7161 -0.5729  0.4972
 3545TIP3    H132126   4.765   0.566   3.307 -0.3874 -0.4426 -0.5940
 3545TIP3    H232127   4.772   0.426   3.365 -1.1000  0.0370  0.7068
 3546TIP3   OH232128   3.133   5.908   0.897 -0.4478  0.0792  0.3116
 3546TIP3    H132129   3.110   5.979   0.837  0.4739  0.3839  0.3030
 3546TIP3    H232130   3.183   5.846   0.843  2.8941  1.6938  1.2859
 3547TIP3   OH232131   1.717   4.541  15.375 -0.1005 -0.4277 -0.0578
 3547TIP3    H132132   1.629   4.543  15.337 -0.4440  1.5463  0.7408
 3547TIP3    H232133   1.758   4.621  15.344  1.3931 -1.2513 -0.2907
 3548TIP3   OH232134   3.794   3.357   2.906 -0.2760 -0.3144 -0.1375
 3548TIP3    H132135   3.740   3.401   2.972 -0.7377 -1.1123  0.0347
 3548TIP3    H232136   3.808   3.424   2.838 -1.6735 -0.1392 -0.2854
 3549TIP3   OH232137   4.936   4.025  13.820  0.4405 -0.2387  0.0143
 3549TIP3    H132138   4.942   3.934  13.848  0.4854 -0.1614  0.2566
 3549TIP3    H232139   4.851   4.031  13.776  1.0718 -0.7645 -1.3529
 3550TIP3   OH232140   3.970   4.541   4.535  0.3068  0.5930  0.8159
 3550TIP3    H132141   3.895   4.510   4.585 -0.0973  0.5852  0.2001
 3550TIP3    H232142   4.020   4.593   4.599  1.1103 -1.4159  1.9284
 3551TIP3   OH232143   1.242   3.636  13.306  0.6159 -0.1350 -0.8262
 3551TIP3    H132144   1.320   3.606  13.353  0.2385  0.7809  0.4316
 3551TIP3    H232145   1.182   3.666  13.375 -0.0183  1.1045 -1.8793
 3552TIP3   OH232146   0.101   5.289  11.667  0.0526  0.4816  0.0351
 3552TIP3    H132147   0.042   5.287  11.742  0.8199 -0.5808  0.6369
 3552TIP3    H232148   0.139   5.201  11.664  2.7800  1.5281  0.6594
 3553TIP3   OH232149   0.784   5.228   0.766 -0.3746  0.2194 -0.4819
 3553TIP3    H132150   0.819   5.187   0.845 -1.3383  0.4488  0.0840
 3553TIP3    H232151   0.732   5.159   0.724  0.5262 -0.0450 -1.1783
 3554TIP3   OH232152   1.818   3.419  16.673  0.7018 -0.1882 -0.2185
 3554TIP3    H132153   1.742   3.473  16.653  1.2593  0.3769 -0.8662
 3554TIP3    H232154   1.892   3.479  16.669  1.2410 -0.8259 -0.0978
 3555TIP3   OH232155   0.305   5.989   3.904 -0.2360  0.2222  0.6254
 3555TIP3    H132156   0.239   5.994   3.974 -2.0965 -0.4810 -0.9945
 3555TIP3    H232157   0.383   5.953   3.947 -1.2099  0.1241  2.3964
 3556TIP3   OH232158   1.104   2.023  11.455  0.9268  0.1104 -0.0973
 3556TIP3    H132159   1.162   1.964  11.408  0.2334 -1.3638  0.8041
 3556TIP3    H232160   1.070   1.970  11.527 -2.5160  0.4333 -1.2908
 3557TIP3   OH232161   4.077   5.348   0.258  0.2058 -0.3971 -0.0851
 3557TIP3    H132162   4.072   5.285   0.186  0.3816  0.8030 -1.1827
 3557TIP3    H232163   3.994   5.338   0.305 -1.0157  0.4723 -1.9409
 3558TIP3   OH232164   1.084   3.696   3.625  0.3322 -0.6951 -0.0796
 3558TIP3    H132165   1.092   3.756   3.699  0.8555 -1.7136  0.7129
 3558TIP3    H232166   1.048   3.616   3.663  0.5180 -1.1998 -0.9445
 3559TIP3   OH232167   5.117   5.604  12.204 -0.2659 -0.0544 -0.2699
 3559TIP3    H132168   5.205   5.628  12.232  0.1257 -2.5577  0.9539
 3559TIP3    H232169   5.059   5.651  12.264  0.3652 -0.5919  0.7814
 3560TIP3   OH232170   2.319   6.452  11.504 -0.7312  0.4968  0.0217
 3560TIP3    H132171   2.378   6.527  11.492 -0.9058  0.7427  0.6588
 3560TIP3    H232172   2.234   6.492  11.522 -0.6089  0.1584  1.4603
 3561TIP3   OH232173   5.773   5.791   5.381 -0.1407 -0.1039  0.2952
 3561TIP3    H132174   5.748   5.735   5.307  1.7778 -1.4033  0.5510
 3561TIP3    H232175   5.853   5.835   5.352 -0.2658  0.6384  1.0255
 3562TIP3   OH232176   3.183   6.069  11.458  0.4387  0.4118 -0.2767
 3562TIP3    H132177   3.216   5.980  11.442 -2.1260 -0.2489 -2.7746
 3562TIP3    H232178   3.259   6.126  11.444  2.0942 -1.2930  1.1525
 3563TIP3   OH232179   5.343   1.819  14.700 -0.0335  0.2576  0.3368
 3563TIP3    H132180   5.401   1.743  14.693  0.7159  0.5694  2.4471
 3563TIP3    H232181   5.395   1.884  14.747 -2.4272  0.1451  3.4067
 3564TIP3   OH232182   0.385   4.146   9.990  0.1820 -0.1624 -0.7700
 3564TIP3    H132183   0.303   4.117  10.031  0.6773  0.1529  0.4669
 3564TIP3    H232184   0.361   4.224   9.941  0.0182  0.8922  0.9095
 3565TIP3   OH232185   5.782   3.498  16.327 -0.2642 -0.3785  0.5353
 3565TIP3    H132186   5.775   3.581  16.376  3.1780  1.0438 -1.0402
 3565TIP3    H232187   5.719   3.507  16.256  0.3471  1.1544  0.1386
 3566TIP3   OH232188   4.063   5.689   4.001 -0.0865  0.0194  0.3302
 3566TIP3    H132189   4.067   5.785   3.997 -2.0082  0.0969 -1.8004
 3566TIP3    H232190   4.031   5.663   3.915  1.9771 -2.6985  0.2398
 3567TIP3   OH232191   4.613   2.234  15.280 -0.4322  0.2136  0.0533
 3567TIP3    H132192   4.595   2.164  15.217  2.0195  0.6014 -1.1964
 3567TIP3    H232193   4.580   2.313  15.237 -1.1920  0.1307  0.4743
 3568TIP3   OH232194   3.245   6.453   0.344  0.3059  0.2860 -0.3361
 3568TIP3    H132195   3.150   6.460   0.356  0.2912  0.3408 -0.4780
 3568TIP3    H232196   3.258   6.467   0.250  0.3853 -0.4609 -0.4457
 3569TIP3   OH232197   4.884   0.010  14.277 -0.1172 -0.7078  0.2042
 3569TIP3    H132198   4.794  -0.009  14.252  0.5948 -1.8091 -1.7348
 3569TIP3    H232199   4.901   0.097  14.241  0.5126 -1.7827 -2.3295
 3570TIP3   OH232200   1.795   1.460   0.902  0.3592 -0.0302  0.2217
 3570TIP3    H132201   1.722   1.490   0.849 -0.5163 -1.4890  0.5412
 3570TIP3    H232202   1.870   1.460   0.842 -0.0838  0.6762 -0.3369
 3571TIP3   OH232203   4.245   0.054   3.043  0.6513 -0.3044 -0.2194
 3571TIP3    H132204   4.197   0.078   2.964  0.8097 -2.6405 -1.1092
 3571TIP3    H232205   4.252   0.135   3.093 -0.0873  1.0839 -2.2534
 3572TIP3   OH232206   4.482   3.889  13.468 -0.0884  0.2163  0.2070
 3572TIP3    H132207   4.524   3.860  13.549 -0.6583  1.7368  1.0916
 3572TIP3    H232208   4.390   3.904  13.492 -0.3564  0.3333 -0.8206
 3573TIP3   OH232209   3.903   0.850  13.182 -0.1464  0.3265  0.0934
 3573TIP3    H132210   3.849   0.825  13.107 -0.3885 -0.5693  0.5488
 3573TIP3    H232211   3.865   0.933  13.212 -0.9087  0.0077  0.0456
 3574TIP3   OH232212   5.745   0.858  16.405 -0.2152  0.6690 -0.3853
 3574TIP3    H132213   5.739   0.870  16.311  0.9030 -0.9676 -0.6980
 3574TIP3    H232214   5.689   0.783  16.424 -0.1719  0.7765  0.2178
 3575TIP3   OH232215   1.439   6.064  16.573 -0.1289  0.4826 -0.3714
 3575TIP3    H132216   1.435   6.016  16.655  2.6371 -0.1813 -0.5436
 3575TIP3    H232217   1.514   6.027  16.527 -0.7872  1.7632 -2.6293
 3576TIP3   OH232218   4.091   3.730   5.782  0.1673 -0.5861 -0.1379
 3576TIP3    H132219   4.057   3.808   5.826  2.8919  0.5556  0.1233
 3576TIP3    H232220   4.110   3.669   5.853 -2.4297 -1.8072 -0.3707
 3577TIP3   OH232221   5.522   0.571  13.605  0.7242  0.4438  0.0692
 3577TIP3    H132222   5.521   0.652  13.657 -0.2853  1.4009 -1.3586
 3577TIP3    H232223   5.494   0.504  13.667 -0.4980  1.5560  0.7899
 3578TIP3   OH232224   6.161   1.170  16.489  0.4744 -0.2216 -0.1553
 3578TIP3    H132225   6.097   1.239  16.469  0.6228 -0.2268 -0.6840
 3578TIP3    H232226   6.107   1.092  16.504  0.2006  0.3425  2.0949
 3579TIP3   OH232227   0.117   5.693   2.696  0.6618  0.9344 -0.2976
 3579TIP3    H132228   0.210   5.681   2.716  0.4673 -0.1732 -0.0042
 3579TIP3    H232229   0.115   5.713   2.602  1.0297 -1.9478 -1.0006
 3580TIP3   OH232230   4.354   0.224   5.996  0.0268 -0.1135 -0.6257
 3580TIP3    H132231   4.423   0.272   5.950  0.9938 -1.1106 -0.2519
 3580TIP3    H232232   4.397   0.144   6.027 -1.3343 -0.8189 -0.4976
 3581TIP3   OH232233   5.860   2.320  16.879  0.7281  0.3907 -0.2839
 3581TIP3    H132234   5.773   2.306  16.918  1.8861 -4.4875  1.3261
 3581TIP3    H232235   5.848   2.298  16.787  0.3304 -1.0940  0.0944
 3582TIP3   OH232236   6.444   1.109  14.460  0.4091  0.1227  0.6892
 3582TIP3    H132237   6.531   1.122  14.422 -0.8191 -0.4057 -2.6610
 3582TIP3    H232238   6.395   1.186  14.433 -0.4698 -0.1241  1.5539
 3583TIP3   OH232239   5.544   4.301  13.605  0.4050  0.0864  0.7855
 3583TIP3    H132240   5.636   4.285  13.627  0.8555  2.4997  0.9629
 3583TIP3    H232241   5.543   4.308  13.510  0.2448 -0.6302  0.7252
 3584TIP3   OH232242   0.328   1.101   3.003 -0.0739  0.0905 -0.9377
 3584TIP3    H132243   0.283   1.123   2.922  0.0564  0.2539 -0.9654
 3584TIP3    H232244   0.420   1.117   2.985 -0.0489  0.1788 -0.7421
 3585TIP3   OH232245   1.837   1.386  15.604 -0.2531 -0.0182 -0.2064
 3585TIP3    H132246   1.842   1.428  15.518  0.5661  1.4617  0.5259
 3585TIP3    H232247   1.843   1.292  15.585  3.0145  0.3157 -1.6322
 3586TIP3   OH232248   3.410   1.688  17.085 -0.0136 -0.1984 -0.5686
 3586TIP3    H132249   3.490   1.722  17.126  0.0124  0.3065 -1.0187
 3586TIP3    H232250   3.348   1.681  17.157 -0.3920  1.9717 -0.6095
 3587TIP3   OH232251   3.413   3.154  11.438 -0.0643 -0.4052  0.5486
 3587TIP3    H132252   3.357   3.179  11.511  1.0356 -1.0696  1.6485
 3587TIP3    H232253   3.480   3.223  11.435 -2.4273  2.0800 -2.6244
 3588TIP3   OH232254   2.684   6.051   0.905  0.0643 -0.0429 -0.3756
 3588TIP3    H132255   2.619   5.988   0.934  0.8791 -0.5238  0.4692
 3588TIP3    H232256   2.751   5.999   0.861  0.1848  0.3679 -0.6875
 3589TIP3   OH232257   3.181   0.563  11.763 -0.1734 -0.0489 -0.0113
 3589TIP3    H132258   3.164   0.474  11.794 -0.0493 -0.5134 -1.1929
 3589TIP3    H232259   3.175   0.556  11.667  0.3636  1.1086 -0.1463
 3590TIP3   OH232260   1.252   0.098  15.445  0.0586 -0.1888  0.6712
 3590TIP3    H132261   1.209   0.137  15.369  2.0103  0.1368 -0.3459
 3590TIP3    H232262   1.247   0.003  15.429 -1.4443 -0.2296  1.2700
 3591TIP3   OH232263   6.472   2.933   2.791 -0.4612  0.2780 -0.3625
 3591TIP3    H132264   6.536   2.864   2.807  1.7061  1.5203 -2.7686
 3591TIP3    H232265   6.407   2.892   2.734 -1.1504 -0.6411  1.0279
 3592TIP3   OH232266   5.246   5.807  11.012  0.0168  0.0297 -1.4592
 3592TIP3    H132267   5.270   5.888  10.966  2.1263 -0.1452 -0.7507
 3592TIP3    H232268   5.235   5.834  11.103 -1.1168 -0.1865 -1.5132
 3593TIP3   OH232269   0.287   6.163   0.373  0.6806 -0.1221 -0.4569
 3593TIP3    H132270   0.271   6.246   0.328  1.0785  1.3815  1.9930
 3593TIP3    H232271   0.232   6.166   0.451 -0.3117 -2.8198 -0.9248
 3594TIP3   OH232272   6.007   5.811   5.753 -0.8689  0.0781 -0.3429
 3594TIP3    H132273   6.019   5.882   5.817 -0.8400  0.5517 -0.8656
 3594TIP3    H232274   5.941   5.845   5.693 -0.1673  0.0335 -1.1417
 3595TIP3   OH232275   4.417   1.489   1.598 -0.0797 -0.3264 -0.0367
 3595TIP3    H132276   4.405   1.409   1.548 -1.5291 -0.0559 -0.1530
 3595TIP3    H232277   4.366   1.476   1.678  0.1630  0.2472  0.2216
 3596TIP3   OH232278   0.257   5.935   2.227  0.1615 -0.0126  0.0440
 3596TIP3    H132279   0.178   5.880   2.229 -0.8796  1.3899 -0.9920
 3596TIP3    H232280   0.281   5.945   2.319 -0.1628 -1.4229  0.3088
 3597TIP3   OH232281   0.124   6.734   4.510  0.2082  0.2589  0.1062
 3597TIP3    H132282   0.208   6.777   4.524  0.2544 -0.1090  0.9985
 3597TIP3    H232283   0.131   6.695   4.423 -0.6325  3.8434 -1.7665
 3598TIP3   OH232284   2.657   6.822   0.027 -0.7089 -0.0890  0.3201
 3598TIP3    H132285   2.727   6.784   0.079 -2.0150 -1.4302  1.1923
 3598TIP3    H232286   2.629   6.899   0.076  0.6300  0.9072 -0.4302
 3599TIP3   OH232287   5.908   4.744   2.174 -0.2189 -0.4400  0.7576
 3599TIP3    H132288   5.963   4.798   2.231  0.3806  0.5681 -0.7156
 3599TIP3    H232289   5.954   4.661   2.168  0.7710  0.1343  0.1495
 3600TIP3   OH232290   5.895   0.494  14.914 -0.2672 -0.0561  0.6375
 3600TIP3    H132291   5.894   0.541  14.831  1.2343 -1.3900 -0.1834
 3600TIP3    H232292   5.862   0.407  14.893 -0.7630 -0.1328  1.6470
 3601TIP3   OH232293   1.915   1.837  13.647 -0.0855 -0.2633 -0.2013
 3601TIP3    H132294   1.964   1.762  13.613 -0.7382 -1.2201  0.9479
 3601TIP3    H232295   1.827   1.805  13.661  0.0804  0.1569  2.1531
 3602TIP3   OH232296   1.792   2.076  10.942  0.1560 -0.7589  0.0436
 3602TIP3    H132297   1.853   2.148  10.958  0.1088 -1.2566  2.9856
 3602TIP3    H232298   1.763   2.089  10.852  2.3895  1.1548 -0.4982
 3603TIP3   OH232299   4.720   6.217  12.210  0.0242 -0.8174  0.6405
 3603TIP3    H132300   4.760   6.268  12.281 -0.6132  1.9311 -0.8271
 3603TIP3    H232301   4.628   6.208  12.235 -0.0105 -0.6206  0.5872
 3604TIP3   OH232302   5.565   3.537   5.939  0.0344 -0.3944  0.2239
 3604TIP3    H132303   5.498   3.572   5.998 -1.2793  1.6048 -2.2439
 3604TIP3    H232304   5.546   3.443   5.935 -1.2532 -0.2076  1.2577
 3605TIP3   OH232305   4.969   6.246  15.542 -0.5419 -0.1866  0.4093
 3605TIP3    H132306   4.906   6.251  15.614  0.2542 -1.5962  1.2355
 3605TIP3    H232307   4.930   6.185  15.480  0.3939 -1.8242  1.3723
 3606TIP3   OH232308   0.244   4.979  16.304 -0.0671  0.8713  0.7255
 3606TIP3    H132309   0.183   4.913  16.336 -0.4269  0.9979  0.3139
 3606TIP3    H232310   0.329   4.936  16.307 -0.3352  0.2839  0.1879
 3607TIP3   OH232311   6.412   4.880   0.853  0.5735 -0.4142  0.1483
 3607TIP3    H132312   6.381   4.828   0.779 -0.1320 -0.6968  0.6344
 3607TIP3    H232313   6.467   4.821   0.903  0.1662 -0.5471  0.4384
 3608TIP3   OH232314   6.225   6.667   3.503  0.1608  0.6155 -1.0806
 3608TIP3    H132315   6.248   6.658   3.410 -1.4950 -1.1150 -1.3868
 3608TIP3    H232316   6.202   6.578   3.530  0.7638  1.0620  1.0535
 3609TIP3   OH232317   3.411   1.198   0.373 -0.2929 -0.0961 -0.8668
 3609TIP3    H132318   3.361   1.240   0.303 -0.4088  1.0311 -0.1356
 3609TIP3    H232319   3.344   1.167   0.434 -0.2110 -1.4557 -1.4373
 3610TIP3   OH232320   5.596   5.235  11.719  0.2393  0.1464 -0.3363
 3610TIP3    H132321   5.514   5.200  11.752 -0.2984  1.8433  0.2299
 3610TIP3    H232322   5.658   5.226  11.791  0.1882  0.1030 -0.2990
 3611TIP3   OH232323   0.938   3.122   0.599 -0.0449 -0.3291 -0.3819
 3611TIP3    H132324   1.006   3.127   0.531 -0.7622  0.1541 -1.0741
 3611TIP3    H232325   0.968   3.182   0.668  0.2667 -0.1786 -0.6483
 3612TIP3   OH232326   0.375   1.507   4.687 -0.3240 -0.7204  0.1105
 3612TIP3    H132327   0.310   1.437   4.694  0.2974 -1.2286  1.1124
 3612TIP3    H232328   0.434   1.492   4.761  0.2994  0.3799 -0.1401
 3613TIP3   OH232329   2.075   1.967  16.541  0.6359  0.0664 -0.9498
 3613TIP3    H132330   1.983   1.959  16.514  0.2239 -0.2949  0.4759
 3613TIP3    H232331   2.071   1.970  16.637  2.3002 -2.6748 -0.7008
 3614TIP3   OH232332   5.107   3.862  14.661  0.1665 -0.2436 -0.4631
 3614TIP3    H132333   5.025   3.814  14.673  0.1210 -0.0035  0.2209
 3614TIP3    H232334   5.144   3.870  14.749 -0.1724  1.6131 -0.4481
 3615TIP3   OH232335   6.474   1.823  15.916  0.6895 -0.0269 -0.5922
 3615TIP3    H132336   6.417   1.888  15.875 -1.0106 -1.7277 -1.0199
 3615TIP3    H232337   6.562   1.849  15.888  0.1030  2.1162 -0.6815
 3616TIP3   OH232338   0.380   4.862   4.478  0.3033 -0.8731 -0.3652
 3616TIP3    H132339   0.357   4.865   4.385  1.5472  0.2375 -0.6717
 3616TIP3    H232340   0.308   4.906   4.522  0.8288  0.7949 -1.0923
 3617TIP3   OH232341   0.919   6.309   4.594  0.1874 -0.1090  0.2728
 3617TIP3    H132342   0.954   6.282   4.509  1.7047  0.6148  0.6300
 3617TIP3    H232343   0.837   6.262   4.603 -0.3430  0.3173 -1.9004
 3618TIP3   OH232344   6.777   6.609   0.095  0.0642  0.2438 -0.1217
 3618TIP3    H132345   6.855   6.629   0.044  1.6292 -0.6943  1.7792
 3618TIP3    H232346   6.772   6.514   0.095  1.0820  0.0949  2.6841
 3619TIP3   OH232347   6.319   3.801   5.982 -0.3335  0.5443  0.2407
 3619TIP3    H132348   6.340   3.718   5.940 -1.8188 -0.0357  0.5752
 3619TIP3    H232349   6.302   3.861   5.910  0.9830  0.6491 -0.0078
 3620TIP3   OH232350   1.535   1.054   6.333  0.4015  0.0276  0.2162
 3620TIP3    H132351   1.549   0.961   6.346  0.2367  0.0097  0.2693
 3620TIP3    H232352   1.461   1.075   6.390 -0.1713  0.0013 -0.5024
 3621TIP3   OH232353   6.085   2.528   0.324 -0.2567 -0.2826  0.2330
 3621TIP3    H132354   5.994   2.503   0.334 -0.0745 -1.5937 -1.0160
 3621TIP3    H232355   6.134   2.445   0.331  0.7274  0.2383 -0.1979
 3622TIP3   OH232356   2.311   6.725   4.593  0.4010  0.3903  0.1087
 3622TIP3    H132357   2.325   6.639   4.553  0.4795  0.0846  0.7729
 3622TIP3    H232358   2.377   6.730   4.661  1.3675  1.6098 -0.8784
 3623TIP3   OH232359   2.947   6.042   3.378 -0.0601 -0.1934 -0.5635
 3623TIP3    H132360   2.935   5.948   3.366  1.1131 -0.2519 -1.5499
 3623TIP3    H232361   2.879   6.068   3.440  2.0001 -2.3852  2.9271
 3624TIP3   OH232362   0.029   0.138  16.193 -0.0461  0.2934 -0.3363
 3624TIP3    H132363  -0.020   0.075  16.139 -0.0591  0.4464 -0.5047
 3624TIP3    H232364   0.094   0.085  16.238 -0.2069  0.1249 -0.3021
 3625TIP3   OH232365   1.632   1.433   1.579  0.4261  0.7365  0.3844
 3625TIP3    H132366   1.561   1.468   1.525 -0.7615  0.5813  1.7755
 3625TIP3    H232367   1.671   1.510   1.620 -1.1583  0.6502  2.2084
 3626TIP3   OH232368   4.133   1.683   3.061 -0.1107 -0.4569  0.5400
 3626TIP3    H132369   4.198   1.733   3.012  0.3527 -3.1004 -1.7402
 3626TIP3    H232370   4.180   1.608   3.096 -1.2638 -0.6034  1.9185
 3627TIP3   OH232371   4.723   3.468  15.753  0.1362  0.3580  0.3352
 3627TIP3    H132372   4.786   3.485  15.683 -0.2955 -1.6787 -0.6043
 3627TIP3    H232373   4.641   3.507  15.722  0.5899  1.9361  1.0173
 3628TIP3   OH232374   4.117   4.058  16.040  0.4782  0.6945 -0.5928
 3628TIP3    H132375   4.132   4.006  16.119  0.8537  0.2052 -0.9785
 3628TIP3    H232376   4.030   4.032  16.011  0.1717  1.1773 -0.1160
 3629TIP3   OH232377   6.440   1.309  11.661  0.0686 -0.0429  0.4403
 3629TIP3    H132378   6.485   1.369  11.601 -0.5125 -0.2449 -0.2198
 3629TIP3    H232379   6.448   1.223  11.620 -0.4971 -0.1560  0.5463
 3630TIP3   OH232380   3.095   2.512   3.618 -0.0546  0.1068 -0.4545
 3630TIP3    H132381   3.060   2.601   3.621  1.7545  0.8448  0.6291
 3630TIP3    H232382   3.091   2.488   3.525 -1.0129  1.1151 -0.6974
 3631TIP3   OH232383   3.828   1.809  16.953  0.0605 -0.1552  0.7599
 3631TIP3    H132384   3.760   1.756  16.912 -0.6687  1.0430  0.3556
 3631TIP3    H232385   3.784   1.892  16.973  0.7639 -0.1800  2.6761
 3632TIP3   OH232386   3.294   4.620   0.942  0.1901 -0.5247  0.2992
 3632TIP3    H132387   3.301   4.671   0.861  1.3768  1.1115  1.3815
 3632TIP3    H232388   3.312   4.530   0.914  0.7630  0.0254 -1.2411
 3633TIP3   OH232389   6.289   4.961   1.970 -0.0774  0.5052  0.0848
 3633TIP3    H132390   6.235   4.990   2.043  0.7326  1.8460  0.1906
 3633TIP3    H232391   6.280   4.866   1.969 -0.6663  0.5292  1.4787
 3634TIP3   OH232392   3.090   2.528  15.721 -0.1975  0.0280 -0.3236
 3634TIP3    H132393   3.099   2.539  15.626 -0.7121 -0.3176 -0.4167
 3634TIP3    H232394   3.027   2.457  15.731  0.8711 -0.8640  0.2742
 3635TIP3   OH232395   0.832   2.064  15.508  0.3441  0.5447 -0.3944
 3635TIP3    H132396   0.802   2.137  15.453 -0.8772  0.0341 -0.4278
 3635TIP3    H232397   0.808   1.986  15.459  3.1938  0.0421 -1.1963
 3636TIP3   OH232398   6.685   6.073  17.075  0.4672 -0.5476  0.3930
 3636TIP3    H132399   6.676   5.993  17.127  0.2330 -1.0976 -0.4838
 3636TIP3    H232400   6.724   6.044  16.993 -0.2350  0.1382 -0.1934
 3637TIP3   OH232401   5.047   4.677  15.812  0.1292  0.3310 -0.1130
 3637TIP3    H132402   4.976   4.669  15.748  0.2884 -0.0672 -0.2470
 3637TIP3    H232403   5.061   4.587  15.843 -0.3751  0.6137  0.9548
 3638TIP3   OH232404   2.102   2.410   4.115 -0.0596  0.3278 -0.3701
 3638TIP3    H132405   2.112   2.326   4.069 -1.1203 -0.7806  1.3304
 3638TIP3    H232406   2.017   2.443   4.087 -0.6008 -0.2329  0.5786
 3639TIP3   OH232407   1.975   2.374   3.727 -0.2974 -0.8742  0.3308
 3639TIP3    H132408   1.885   2.363   3.697 -1.1368  1.3420  1.7643
 3639TIP3    H232409   1.967   2.409   3.816  1.8921  1.1755 -0.1530
 3640TIP3   OH232410   4.232   1.193   4.171 -0.1502  0.0115  0.0508
 3640TIP3    H132411   4.314   1.160   4.209 -0.2954  0.0469  0.4024
 3640TIP3    H232412   4.244   1.184   4.076 -0.2503 -1.1859  0.1394
 3641TIP3   OH232413   3.387   0.197  12.131  0.5757 -0.1841  0.3605
 3641TIP3    H132414   3.401   0.106  12.155 -0.4667 -0.7429 -1.0217
 3641TIP3    H232415   3.320   0.227  12.193 -0.5577 -0.9854 -0.4325
 3642TIP3   OH232416   3.017   5.351  16.377 -0.2235  0.0418 -0.1886
 3642TIP3    H132417   2.947   5.300  16.336  0.8059  0.3347 -2.4933
 3642TIP3    H232418   2.972   5.421  16.424 -1.5182  0.4455 -1.9280
 3643TIP3   OH232419   3.612   2.711   3.683  0.2005  0.6370 -0.2019
 3643TIP3    H132420   3.644   2.649   3.618  0.3778 -0.8275  1.2213
 3643TIP3    H232421   3.530   2.673   3.716  1.2628  0.1012  2.0521
 3644TIP3   OH232422   1.322   4.123  11.223  0.1974 -0.1815 -0.6775
 3644TIP3    H132423   1.342   4.210  11.188  0.2995 -1.0854 -3.0110
 3644TIP3    H232424   1.371   4.063  11.167  1.2667 -1.7270  1.7395
 3645TIP3   OH232425   3.179   1.492   1.666 -0.0627 -0.6082  0.0797
 3645TIP3    H132426   3.215   1.431   1.601  1.4313 -1.4086  1.5808
 3645TIP3    H232427   3.255   1.523   1.715 -1.1014  0.2558  1.2112
 3646TIP3   OH232428   4.929   5.763   5.419 -0.0599 -0.2353 -0.1754
 3646TIP3    H132429   5.003   5.822   5.404  0.9584 -1.3477  0.2346
 3646TIP3    H232430   4.948   5.687   5.363  1.0292 -2.1098  2.4950
 3647TIP3   OH232431   6.623   3.167  11.630  0.3404  0.3299 -0.2172
 3647TIP3    H132432   6.667   3.219  11.563 -0.4616  0.9135 -0.3016
 3647TIP3    H232433   6.610   3.081  11.589 -0.6855  0.8624 -1.0428
 3648TIP3   OH232434   6.274   0.856   4.632  0.1633 -0.0705 -1.2958
 3648TIP3    H132435   6.369   0.845   4.639  0.2357  0.2916 -1.6805
 3648TIP3    H232436   6.243   0.853   4.723  0.3981 -1.4231 -1.2324
 3649TIP3   OH232437   2.219   3.151   4.687  0.4551  0.0661 -0.7000
 3649TIP3    H132438   2.163   3.096   4.633 -0.0461  0.2903 -0.4187
 3649TIP3    H232439   2.216   3.237   4.645 -0.5841  0.4506  0.1110
 3650TIP3   OH232440   6.459   6.656  16.850 -0.1054 -0.4453 -0.6387
 3650TIP3    H132441   6.551   6.653  16.875  0.1327  1.1430 -1.1705
 3650TIP3    H232442   6.448   6.744  16.813 -1.8354 -0.6121 -0.5834
 3651TIP3   OH232443   4.292   5.743   2.058  0.4308  0.5797  0.1865
 3651TIP3    H132444   4.274   5.829   2.097  1.3780  0.8156  0.1172
 3651TIP3    H232445   4.212   5.693   2.073  0.5931  0.8055  2.0863
 3652TIP3   OH232446   0.757   0.822  13.270 -0.2142 -0.9929  0.6966
 3652TIP3    H132447   0.723   0.793  13.185  1.0737 -0.1776 -0.1308
 3652TIP3    H232448   0.679   0.840  13.322 -1.0888  0.2127 -0.9243
 3653TIP3   OH232449   0.857   1.024  12.341  0.5287 -0.0409 -0.0799
 3653TIP3    H132450   0.867   1.070  12.258 -0.0199 -1.2558 -0.8517
 3653TIP3    H232451   0.793   0.955  12.323  0.8161 -0.6814  1.1961
 3654TIP3   OH232452   6.390   4.211  11.481 -0.2656 -0.7612 -0.1871
 3654TIP3    H132453   6.377   4.233  11.389 -0.5168  0.9333  0.2091
 3654TIP3    H232454   6.309   4.168  11.508  0.2795 -2.3954 -1.0335
 3655TIP3   OH232455   1.674   3.365   1.099 -0.3458  0.0150 -0.3388
 3655TIP3    H132456   1.753   3.312   1.110  0.2494  1.1020  0.8718
 3655TIP3    H232457   1.646   3.385   1.188 -1.4230  0.4823 -0.7659
 3656TIP3   OH232458   3.211   5.561  11.993  0.0405  0.0132  0.1139
 3656TIP3    H132459   3.205   5.484  12.048 -2.5019  0.6229  0.7915
 3656TIP3    H232460   3.143   5.549  11.926  0.8044  0.8586 -0.8584
 3657TIP3   OH232461   1.560   3.958  10.576 -0.6946  0.6123 -0.2871
 3657TIP3    H132462   1.558   4.018  10.503 -3.8999 -0.2430 -1.0433
 3657TIP3    H232463   1.585   3.874  10.538  1.4351  0.8688  0.3690
 3658TIP3   OH232464   5.477   6.515  13.568 -0.1879  0.0034  0.2643
 3658TIP3    H132465   5.488   6.536  13.661  0.2210 -0.1885  0.2582
 3658TIP3    H232466   5.465   6.420  13.566  3.1321 -0.5103 -0.1476
 3659TIP3   OH232467   5.436   3.692  16.138 -0.1325  0.1427 -0.3666
 3659TIP3    H132468   5.430   3.691  16.234  1.1351 -0.0996 -0.2685
 3659TIP3    H232469   5.346   3.702  16.108 -0.9009 -2.4349  0.8012
 3660TIP3   OH232470   5.304   0.235   1.952  0.0201 -0.5896 -0.0725
 3660TIP3    H132471   5.306   0.223   2.047  2.0888 -2.1057 -0.2386
 3660TIP3    H232472   5.263   0.155   1.919 -1.3764  0.2550 -0.4557
 3661TIP3   OH232473   2.732   5.594   4.534  0.8038  0.4432  0.0753
 3661TIP3    H132474   2.675   5.584   4.610 -1.1769 -1.6237 -1.5362
 3661TIP3    H232475   2.734   5.507   4.494  3.2201  1.0336 -1.3017
 3662TIP3   OH232476   3.281   5.259   5.212 -0.3759  0.0242 -0.4320
 3662TIP3    H132477   3.312   5.169   5.222 -0.3620  0.2857  2.7461
 3662TIP3    H232478   3.358   5.308   5.182  0.4703 -0.4995  0.8306
 3663TIP3   OH232479   2.983   2.199   4.672  0.3502  0.1312  0.4385
 3663TIP3    H132480   3.047   2.130   4.655  0.2141  0.1591 -0.2274
 3663TIP3    H232481   3.027   2.257   4.734  0.4998 -0.5017  0.9330
 3664TIP3   OH232482   4.641   2.059  16.351 -0.3231 -0.2135  0.1357
 3664TIP3    H132483   4.722   2.107  16.366 -0.1864 -0.2922 -0.3334
 3664TIP3    H232484   4.643   1.988  16.416 -0.5939  0.4878  0.9225
 3665TIP3   OH232485   1.471   3.595   5.464  0.2874 -0.1185  1.0019
 3665TIP3    H132486   1.490   3.511   5.507  0.9681 -0.2150  0.5424
 3665TIP3    H232487   1.402   3.634   5.517 -1.2198 -1.7003  0.2985
 3666TIP3   OH232488   6.637   4.372   1.857  0.1316 -0.2659  0.0087
 3666TIP3    H132489   6.637   4.319   1.777  0.1511  0.4560 -0.4807
 3666TIP3    H232490   6.546   4.401   1.866 -0.2205 -1.6219  1.1298
 3667TIP3   OH232491   2.172   5.378  12.771 -0.5982 -0.4949  0.1605
 3667TIP3    H132492   2.077   5.390  12.779 -0.4324  0.5317  0.6832
 3667TIP3    H232493   2.203   5.458  12.730  0.4602  0.7260  3.0826
 3668TIP3   OH232494   3.973   3.704   1.760 -0.4326 -0.1374  0.1001
 3668TIP3    H132495   3.981   3.613   1.790 -0.0967 -0.7713 -1.8098
 3668TIP3    H232496   4.061   3.728   1.731 -0.6595  0.5835 -0.0125
 3669TIP3   OH232497   4.539   1.364  13.413  0.0559  0.2496 -0.4225
 3669TIP3    H132498   4.479   1.299  13.451 -0.4602  0.6110 -0.6038
 3669TIP3    H232499   4.614   1.365  13.473 -0.8484  0.9885  0.7467
 3670TIP3   OH232500   2.550   2.419  13.423 -0.7247  0.8729 -0.5430
 3670TIP3    H132501   2.525   2.436  13.514  2.0190  1.4475  0.1922
 3670TIP3    H232502   2.628   2.473  13.409  0.0477 -0.6567 -2.6139
 3671TIP3   OH232503   5.006   2.011  16.427  0.1262 -0.4672 -0.0400
 3671TIP3    H132504   4.945   2.058  16.370 -1.5460 -1.5188  0.7755
 3671TIP3    H232505   5.071   2.076  16.452 -1.1673  0.9761 -0.2644
 3672TIP3   OH232506   4.205   0.283   5.762 -0.2242  0.8785 -0.0201
 3672TIP3    H132507   4.240   0.280   5.851 -1.4094 -2.8196  0.5086
 3672TIP3    H232508   4.267   0.233   5.710 -0.1680  1.9906 -1.0551
 3673TIP3   OH232509   3.356   1.730  15.202 -0.4210 -0.4549 -0.3575
 3673TIP3    H132510   3.394   1.745  15.289 -0.2935  0.0068 -0.4864
 3673TIP3    H232511   3.262   1.729  15.218 -0.4223  0.1332 -0.2767
 3674TIP3   OH232512   5.406   2.739   3.536 -0.0395  0.0540 -0.2645
 3674TIP3    H132513   5.483   2.700   3.493  0.2200  0.0287  0.2114
 3674TIP3    H232514   5.339   2.741   3.468  0.8120  1.3905 -1.1008
 3675TIP3   OH232515   0.373   1.219   0.470 -0.7380 -0.4565 -0.4121
 3675TIP3    H132516   0.304   1.285   0.458 -0.8914 -0.2006  1.6101
 3675TIP3    H232517   0.454   1.268   0.457 -0.8731 -0.0713  0.1723
 3676TIP3   OH232518   6.045   5.965  15.694  0.6064 -0.4497 -0.2969
 3676TIP3    H132519   6.063   5.964  15.788 -0.7787 -0.8110 -0.0131
 3676TIP3    H232520   6.046   5.873  15.668  1.2622 -0.3354 -0.7099
 3677TIP3   OH232521   1.285   1.936  14.758  0.2167  0.3247 -0.0671
 3677TIP3    H132522   1.334   1.905  14.833  1.3440  0.2859 -0.7945
 3677TIP3    H232523   1.341   2.002  14.718  0.1498 -0.4319 -1.4867
 3678TIP3   OH232524   4.417   4.597   3.536 -0.0116 -0.0010  0.2610
 3678TIP3    H132525   4.438   4.632   3.449  2.5277 -0.5422  0.5823
 3678TIP3    H232526   4.367   4.518   3.519 -2.2999  1.5323 -0.5718
 3679TIP3   OH232527   4.793   6.077  13.875  0.7138 -0.3335 -0.2665
 3679TIP3    H132528   4.824   6.122  13.797  0.7834  0.3678  0.1550
 3679TIP3    H232529   4.815   6.135  13.947 -2.9369  1.0184 -0.0193
 3680TIP3   OH232530   0.880   4.332  12.609  0.9418  0.2686  0.7836
 3680TIP3    H132531   0.849   4.301  12.524  1.0359  2.6214 -0.1673
 3680TIP3    H232532   0.804   4.376  12.648  1.1651  0.0220  1.5179
 3681TIP3   OH232533   1.904   3.812  12.530  0.7193  0.2215  0.3565
 3681TIP3    H132534   1.959   3.867  12.586  0.2578  0.5198  0.5316
 3681TIP3    H232535   1.965   3.763  12.476  1.2194 -0.5833  1.5958
 3682TIP3   OH232536   2.710   1.668  14.507 -0.1462 -0.1075  0.0285
 3682TIP3    H132537   2.616   1.687  14.514 -0.2728  0.3023 -2.0712
 3682TIP3    H232538   2.723   1.647  14.415  1.8913  0.0946  0.2286
 3683TIP3   OH232539   0.124   2.909   0.533  0.3536  0.5202 -0.9084
 3683TIP3    H132540   0.048   2.871   0.576  1.0137  1.3568  1.1167
 3683TIP3    H232541   0.115   2.883   0.441 -2.1931  0.3487 -0.6893
 3684TIP3   OH232542   0.607   4.525   2.772  0.1557 -0.0263  0.1417
 3684TIP3    H132543   0.612   4.431   2.752 -0.8750  0.0133 -0.3797
 3684TIP3    H232544   0.610   4.529   2.867 -1.6660 -0.7479  0.2659
 3685TIP3   OH232545   6.734   3.562   0.149 -0.4147 -0.3340 -0.4119
 3685TIP3    H132546   6.788   3.638   0.170 -0.0504 -0.7571  0.2327
 3685TIP3    H232547   6.660   3.597   0.099 -0.2730  0.4428 -0.0834
 3686TIP3   OH232548   3.221   5.368  12.421  0.1221  0.0651 -0.0840
 3686TIP3    H132549   3.219   5.379  12.516  1.8795  0.3272 -0.0414
 3686TIP3    H232550   3.144   5.314  12.401 -0.8371  0.8339  1.3494
 3687TIP3   OH232551   6.764   2.255  12.597  0.1820  0.3960  0.2689
 3687TIP3    H132552   6.756   2.349  12.582  0.2627  0.2332 -0.8090
 3687TIP3    H232553   6.705   2.237  12.671  1.6197  1.6141  1.8027
 3688TIP3   OH232554   2.330   6.313   5.450 -0.1176 -0.1055 -0.0246
 3688TIP3    H132555   2.406   6.321   5.392 -0.2635 -0.3722 -0.2606
 3688TIP3    H232556   2.302   6.222   5.439 -0.7638  0.1273 -0.3146
 3689TIP3   OH232557   1.064   2.216   3.839 -1.0701  0.1424  0.2086
 3689TIP3    H132558   0.970   2.232   3.838 -0.9571  0.9456  0.9301
 3689TIP3    H232559   1.101   2.294   3.882 -0.2191 -0.7810  1.2222
 3690TIP3   OH232560   0.695   2.678   3.764  0.0912 -0.3706 -0.3040
 3690TIP3    H132561   0.688   2.755   3.821 -2.0625 -0.6950 -0.0701
 3690TIP3    H232562   0.775   2.635   3.794  1.5128  1.8668 -0.6035
 3691TIP3   OH232563   1.901   2.240   0.582  0.2023  0.1171  0.0126
 3691TIP3    H132564   1.821   2.288   0.603  0.4356  1.0424 -1.0623
 3691TIP3    H232565   1.877   2.148   0.589 -1.5065  0.3289 -1.9758
 3692TIP3   OH232566   3.009   3.505  14.685  0.1637 -0.3451  0.0959
 3692TIP3    H132567   3.074   3.547  14.629  0.4182 -0.0812  0.5787
 3692TIP3    H232568   3.026   3.541  14.772 -0.3517 -0.5998  0.3064
 3693TIP3   OH232569   1.340   1.506  11.588 -0.3901 -0.2475  0.0130
 3693TIP3    H132570   1.384   1.555  11.518 -0.7951 -1.3308 -1.0363
 3693TIP3    H232571   1.409   1.487  11.651  0.0691  0.4138 -0.2778
 3694TIP3   OH232572   3.441   3.070   2.840  0.2504 -0.2355 -0.3902
 3694TIP3    H132573   3.530   3.034   2.835  0.1499 -0.6160  0.4419
 3694TIP3    H232574   3.455   3.165   2.844  0.6217 -0.2887 -0.3142
 3695TIP3   OH232575   3.253   4.329   5.219 -0.2694 -0.5071  0.2738
 3695TIP3    H132576   3.208   4.278   5.287 -0.4207 -1.3978 -0.4730
 3695TIP3    H232577   3.192   4.330   5.145  0.6045 -1.0716 -0.4803
 3696TIP3   OH232578   0.421   3.546  12.004 -0.1070  0.1710 -0.9870
 3696TIP3    H132579   0.498   3.509  11.961 -1.2675 -1.4000 -1.7893
 3696TIP3    H232580   0.356   3.476  12.002 -0.7728  0.5816  1.9255
 3697TIP3   OH232581   2.756   0.092  15.215 -0.0867 -0.1422 -0.4420
 3697TIP3    H132582   2.750   0.187  15.203  1.2329 -0.0713 -0.6653
 3697TIP3    H232583   2.781   0.057  15.130  1.1368 -0.4926  0.0326
 3698TIP3   OH232584   2.642   4.448   0.118  0.5919  0.2279  0.2713
 3698TIP3    H132585   2.635   4.403   0.203 -1.4066  1.5256  0.8732
 3698TIP3    H232586   2.576   4.405   0.064  0.9109  0.3134 -0.1856
 3699TIP3   OH232587   1.720   4.556  16.977  0.2471 -0.1803 -0.4986
 3699TIP3    H132588   1.778   4.598  16.914 -0.6070  1.1320 -0.4536
 3699TIP3    H232589   1.774   4.539  17.054  0.4523  1.5722 -0.2281
 3700TIP3   OH232590   5.007   4.417  16.026 -0.0245  0.5255  0.0830
 3700TIP3    H132591   4.941   4.487  16.017 -1.0503 -0.5919 -1.6735
 3700TIP3    H232592   5.014   4.380  15.938  0.9759 -1.1626  0.8357
 3701TIP3   OH232593   6.565   2.002   0.218  0.0221  0.0493 -0.1778
 3701TIP3    H132594   6.516   1.931   0.177 -1.6442 -0.3757  2.3397
 3701TIP3    H232595   6.514   2.081   0.199  0.2940  0.1435 -0.5253
 3702TIP3   OH232596   4.632   5.516  15.548  0.2722  0.4160 -0.7485
 3702TIP3    H132597   4.654   5.604  15.517  2.1635  0.2786  0.1012
 3702TIP3    H232598   4.664   5.512  15.638  0.6453 -1.2789 -0.9065
 3703TIP3   OH232599   5.353   5.272   4.693  0.2005 -0.2149 -0.0139
 3703TIP3    H132600   5.308   5.230   4.619  1.1726 -1.4302  0.0553
 3703TIP3    H232601   5.396   5.200   4.739  0.4124  0.6489  1.1883
 3704TIP3   OH232602   2.608   2.252   3.809  0.1918  0.0701 -0.2059
 3704TIP3    H132603   2.527   2.205   3.828 -0.0048  1.2513  2.2471
 3704TIP3    H232604   2.588   2.344   3.829  1.7228  0.5960 -0.9376
 3705TIP3   OH232605   5.312   0.589  13.407 -0.0134  0.2883  0.2936
 3705TIP3    H132606   5.397   0.598  13.449 -0.5400  0.3738  1.3923
 3705TIP3    H232607   5.331   0.576  13.315  1.1759  0.5915  0.4857
 3706TIP3   OH232608   6.500   3.291  11.891  0.2438  0.3115  0.6729
 3706TIP3    H132609   6.548   3.374  11.899  2.5803 -0.7452 -1.0463
 3706TIP3    H232610   6.559   3.235  11.840 -2.0808 -1.7719  0.1049
 3707TIP3   OH232611   3.460   3.362   2.894 -0.2378  0.0581  0.0460
 3707TIP3    H132612   3.370   3.392   2.907 -1.1789 -1.4963 -2.2222
 3707TIP3    H232613   3.497   3.425   2.833 -0.4661 -0.4049 -0.5784
 3708TIP3   OH232614   0.762   1.385  11.947  0.6133 -0.1972  0.1724
 3708TIP3    H132615   0.785   1.382  12.040  0.0940  1.8113  0.4081
 3708TIP3    H232616   0.846   1.378  11.901  1.1609  1.4300  0.8812
 3709TIP3   OH232617   3.343   4.302  12.498  0.1280 -0.0179  0.3127
 3709TIP3    H132618   3.388   4.232  12.545 -1.3522 -0.9064  0.4941
 3709TIP3    H232619   3.282   4.257  12.440  0.1078  1.1130 -0.5880
 3710TIP3   OH232620   5.622   1.715  12.713 -0.4073  0.0101  0.3335
 3710TIP3    H132621   5.624   1.638  12.771  2.6909 -0.7367 -0.5645
 3710TIP3    H232622   5.571   1.687  12.638  0.9312 -1.3769 -0.1231
 3711TIP3   OH232623   0.564   5.002   1.850 -0.4004 -0.7310 -0.0206
 3711TIP3    H132624   0.625   4.942   1.893  1.3233  1.0618  0.1628
 3711TIP3    H232625   0.604   5.020   1.765 -2.0125 -1.5043 -0.9927
 3712TIP3   OH232626   5.437   5.069  15.765  0.0431  0.0687 -0.0815
 3712TIP3    H132627   5.380   5.114  15.827  2.0590  2.3176  0.2835
 3712TIP3    H232628   5.380   5.006  15.721 -3.0841  3.1232 -0.7812
 3713TIP3   OH232629   5.297   2.996  11.445  0.0354  0.5536 -0.1146
 3713TIP3    H132630   5.231   3.003  11.514  0.3157  2.2211  0.0147
 3713TIP3    H232631   5.380   3.014  11.490  0.8242 -2.6848 -0.0136
 3714TIP3   OH232632   1.411   5.628  11.333 -0.1607  0.6153  0.7128
 3714TIP3    H132633   1.480   5.695  11.338 -0.6504  1.1576  0.3869
 3714TIP3    H232634   1.375   5.638  11.245 -0.2241 -0.1003  0.6571
 3715TIP3   OH232635   4.906   3.821   0.874 -0.0446 -0.4899 -0.1577
 3715TIP3    H132636   4.920   3.727   0.864 -0.1439 -0.4815 -0.3656
 3715TIP3    H232637   4.989   3.861   0.848 -0.2775 -0.4715 -0.8954
 3716TIP3   OH232638   4.876   0.677  15.086 -0.0361 -0.8213 -0.2756
 3716TIP3    H132639   4.872   0.622  15.165  1.9179 -0.7230 -0.0564
 3716TIP3    H232640   4.870   0.766  15.119 -3.0192 -0.8002 -0.6180
 3717TIP3   OH232641   2.238   2.807   1.380 -0.0525 -0.1188  0.0082
 3717TIP3    H132642   2.291   2.806   1.301 -0.0208  2.9513 -0.1190
 3717TIP3    H232643   2.301   2.812   1.452 -0.1069  0.4872  0.0201
 3718TIP3   OH232644   1.465   3.835   0.541 -0.1692 -0.0024 -0.0836
 3718TIP3    H132645   1.460   3.745   0.572 -1.5348 -0.0306 -0.3242
 3718TIP3    H232646   1.435   3.831   0.450 -2.1888  0.9438  0.4750
 3719TIP3   OH232647   6.114   4.295  12.127 -0.1200  0.2192 -0.1388
 3719TIP3    H132648   6.195   4.304  12.178 -0.0885  1.6078 -0.3842
 3719TIP3    H232649   6.047   4.336  12.182 -0.4724 -0.0333 -0.3725
 3720TIP3   OH232650   0.693   6.458   2.083  0.1670  0.3890  0.1562
 3720TIP3    H132651   0.783   6.458   2.050  0.3291  2.0860  0.5052
 3720TIP3    H232652   0.639   6.481   2.008 -0.1088 -1.3846 -0.2477
 3721TIP3   OH232653   2.901   6.272   0.585 -0.0160  0.1840 -0.3512
 3721TIP3    H132654   2.924   6.314   0.502 -0.5562 -1.4135 -1.3445
 3721TIP3    H232655   2.843   6.200   0.561  0.1130 -0.5515  1.3738
 3722TIP3   OH232656   2.808   3.138   6.614  0.5532 -0.3321  0.4464
 3722TIP3    H132657   2.863   3.064   6.637  0.4781 -0.0369  1.6504
 3722TIP3    H232658   2.735   3.134   6.676 -1.4325 -1.3511 -1.7495
 3723TIP3   OH232659   5.886   6.018   2.397  0.1086  0.4378 -0.5516
 3723TIP3    H132660   5.942   6.031   2.321  2.0551 -2.1863  0.2397
 3723TIP3    H232661   5.947   6.018   2.471 -1.4229  0.6963  0.7629
 3724TIP3   OH232662   0.302   6.686   1.941  0.3012  0.1982  0.3926
 3724TIP3    H132663   0.304   6.611   2.001  1.7209 -1.1480 -1.2008
 3724TIP3    H232664   0.210   6.709   1.933 -0.2109 -1.5881  0.7354
 3725TIP3   OH232665   0.382   3.253   0.576  0.1492 -0.8790  0.2526
 3725TIP3    H132666   0.314   3.296   0.524  0.3444 -1.7294 -0.7422
 3725TIP3    H232667   0.368   3.159   0.561  1.3600 -1.0747  0.2502
 3726TIP3   OH232668   6.037   5.093   1.461  0.5286 -0.3459  0.0311
 3726TIP3    H132669   6.074   5.092   1.549  1.4047 -0.1672 -0.3252
 3726TIP3    H232670   5.955   5.044   1.469 -1.2428  2.6624  1.6984
 3727TIP3   OH232671   1.640   3.104  10.505  0.4113 -0.1971  0.1525
 3727TIP3    H132672   1.628   3.031  10.443  0.1596  0.2506 -0.3290
 3727TIP3    H232673   1.691   3.065  10.576 -0.2814 -1.0193  0.2186
 3728TIP3   OH232674   2.728   3.565  12.494  0.5148 -0.3688 -0.2497
 3728TIP3    H132675   2.819   3.588  12.475  0.7022 -1.4388 -0.7672
 3728TIP3    H232676   2.708   3.496  12.431 -0.5341 -0.4186  0.1218
 3729TIP3   OH232677   3.411   1.150  16.159  0.6785 -0.7315 -0.5456
 3729TIP3    H132678   3.395   1.224  16.218 -4.5182  0.0113 -2.3108
 3729TIP3    H232679   3.388   1.073  16.211  1.2330 -0.6272 -0.1393
 3730TIP3   OH232680   5.569   0.543   0.019 -0.0032  0.1623 -0.8195
 3730TIP3    H132681   5.552   0.595  -0.059  1.5140  0.5929 -0.8861
 3730TIP3    H232682   5.634   0.479  -0.008 -0.0017 -0.1608 -0.0833
 3731TIP3   OH232683   4.207   1.279   3.422 -0.5740 -0.3527 -0.4831
 3731TIP3    H132684   4.136   1.310   3.479  0.7069  2.3207 -0.1976
 3731TIP3    H232685   4.178   1.193   3.393 -2.2792 -0.8919  2.4520
 3732TIP3   OH232686   0.764   2.156  12.789 -0.0021  0.3329  0.5851
 3732TIP3    H132687   0.776   2.065  12.816 -0.0599  0.3131  0.5431
 3732TIP3    H232688   0.675   2.160  12.756  0.4073  0.1017 -0.6004
 3733TIP3   OH232689   1.068   5.784   1.441 -0.2506  0.2617  0.7241
 3733TIP3    H132690   1.043   5.692   1.443 -0.0107  0.1478 -0.5440
 3733TIP3    H232691   1.116   5.794   1.358 -0.6536  1.6133  0.6303
 3734TIP3   OH232692   1.025   0.850   3.937  0.5066  0.0109 -0.0876
 3734TIP3    H132693   0.966   0.910   3.891  0.6049  0.4791  0.3881
 3734TIP3    H232694   0.973   0.815   4.009  0.9184  0.7161  0.5621
 3735TIP3   OH232695   4.006   5.931   1.089  0.1714  0.0305 -0.1092
 3735TIP3    H132696   3.956   5.933   1.007 -0.4972  0.8345  0.3036
 3735TIP3    H232697   4.074   5.997   1.076 -0.6485  1.0067  0.4040
 3736TIP3   OH232698   4.831   5.856   2.221 -0.3983  0.0030 -0.0135
 3736TIP3    H132699   4.895   5.927   2.224 -1.2821  0.8248 -0.0288
 3736TIP3    H232700   4.765   5.886   2.159 -0.7015 -0.9229 -0.1543
 3737TIP3   OH232701   2.296   0.686  13.663  0.2164 -0.1037  0.0584
 3737TIP3    H132702   2.377   0.677  13.714  0.2267 -2.0134 -0.2142
 3737TIP3    H232703   2.295   0.778  13.636  0.4336  0.8922  3.0854
 3738TIP3   OH232704   5.346   3.670  16.697 -0.0922 -0.0552 -0.9246
 3738TIP3    H132705   5.345   3.577  16.676  2.8548 -0.4576  0.3625
 3738TIP3    H232706   5.416   3.681  16.760 -1.8739  2.7226  0.8189
 3739TIP3   OH232707   0.183   0.368   3.345 -0.2289  0.4943 -0.8676
 3739TIP3    H132708   0.110   0.342   3.288  0.1482 -0.0078 -1.1214
 3739TIP3    H232709   0.148   0.442   3.396 -1.1320 -0.1518 -0.5224
 3740TIP3   OH232710   2.128   3.073  14.428 -0.4912  0.5773  0.2373
 3740TIP3    H132711   2.034   3.057  14.434 -0.4035 -0.6352 -1.1223
 3740TIP3    H232712   2.167   3.011  14.490 -0.4921 -0.4070 -0.7200
 3741TIP3   OH232713   4.773   0.756  12.236  0.1379 -0.3175 -0.6312
 3741TIP3    H132714   4.766   0.793  12.324  0.0944  0.7032 -1.0483
 3741TIP3    H232715   4.682   0.750  12.205  0.2249  0.8462 -1.1934
 3742TIP3   OH232716   3.489   3.079  16.452 -1.1233 -0.5348 -0.0005
 3742TIP3    H132717   3.474   3.001  16.399 -2.0148 -0.4924  0.1629
 3742TIP3    H232718   3.459   3.151  16.397  1.1145 -0.1149 -0.7589
 3743TIP3   OH232719   4.948   0.246  16.263  0.2837 -0.0533 -0.0167
 3743TIP3    H132720   4.978   0.158  16.288 -1.5487 -0.5389  0.6476
 3743TIP3    H232721   4.971   0.301  16.337 -0.3882 -0.4160  0.4776
 3744TIP3   OH232722   5.975   0.006  12.407  0.6379  0.1899 -0.3773
 3744TIP3    H132723   5.984  -0.037  12.322  0.1965  1.8168 -1.2739
 3744TIP3    H232724   6.064   0.032  12.430  1.0947 -2.0145  0.6842
 3745TIP3   OH232725   1.220   3.101   3.856 -0.6814  0.3541  0.6346
 3745TIP3    H132726   1.151   3.067   3.913 -2.1137 -1.9256 -2.1306
 3745TIP3    H232727   1.292   3.039   3.866  0.2936  1.6642  2.1108
 3746TIP3   OH232728   0.676   4.136   3.955 -0.8413 -0.4232  0.1432
 3746TIP3    H132729   0.590   4.110   3.922  0.5808 -3.4393 -1.5570
 3746TIP3    H232730   0.737   4.115   3.885  1.4918  0.1393  1.8617
 3747TIP3   OH232731   4.935   6.009   3.308  0.2396  0.6598 -0.8656
 3747TIP3    H132732   5.004   5.957   3.268  0.3898 -0.5434  0.8561
 3747TIP3    H232733   4.856   5.988   3.257  0.5164 -0.4502 -0.8560
 3748TIP3   OH232734   4.577   4.046  11.034 -0.1248  0.0889  0.4897
 3748TIP3    H132735   4.490   4.084  11.024 -0.0593 -0.1648 -1.2441
 3748TIP3    H232736   4.637   4.119  11.022 -0.0586 -0.0796 -0.2164
 3749TIP3   OH232737   1.035   4.614   0.636 -0.2746 -0.2960  0.7401
 3749TIP3    H132738   0.994   4.570   0.561 -2.1242  1.3769  0.6986
 3749TIP3    H232739   1.128   4.595   0.627 -0.1905  1.0773 -2.8600
 3750TIP3   OH232740   6.708   5.952   4.752 -0.4043  0.7717 -0.0228
 3750TIP3    H132741   6.796   5.930   4.720 -0.5446 -1.5788  1.0499
 3750TIP3    H232742   6.724   6.006   4.829  0.1846 -0.7739  0.9806
 3751TIP3   OH232743   4.395   5.142   1.283 -0.5542 -0.1311 -0.4085
 3751TIP3    H132744   4.364   5.224   1.323  0.1285 -0.2474  0.3898
 3751TIP3    H232745   4.391   5.079   1.355  0.8460 -0.3165 -0.4691
 3752TIP3   OH232746   1.089   6.055  14.999 -0.0166 -0.3337 -0.2548
 3752TIP3    H132747   1.102   5.978  15.054  1.4055 -1.4498 -2.0593
 3752TIP3    H232748   1.001   6.086  15.022 -0.5654 -2.3874  0.6538
 3753TIP3   OH232749   6.723   4.188   5.190  0.0867 -0.4611 -0.0139
 3753TIP3    H132750   6.726   4.186   5.286 -1.3638 -0.5868  0.0488
 3753TIP3    H232751   6.794   4.129   5.163 -0.0717 -1.1446  0.9927
 3754TIP3   OH232752   0.238   5.061  13.417 -0.4768  0.4494  0.8469
 3754TIP3    H132753   0.308   5.041  13.479  1.7085 -0.5489 -1.7592
 3754TIP3    H232754   0.279   5.115  13.350 -1.9118 -0.9448 -1.2810
 3755TIP3   OH232755   0.394   5.368   6.000  0.0050  0.4160  0.2338
 3755TIP3    H132756   0.372   5.359   6.093  0.5956  0.7933  0.4143
 3755TIP3    H232757   0.480   5.326   5.992 -0.1358  0.2076 -0.1838
 3756TIP3   OH232758   6.136   1.353   5.280  0.0555 -0.0491  0.2819
 3756TIP3    H132759   6.154   1.404   5.201  0.4668  0.1856  0.5255
 3756TIP3    H232760   6.066   1.401   5.323 -0.1448 -0.1572  0.0785
 3757TIP3   OH232761   0.541   4.282  13.762  0.7860  0.0176  0.0516
 3757TIP3    H132762   0.619   4.324  13.727  1.1879 -0.6464  0.1411
 3757TIP3    H232763   0.479   4.354  13.776  0.6395  0.3300 -1.9085
 3758TIP3   OH232764   2.537   1.071   4.038 -0.3220 -0.7192  0.4392
 3758TIP3    H132765   2.499   1.154   4.069  0.3517  0.2257 -1.1564
 3758TIP3    H232766   2.511   1.007   4.104 -4.7949 -0.1981 -0.5016
 3759TIP3   OH232767   3.509   0.138  15.766  0.8308 -0.0460 -0.1811
 3759TIP3    H132768   3.490   0.070  15.830  0.6486  0.6211  0.4852
 3759TIP3    H232769   3.437   0.200  15.775 -0.0072 -0.6770 -2.0845
 3760TIP3   OH232770   0.336   1.553  16.232  0.7465  0.1174  0.4943
 3760TIP3    H132771   0.398   1.504  16.179 -1.0507 -0.9856 -0.6995
 3760TIP3    H232772   0.356   1.645  16.215  0.7532 -0.2123 -1.4910
 3761TIP3   OH232773   2.398   0.051  12.805  0.0069  0.3212 -0.0054
 3761TIP3    H132774   2.454   0.077  12.732 -0.5603  0.2684 -0.4687
 3761TIP3    H232775   2.428   0.104  12.879  0.9327  0.0033 -0.1382
 3762TIP3   OH232776   4.132   4.679  14.363 -0.3120  0.0917  0.6089
 3762TIP3    H132777   4.213   4.720  14.333 -0.9954 -0.0252 -1.5478
 3762TIP3    H232778   4.160   4.615  14.428  1.4599 -0.6499 -0.8164
 3763TIP3   OH232779   0.925   3.258  13.181  0.2476  0.6927 -0.0251
 3763TIP3    H132780   1.005   3.213  13.209  0.7399  1.3354 -0.3800
 3763TIP3    H232781   0.867   3.188  13.151  0.7698  0.2438  0.0005
 3764TIP3   OH232782   5.766   2.736  16.338  0.3801 -0.1829 -0.3052
 3764TIP3    H132783   5.769   2.660  16.396  0.4392 -0.4004 -0.5911
 3764TIP3    H232784   5.845   2.728  16.284  0.5490  0.2463 -0.1276
 3765TIP3   OH232785   5.682   1.664   5.589  0.3144 -0.2954 -0.5001
 3765TIP3    H132786   5.652   1.707   5.508  1.8772  2.2469  0.1673
 3765TIP3    H232787   5.752   1.606   5.561 -1.8540 -2.6817 -1.4240
 3766TIP3   OH232788   6.530   5.470   4.728  0.5392 -0.0369 -0.4896
 3766TIP3    H132789   6.524   5.553   4.680  0.5676  0.2876  0.0639
 3766TIP3    H232790   6.621   5.443   4.717  0.7700  0.4749  0.0959
 3767TIP3   OH232791   0.311   4.414  11.234  0.3353  0.2760 -0.2247
 3767TIP3    H132792   0.383   4.386  11.291  1.7063  1.5576 -1.2497
 3767TIP3    H232793   0.327   4.369  11.151 -0.9967 -0.6744 -0.0067
 3768TIP3   OH232794   3.237   0.600   1.035  0.1895  0.1717  0.0258
 3768TIP3    H132795   3.230   0.694   1.020  1.4992  0.7045  2.2381
 3768TIP3    H232796   3.288   0.567   0.960  0.7403  1.4345 -0.1722
 3769TIP3   OH232797   1.644   3.935  16.063 -0.3215 -0.2354 -0.1996
 3769TIP3    H132798   1.726   3.957  16.019 -0.8800  2.0554 -0.2311
 3769TIP3    H232799   1.667   3.929  16.155 -0.3792  2.4451  0.0671
 3770TIP3   OH232800   2.335   1.539  11.609 -0.2464 -0.3666 -0.1589
 3770TIP3    H132801   2.266   1.476  11.633  0.2462 -1.2341 -0.9355
 3770TIP3    H232802   2.415   1.501  11.644 -0.3655  1.7605  2.7552
 3771TIP3   OH232803   6.218   5.675  13.131 -0.5420 -0.5348 -0.6307
 3771TIP3    H132804   6.192   5.627  13.210 -0.0468 -0.2826 -0.3074
 3771TIP3    H232805   6.209   5.611  13.061 -0.1699 -1.0248 -0.2439
 3772TIP3   OH232806   4.596   5.081  16.835  0.7247 -0.1681  0.0876
 3772TIP3    H132807   4.536   5.136  16.783  1.4845 -0.2155 -0.8634
 3772TIP3    H232808   4.540   5.040  16.900 -0.2091  0.1385 -0.5011
 3773TIP3   OH232809   4.222   0.734  12.767 -0.2048 -0.4201 -0.0599
 3773TIP3    H132810   4.254   0.777  12.847 -0.9352 -0.0386  0.0316
 3773TIP3    H232811   4.299   0.689  12.732  0.5691  0.9319 -0.1440
 3774TIP3   OH232812   1.430   0.327  12.699  0.3043 -0.0533  0.0922
 3774TIP3    H132813   1.469   0.262  12.641  1.5785  0.2304  0.6006
 3774TIP3    H232814   1.418   0.405  12.645 -2.0257 -0.9256 -0.7494
 3775TIP3   OH232815   3.445   5.944  16.301 -0.2112 -0.5166 -0.4886
 3775TIP3    H132816   3.401   6.004  16.362  1.5091 -1.0488  1.4156
 3775TIP3    H232817   3.399   5.955  16.218 -2.1950  0.8240  0.7095
 3776TIP3   OH232818   3.326   1.593  12.970 -0.4042  0.2682  0.9986
 3776TIP3    H132819   3.343   1.672  12.919  0.0260 -1.5053 -1.8207
 3776TIP3    H232820   3.231   1.587  12.974 -0.4744  0.0066 -0.4490
 3777TIP3   OH232821   2.767   2.817   5.941  0.2783 -0.1783 -0.3374
 3777TIP3    H132822   2.812   2.881   5.886  1.0766 -1.4636 -1.2511
 3777TIP3    H232823   2.836   2.756   5.967 -0.9379 -2.5470 -2.2528
 3778TIP3   OH232824   6.601   5.765  13.994  0.5051 -0.2038 -0.3340
 3778TIP3    H132825   6.588   5.670  13.998  0.5238 -0.1735  1.7787
 3778TIP3    H232826   6.540   5.800  14.060  0.9801  1.1883 -0.6078
 3779TIP3   OH232827   2.086   4.832  11.561 -0.1625 -0.2147 -0.1043
 3779TIP3    H132828   2.072   4.926  11.549  2.5147 -0.0032 -3.0763
 3779TIP3    H232829   2.088   4.820  11.656  0.4182  2.9449  0.3952
 3780TIP3   OH232830   3.820   3.236  13.818 -0.4281 -0.1709  0.2474
 3780TIP3    H132831   3.754   3.217  13.884 -0.9493  0.2100 -0.1521
 3780TIP3    H232832   3.866   3.153  13.805  1.7315  0.3960  3.2377
 3781TIP3   OH232833   2.117   1.923   5.414  0.7371  0.7077  0.2239
 3781TIP3    H132834   2.029   1.956   5.433  0.6527 -0.2241  1.5507
 3781TIP3    H232835   2.101   1.849   5.355  0.1675 -2.2466  3.7726
 3782TIP3   OH232836   6.559   4.122  13.707  0.2698  0.6325  0.0070
 3782TIP3    H132837   6.638   4.099  13.756 -0.3971  0.7721  1.1864
 3782TIP3    H232838   6.520   4.038  13.683  0.1679  0.5526  0.4430
 3783TIP3   OH232839   2.468   2.079  16.609 -0.3648  0.3702 -0.1317
 3783TIP3    H132840   2.380   2.108  16.586 -0.2089 -0.6636 -2.3182
 3783TIP3    H232841   2.506   2.050  16.526  1.5705 -0.4532  0.9707
 3784TIP3   OH232842   1.682   4.673  14.235 -0.1255 -0.7032  0.0940
 3784TIP3    H132843   1.589   4.669  14.212  0.1650  0.8509 -1.5425
 3784TIP3    H232844   1.728   4.661  14.152  1.1060  0.4057  0.5807
 3785TIP3   OH232845   5.062   1.488   6.014 -0.1415 -0.1504 -0.9331
 3785TIP3    H132846   5.093   1.398   6.011  1.4847  0.2470  1.3580
 3785TIP3    H232847   5.079   1.517   6.104 -1.4464  2.1705 -1.3335
 3786TIP3   OH232848   5.797   0.773  12.232  0.5955  0.0724  0.5635
 3786TIP3    H132849   5.845   0.735  12.159 -0.4038  1.8042 -1.0676
 3786TIP3    H232850   5.722   0.715  12.245 -0.6689  1.1412 -1.5930
 3787TIP3   OH232851   0.793   6.140  15.002  0.1478  0.3806  0.2259
 3787TIP3    H132852   0.698   6.134  15.014  0.2686 -0.9068  0.6295
 3787TIP3    H232853   0.804   6.212  14.939 -1.0959  0.4927  0.1076
 3788TIP3   OH232854   1.074   3.195   4.565  0.0134  0.0767 -0.2177
 3788TIP3    H132855   1.006   3.219   4.628  0.3598  1.4782 -0.3576
 3788TIP3    H232856   1.064   3.257   4.493  0.7068 -0.4300 -0.7678
 3789TIP3   OH232857   5.156   0.096   3.851 -0.1219  0.4404  0.0833
 3789TIP3    H132858   5.086   0.158   3.831 -0.5098 -0.5396 -1.7233
 3789TIP3    H232859   5.236   0.144   3.830 -0.4216  0.3579 -1.3681
 3790TIP3   OH232860   5.922   5.649  14.391 -0.2841 -0.0293  0.2665
 3790TIP3    H132861   5.911   5.737  14.428 -1.7062 -0.1808  0.2528
 3790TIP3    H232862   5.892   5.590  14.460 -2.3743 -0.3477 -0.8518
 3791TIP3   OH232863   0.433   5.677   3.247  0.0349 -0.2714  0.1848
 3791TIP3    H132864   0.456   5.588   3.220  1.8904  0.2765 -0.1834
 3791TIP3    H232865   0.518   5.719   3.263 -0.6775  2.0760 -1.7021
 3792TIP3   OH232866   5.266   3.580   0.811 -0.1136  0.2549  1.3065
 3792TIP3    H132867   5.194   3.566   0.749  0.5855 -0.7673  0.6843
 3792TIP3    H232868   5.223   3.589   0.896 -0.9585 -0.8400  1.0257
 3793TIP3   OH232869   4.889   5.925   1.809  0.1409  0.2853  0.1268
 3793TIP3    H132870   4.804   5.882   1.806 -0.0719  0.4532  2.4695
 3793TIP3    H232871   4.944   5.867   1.862  0.9478  1.0954  0.2075
 3794TIP3   OH232872   6.324   0.749   2.004  0.5030  0.2925  0.6688
 3794TIP3    H132873   6.380   0.674   1.985  2.2576  1.4901  0.8347
 3794TIP3    H232874   6.271   0.722   2.079  0.2208 -1.1812 -0.0410
 3795TIP3   OH232875   3.145   4.842   4.312 -0.6345  0.3917  0.1655
 3795TIP3    H132876   3.051   4.860   4.307 -0.5811  0.9307  1.0606
 3795TIP3    H232877   3.179   4.869   4.227 -1.3596 -0.2704 -0.3510
 3796TIP3   OH232878   2.077   4.952   1.885  0.3832  0.1266 -0.8238
 3796TIP3    H132879   2.151   4.931   1.828  0.1121 -0.7744 -0.8610
 3796TIP3    H232880   2.116   4.999   1.959  0.9266  0.0613 -1.0617
 3797TIP3   OH232881   3.411   4.095   4.660  0.0289 -0.4816 -0.1059
 3797TIP3    H132882   3.400   4.092   4.755  0.1851  1.8130  0.0391
 3797TIP3    H232883   3.322   4.086   4.626 -0.2834  0.7009  0.3594
 3798TIP3   OH232884   5.189   2.904   2.688  0.2478  0.1615  0.6980
 3798TIP3    H132885   5.148   2.926   2.604  2.2640 -2.1915 -1.0682
 3798TIP3    H232886   5.212   2.988   2.727 -1.3794  1.3479 -0.7677
 3799TIP3   OH232887   6.369   0.704  11.506 -0.3354 -0.6696  0.0973
 3799TIP3    H132888   6.372   0.743  11.593  1.1037 -2.6045  1.0013
 3799TIP3    H232889   6.442   0.744  11.458 -1.6749  1.0664 -0.5947
 3800TIP3   OH232890   3.622   0.620   5.569 -0.2044  0.5021  0.2565
 3800TIP3    H132891   3.544   0.668   5.541 -0.2469  0.4363  0.2641
 3800TIP3    H232892   3.637   0.650   5.659  0.1244  0.9639  0.0572
 3801TIP3   OH232893   1.445   2.051   6.340 -0.2768 -0.0060  0.1700
 3801TIP3    H132894   1.371   1.998   6.308 -2.3266  1.0023  2.9142
 3801TIP3    H232895   1.503   1.987   6.381 -0.2851 -0.6459 -0.7614
 3802TIP3   OH232896   4.980   2.560  14.430 -0.1358 -0.6172  0.0050
 3802TIP3    H132897   4.954   2.550  14.522 -1.2539  1.5379  0.0044
 3802TIP3    H232898   5.066   2.601  14.434 -0.1183 -0.6642  0.1036
 3803TIP3   OH232899   0.689   6.106   0.552 -0.3445  0.5316 -0.3636
 3803TIP3    H132900   0.637   6.086   0.631 -1.3131 -0.4866 -1.2286
 3803TIP3    H232901   0.758   6.040   0.552 -1.0312 -0.2111 -0.9575
 3804TIP3   OH232902   1.516   0.941  12.277 -0.4452 -0.0038 -0.3190
 3804TIP3    H132903   1.473   1.026  12.284  1.9507  1.4938 -2.0926
 3804TIP3    H232904   1.527   0.927  12.183 -1.7091 -2.8710 -0.1403
 3805TIP3   OH232905   2.513   5.365  15.655 -0.0562  0.1080 -0.6415
 3805TIP3    H132906   2.570   5.392  15.727  0.5258 -1.1394 -0.6113
 3805TIP3    H232907   2.553   5.403  15.577  0.5786 -0.3781 -0.5607
 3806TIP3   OH232908   2.276   6.547  14.060 -0.2564  0.1965 -0.0383
 3806TIP3    H132909   2.239   6.547  13.972  0.3788 -0.2557 -0.3111
 3806TIP3    H232910   2.307   6.636  14.074 -1.9697  0.7544  0.4266
 3807TIP3   OH232911   0.682   3.061   1.339 -0.3634  0.4947  0.7924
 3807TIP3    H132912   0.604   3.040   1.389  0.9356 -0.4717  2.5313
 3807TIP3    H232913   0.715   3.141   1.380 -0.2783  0.7384  0.2552
 3808TIP3   OH232914   4.829   3.639  11.250  0.3295 -0.2383 -0.5354
 3808TIP3    H132915   4.735   3.619  11.250 -0.2293  2.0389 -0.6560
 3808TIP3    H232916   4.868   3.571  11.195 -1.2907 -1.0694 -0.7185
 3809TIP3   OH232917   3.210   0.275  12.328 -0.1806  0.0409 -0.9769
 3809TIP3    H132918   3.149   0.339  12.293  1.8859  1.5643 -1.9587
 3809TIP3    H232919   3.189   0.272  12.422 -1.9128  0.2874 -1.3193
 3810TIP3   OH232920   5.664   5.105   3.189 -0.0177  0.5921 -0.4578
 3810TIP3    H132921   5.592   5.052   3.157 -2.7408  3.3737  0.5405
 3810TIP3    H232922   5.670   5.083   3.282  1.4753 -0.6414 -0.8045
 3811TIP3   OH232923   0.234   6.592  11.571  0.6851  0.4162 -0.7437
 3811TIP3    H132924   0.267   6.507  11.600 -4.3893 -2.1814 -1.4936
 3811TIP3    H232925   0.221   6.642  11.652  1.1050 -0.6208 -0.0143
 3812TIP3   OH232926   3.778   3.681  11.432 -0.5497 -0.2985  0.1188
 3812TIP3    H132927   3.815   3.697  11.519 -0.4300 -2.8323  0.6194
 3812TIP3    H232928   3.839   3.621  11.390 -0.3340  1.2764 -1.9841
 3813TIP3   OH232929   2.932   3.979  16.652 -0.3662  0.2355 -0.0616
 3813TIP3    H132930   2.857   3.922  16.666 -0.0989 -0.0129  0.3737
 3813TIP3    H232931   3.008   3.922  16.660 -0.1569 -0.0462 -2.8706
 3814TIP3   OH232932   6.035   2.071  16.311  0.2856  0.0296  0.0467
 3814TIP3    H132933   6.101   2.113  16.366 -0.4599  0.5946  0.5183
 3814TIP3    H232934   6.085   2.033  16.239  1.0174  1.3433 -0.1542
 3815TIP3   OH232935   4.581   2.097  17.047  0.5285 -0.5570  0.1658
 3815TIP3    H132936   4.497   2.082  17.003  0.2156 -0.8062  0.8264
 3815TIP3    H232937   4.586   2.191  17.058  0.2589 -0.5516  0.2562
 3816TIP3   OH232938   6.552   6.661  15.529  0.3374  0.2640 -0.2934
 3816TIP3    H132939   6.564   6.686  15.438  2.0654 -1.9869 -0.7762
 3816TIP3    H232940   6.483   6.594  15.527  0.5431  0.0395  0.0316
 3817TIP3   OH232941   3.268   4.063  16.442 -0.3486  0.1191 -0.0960
 3817TIP3    H132942   3.267   3.999  16.513  1.1607  0.0304 -0.1145
 3817TIP3    H232943   3.193   4.040  16.388 -0.5532 -0.8544  0.5735
 3818TIP3   OH232944   5.165   5.270  14.160  0.4743 -0.1277 -0.5750
 3818TIP3    H132945   5.143   5.226  14.078  0.4070  0.6361 -0.9671
 3818TIP3    H232946   5.084   5.266  14.211 -0.4885  2.1323 -1.7722
 3819TIP3   OH232947   6.361   3.937  13.118 -0.0887  0.3014  0.2129
 3819TIP3    H132948   6.318   3.910  13.037 -1.4613  1.6545  0.4487
 3819TIP3    H232949   6.319   3.884  13.186  0.1606  0.0806  0.1967
 3820TIP3   OH232950   5.159   6.579   5.494  0.2935  0.2465 -0.5679
 3820TIP3    H132951   5.086   6.537   5.447 -1.1910 -0.0867  1.8563
 3820TIP3    H232952   5.203   6.507   5.538  0.5296  0.7410  0.0045
 3821TIP3   OH232953   5.523   5.160   0.595 -0.2329  0.0779 -0.3979
 3821TIP3    H132954   5.462   5.091   0.622  1.0393 -0.4830  1.2075
 3821TIP3    H232955   5.491   5.239   0.638 -1.4258  0.4563 -1.8714
 3822TIP3   OH232956   1.292   6.814  15.797 -0.4076  0.4721  0.5440
 3822TIP3    H132957   1.323   6.732  15.836 -0.4203 -0.0792 -0.5676
 3822TIP3    H232958   1.198   6.802  15.785 -0.6169  1.1107  1.4398
 3823TIP3   OH232959   4.959   6.561  16.495 -0.2582 -0.2225 -0.5050
 3823TIP3    H132960   4.949   6.471  16.526  1.4833 -0.6329 -1.0287
 3823TIP3    H232961   4.984   6.552  16.403  2.1171  0.6500 -0.0274
 3824TIP3   OH232962   2.156   5.232   6.079 -0.5114  0.1035 -0.7000
 3824TIP3    H132963   2.216   5.229   6.004 -1.2475 -0.8672 -1.2588
 3824TIP3    H232964   2.170   5.320   6.116  0.1841  0.4349 -1.6938
 3825TIP3   OH232965   4.278   5.485   2.900 -0.0834 -0.2588 -0.1323
 3825TIP3    H132966   4.305   5.509   2.989 -0.7830 -0.4797  0.1493
 3825TIP3    H232967   4.196   5.438   2.912  0.0629 -0.7191 -0.8645
 3826TIP3   OH232968   4.061   0.490  14.454  0.3770  0.9521 -0.3922
 3826TIP3    H132969   4.085   0.405  14.416 -0.5120  0.2995  0.4597
 3826TIP3    H232970   4.145   0.529  14.480  0.9483  1.1444 -2.4072
 3827TIP3   OH232971   0.700   1.402   4.218 -0.5283  0.1658 -0.3005
 3827TIP3    H132972   0.706   1.491   4.183  0.5037  0.0461 -0.4673
 3827TIP3    H232973   0.680   1.414   4.311  0.6574  0.6226 -0.0814
 3828TIP3   OH232974   5.617   2.858   2.338  0.0425 -0.7047  0.1142
 3828TIP3    H132975   5.570   2.851   2.255 -1.2239 -0.1463  0.7672
 3828TIP3    H232976   5.571   2.926   2.387  0.3160 -1.5356  1.5866
 3829TIP3   OH232977   2.975   0.253  10.764 -0.0984  0.4417  0.0045
 3829TIP3    H132978   3.063   0.271  10.730  0.4856  2.1315  2.1710
 3829TIP3    H232979   2.980   0.162  10.795  0.6472  0.2916 -0.5247
 3830TIP3   OH232980   0.324   1.373   6.744  0.1974 -0.3805 -0.5913
 3830TIP3    H132981   0.300   1.280   6.752 -1.0132 -0.0090  0.3894
 3830TIP3    H232982   0.241   1.420   6.750  0.4371  0.6822 -3.7555
 3831TIP3   OH232983   2.896   3.562  16.174 -0.0773 -0.4391  0.1821
 3831TIP3    H132984   2.888   3.467  16.181  3.8831 -0.9817 -0.4177
 3831TIP3    H232985   2.912   3.591  16.264  1.5351 -0.7672  0.0220
 3832TIP3   OH232986   6.369   3.201   0.239 -0.3398  0.0528  0.3893
 3832TIP3    H132987   6.306   3.268   0.212 -0.3104 -0.2659 -0.4842
 3832TIP3    H232988   6.429   3.193   0.165  0.5158  0.0836  1.0681
 3833TIP3   OH232989   4.724   6.481   1.796 -0.3093  0.3547 -0.1334
 3833TIP3    H132990   4.807   6.462   1.752 -0.7658 -0.9738 -0.4721
 3833TIP3    H232991   4.658   6.467   1.729 -0.8690  0.4700  0.3916
 3834TIP3   OH232992   6.669   3.180  12.248 -0.0580  0.1338 -0.2079
 3834TIP3    H132993   6.619   3.164  12.328 -0.9059  1.6031 -0.3980
 3834TIP3    H232994   6.627   3.124  12.182 -0.6902  0.4512 -0.0832
 3835TIP3   OH232995   1.181   3.211  11.068  0.1714 -0.2971  0.4042
 3835TIP3    H132996   1.150   3.156  11.140 -0.8483 -1.5682 -0.9366
 3835TIP3    H232997   1.179   3.154  10.991 -2.2296  1.9088 -1.3578
 3836TIP3   OH232998   2.840   1.770   1.280  0.7223  0.0762 -0.3764
 3836TIP3    H132999   2.887   1.846   1.315  0.5803 -0.5029  1.1013
 3836TIP3    H233000   2.897   1.695   1.298 -0.1612 -0.4594  0.2354
 3837TIP3   OH233001   2.480   1.137  15.944  0.4470  0.0657  0.1018
 3837TIP3    H133002   2.472   1.042  15.936  1.3040  0.0429 -0.6504
 3837TIP3    H233003   2.424   1.172  15.874  0.2916  0.1054  0.2470
 3838TIP3   OH233004   3.530   0.244  15.422 -0.7572  0.0801  0.0041
 3838TIP3    H133005   3.473   0.320  15.409  1.0419  1.4359 -0.3342
 3838TIP3    H233006   3.604   0.278  15.471 -0.0650 -1.5582  0.1502
 3839TIP3   OH233007   3.441   4.099   3.659 -0.3747 -0.2870  0.2431
 3839TIP3    H133008   3.362   4.088   3.713  0.4474 -0.0357  1.5457
 3839TIP3    H233009   3.504   4.141   3.717  0.9684 -1.1383 -0.5367
 3840TIP3   OH233010   5.091   0.697   5.271  0.3085 -0.4148 -0.0831
 3840TIP3    H133011   5.128   0.760   5.333  0.1777  1.5622 -1.8987
 3840TIP3    H233012   5.062   0.624   5.325  2.7136 -0.0397  1.8835
 3841TIP3   OH233013   3.843   5.543  16.247  0.2761 -0.7499  0.1198
 3841TIP3    H133014   3.776   5.497  16.196  0.3716 -0.3199 -0.3993
 3841TIP3    H233015   3.848   5.630  16.208  0.9788 -0.7041  0.2981
 3842TIP3   OH233016   4.794   0.491   2.726  0.1435  0.9661  0.3678
 3842TIP3    H133017   4.728   0.543   2.772  1.3267  1.3432  1.7156
 3842TIP3    H233018   4.874   0.502   2.778  0.9053 -0.6858 -0.3728
 3843TIP3   OH233019   4.167   0.380  11.478  0.3430  0.1290 -0.0903
 3843TIP3    H133020   4.121   0.358  11.397 -0.7861 -0.5560  0.7078
 3843TIP3    H233021   4.152   0.474  11.489  0.5481  0.2342 -0.7016
 3844TIP3   OH233022   6.364   6.435  13.892 -0.1088  0.3461  0.6263
 3844TIP3    H133023   6.273   6.437  13.924  0.0272  0.1914  1.0204
 3844TIP3    H233024   6.398   6.351  13.922  0.1257  0.3504  0.3664
 3845TIP3   OH233025   3.417   5.843  13.069 -0.2181  0.7940  0.4853
 3845TIP3    H133026   3.381   5.925  13.036 -0.2133 -0.0032 -1.6885
 3845TIP3    H233027   3.362   5.821  13.144 -2.7514  0.8531 -1.2364
 3846TIP3   OH233028   6.385   6.545  11.658  0.3322  0.1118 -0.2936
 3846TIP3    H133029   6.292   6.523  11.652  0.5619 -0.8731 -0.3664
 3846TIP3    H233030   6.410   6.565  11.567  0.4044 -0.5472 -0.4248
 3847TIP3   OH233031   4.279   6.546   2.130 -0.6386  0.2004 -0.3001
 3847TIP3    H133032   4.340   6.473   2.117  1.5710  1.8553  0.1679
 3847TIP3    H233033   4.242   6.562   2.043  1.0690  0.3283 -1.0508
 3848TIP3   OH233034   6.667   4.083   3.176 -0.2567 -0.1748  0.0944
 3848TIP3    H133035   6.622   4.106   3.095  0.8801  0.7352 -0.3159
 3848TIP3    H233036   6.690   4.167   3.216 -0.5564 -0.6115  1.2331
 3849TIP3   OH233037   5.332   2.284  16.847  0.5186  0.1766  0.3152
 3849TIP3    H133038   5.282   2.203  16.858  0.0718  0.3417 -0.4452
 3849TIP3    H233039   5.289   2.329  16.774  0.9474  0.9584  0.5354
 3850TIP3   OH233040   3.969   5.089   3.071 -0.9721 -0.5836 -0.2468
 3850TIP3    H133041   3.992   5.048   3.155  1.2014 -0.7645 -0.8634
 3850TIP3    H233042   3.904   5.030   3.033 -0.0853 -1.9094  0.2079
 3851TIP3   OH233043   3.831   4.131   6.526 -0.2755  0.0006  0.4056
 3851TIP3    H133044   3.826   4.201   6.461 -2.1056 -0.3407  0.1377
 3851TIP3    H233045   3.747   4.133   6.571 -1.0925 -3.0371 -0.7135
 3852TIP3   OH233046   5.568   0.655   4.346  0.6384 -0.2527  0.8522
 3852TIP3    H133047   5.520   0.737   4.341 -0.4255 -0.8477  1.0846
 3852TIP3    H233048   5.547   0.619   4.432 -0.3753 -1.6339  0.0659
 3853TIP3   OH233049   4.953   2.505  16.855  0.0962  0.0415 -0.5831
 3853TIP3    H133050   4.958   2.457  16.938 -1.7961 -0.2947 -0.6181
 3853TIP3    H233051   5.036   2.486  16.811 -0.1395 -2.3686 -0.1367
 3854TIP3   OH233052   5.562   2.343  11.565 -0.1536  0.5879  0.1503
 3854TIP3    H133053   5.655   2.324  11.564 -0.4405 -0.9159 -0.5249
 3854TIP3    H233054   5.541   2.358  11.657  0.5705 -0.0603  0.4264
 3855TIP3   OH233055   1.337   3.757  12.057 -0.4522  0.4160  0.6000
 3855TIP3    H133056   1.404   3.823  12.038 -1.0991  0.7934 -0.4241
 3855TIP3    H233057   1.381   3.673  12.043 -0.2471  0.6614 -0.2548
 3856TIP3   OH233058   1.228   4.694  14.736 -0.1588 -0.5140  0.1131
 3856TIP3    H133059   1.305   4.736  14.699  0.4342 -0.3914  1.4123
 3856TIP3    H233060   1.154   4.742  14.698  0.3392 -1.1189 -1.7314
 3857TIP3   OH233061   5.520   0.651  15.416  0.5946  0.4406  0.6209
 3857TIP3    H133062   5.489   0.615  15.332 -2.2069  0.4950  1.5442
 3857TIP3    H233063   5.588   0.714  15.391 -0.9591  1.3056 -1.7343
 3858TIP3   OH233064   5.525   4.876   0.236  0.0527 -0.3914 -0.9306
 3858TIP3    H133065   5.575   4.879   0.317 -1.2909 -0.9201 -0.0443
 3858TIP3    H233066   5.587   4.904   0.168  0.6578  2.0632  0.5133
 3859TIP3   OH233067   6.219   1.506  12.294 -0.1702  0.0540  0.0781
 3859TIP3    H133068   6.166   1.570  12.246  0.8904  1.5864  0.8590
 3859TIP3    H233069   6.223   1.540  12.383  1.5490 -0.3615  0.2048
 3860TIP3   OH233070   2.042   0.465   2.992 -1.1273 -0.1446 -0.3507
 3860TIP3    H133071   1.988   0.540   3.017  0.5698  0.3067  2.3000
 3860TIP3    H233072   1.982   0.406   2.947 -3.6714  0.6417  1.7896
 3861TIP3   OH233073   5.414   6.257  13.657  0.3990 -0.7063  0.4612
 3861TIP3    H133074   5.456   6.225  13.737  0.5898 -0.4331  0.4733
 3861TIP3    H233075   5.326   6.219  13.659  0.7563 -1.5690  0.2604
 3862TIP3   OH233076   0.307   3.922   6.026  0.0245  0.5236 -0.5983
 3862TIP3    H133077   0.261   4.003   6.049  0.7845  1.0522 -0.8988
 3862TIP3    H233078   0.380   3.950   5.971  1.9131 -0.0624  1.4719
 3863TIP3   OH233079   6.102   5.439   5.712  1.0709 -0.5237  0.0042
 3863TIP3    H133080   6.064   5.407   5.630 -1.5788  0.3088  0.8117
 3863TIP3    H233081   6.052   5.395   5.781  2.1436  0.0275  1.1822
 3864TIP3   OH233082   5.354   0.455   5.797  0.5652 -0.3987 -0.2056
 3864TIP3    H133083   5.300   0.484   5.870 -0.3646  1.7470 -1.6376
 3864TIP3    H233084   5.429   0.514   5.798  0.9162 -0.8266 -0.5756
 3865TIP3   OH233085   5.289   3.238  15.221  0.0121  0.5485  0.2849
 3865TIP3    H133086   5.346   3.280  15.156  0.4700 -0.9026 -0.2860
 3865TIP3    H233087   5.202   3.239  15.180  0.1775  0.2120 -0.0858
 3866TIP3   OH233088   3.958   5.792  15.153  0.3343 -0.2610 -0.5702
 3866TIP3    H133089   3.889   5.736  15.188 -0.9575  0.8936 -1.1469
 3866TIP3    H233090   3.999   5.830  15.230 -0.2658 -0.2916 -0.2263
 3867TIP3   OH233091   1.968   0.428  15.437 -0.0531  0.0149 -0.1207
 3867TIP3    H133092   1.895   0.407  15.495 -0.1163 -1.4377 -0.6800
 3867TIP3    H233093   2.026   0.483  15.490 -1.0817  0.4166  0.6328
 3868TIP3   OH233094   0.326   1.135   4.155 -0.5871 -0.2101  0.5587
 3868TIP3    H133095   0.351   1.042   4.160 -1.3163 -0.3743  1.3979
 3868TIP3    H233096   0.391   1.174   4.096 -0.8645 -1.4472 -0.6156
 3869TIP3   OH233097   4.822   4.398  15.472 -0.6586 -0.0781  0.4951
 3869TIP3    H133098   4.900   4.344  15.484  1.8673  2.2648 -3.1759
 3869TIP3    H233099   4.764   4.344  15.418 -0.0680 -0.6513  0.4245
 3870TIP3   OH233100   6.784   2.233   3.903 -0.6088 -0.1824  0.0057
 3870TIP3    H133101   6.750   2.234   3.993 -0.1814 -1.0706  0.1818
 3870TIP3    H233102   6.875   2.207   3.912 -0.9479 -1.7415 -0.7976
 3871TIP3   OH233103   4.383   4.710   0.085 -0.1613 -0.1586 -0.1865
 3871TIP3    H133104   4.318   4.753   0.141 -0.4139 -0.0471 -0.5620
 3871TIP3    H233105   4.467   4.734   0.123 -0.2998  0.6526 -0.3810
 3872TIP3   OH233106   0.885   4.586   1.993 -0.2548 -0.0866  0.2411
 3872TIP3    H133107   0.941   4.579   2.070  0.2291 -0.6209 -0.1526
 3872TIP3    H233108   0.859   4.496   1.974 -0.0102 -0.0064 -0.4791
 3873TIP3   OH233109   0.506   1.946  15.817  0.0389 -0.4658 -0.2108
 3873TIP3    H133110   0.469   1.890  15.749  2.2915 -1.6595 -0.5680
 3873TIP3    H233111   0.590   1.905  15.838 -0.1161  0.4425  2.5818
 3874TIP3   OH233112   3.706   5.659  16.814 -0.2102  0.4215  0.3567
 3874TIP3    H133113   3.683   5.583  16.867  1.4867  0.8625  1.8148
 3874TIP3    H233114   3.779   5.630  16.760 -0.0743  0.7909  0.3365
 3875TIP3   OH233115   4.951   0.873  14.758  0.3957 -0.3374  0.1017
 3875TIP3    H133116   4.976   0.874  14.666 -0.2387  0.6816 -0.0658
 3875TIP3    H233117   4.860   0.843  14.758 -0.3915  1.9096  0.1715
 3876TIP3   OH233118   0.686   2.664  16.499  0.1058  0.3030  0.5105
 3876TIP3    H133119   0.667   2.757  16.491 -1.9181 -0.0216  0.8205
 3876TIP3    H233120   0.645   2.638  16.583 -2.8642 -1.5531 -1.3059
 3877TIP3   OH233121   4.735   0.507  16.573  0.0256 -0.1257 -0.2277
 3877TIP3    H133122   4.678   0.442  16.533  0.5360 -1.5170  1.1814
 3877TIP3    H233123   4.813   0.508  16.518 -1.2151  1.6926 -2.0901
 3878TIP3   OH233124   2.724   6.137  14.684  0.1123  0.0433 -0.2329
 3878TIP3    H133125   2.716   6.113  14.776 -0.7480 -1.6493 -0.6931
 3878TIP3    H233126   2.805   6.095  14.655 -0.3922 -0.7349 -0.5743
 3879TIP3   OH233127   3.239   3.657  14.596  0.6084  0.8515 -0.8339
 3879TIP3    H133128   3.229   3.717  14.671  0.9972  0.2275 -0.2724
 3879TIP3    H233129   3.319   3.686  14.553  2.2359 -0.7785  0.9026
 3880TIP3   OH233130   5.566   5.102   2.510 -0.2536  0.1393 -0.5902
 3880TIP3    H133131   5.626   5.139   2.575 -1.3139 -0.7231  0.9494
 3880TIP3    H233132   5.481   5.139   2.532 -0.8236 -1.0141 -0.7699
 3881TIP3   OH233133   3.245   0.887  11.113  0.3459  0.0037  0.0546
 3881TIP3    H133134   3.278   0.977  11.115  0.5999 -0.0876 -0.0075
 3881TIP3    H233135   3.225   0.870  11.021  0.4882 -0.0716  0.0373
 3882TIP3   OH233136   4.518   0.301  15.947  0.8305 -0.0657  0.2006
 3882TIP3    H133137   4.562   0.261  16.022 -1.8746 -0.7490  1.5629
 3882TIP3    H233138   4.501   0.228  15.887  0.6794  0.0041  0.1578
 3883TIP3   OH233139   4.056   3.340   4.783 -0.1853  0.1508 -0.4101
 3883TIP3    H133140   4.139   3.381   4.758  0.2130 -0.7877 -0.6367
 3883TIP3    H233141   4.040   3.374   4.871  0.5109  0.2410 -0.3065
 3884TIP3   OH233142   3.712   4.376  13.579 -0.8723 -0.2422  0.0569
 3884TIP3    H133143   3.697   4.462  13.539  2.4544  1.4896  2.0224
 3884TIP3    H233144   3.743   4.397  13.668  0.2065 -3.4703  0.5757
 3885TIP3   OH233145   5.455   5.770   1.873 -0.2155  0.1322 -0.0046
 3885TIP3    H133146   5.404   5.690   1.864  0.8344 -0.5852  0.2083
 3885TIP3    H233147   5.480   5.773   1.965  0.5722  0.1662 -0.2044
 3886TIP3   OH233148   4.469   5.818  11.918 -0.4412  0.1828  0.4834
 3886TIP3    H133149   4.377   5.846  11.922 -0.5915 -0.4101  1.8151
 3886TIP3    H233150   4.519   5.899  11.932 -0.6098  1.0809 -3.2100
 3887TIP3   OH233151   4.748   3.696   0.495  0.3513 -0.2063 -0.1952
 3887TIP3    H133152   4.712   3.732   0.414 -0.9074  0.0241  0.4436
 3887TIP3    H233153   4.810   3.629   0.466 -0.4097 -0.4440 -1.3433
 3888TIP3   OH233154   2.964   0.867   1.328 -0.3837 -0.2693  0.1770
 3888TIP3    H133155   2.920   0.901   1.250 -1.0563  0.1791  0.7369
 3888TIP3    H233156   2.966   0.941   1.389 -2.1318 -1.2655  1.5309
 3889TIP3   OH233157   3.776   1.901   0.911 -0.2125  0.1582  0.2257
 3889TIP3    H133158   3.811   1.814   0.894  0.0851  0.4897 -0.9209
 3889TIP3    H233159   3.837   1.960   0.868  0.5104  1.0637  2.3407
 3890TIP3   OH233160   6.186   4.111  16.350 -0.2148  0.0254  0.3554
 3890TIP3    H133161   6.146   4.181  16.401  3.6048  3.1205 -0.3618
 3890TIP3    H233162   6.138   4.111  16.267 -0.7435  1.3517  0.6408
 3891TIP3   OH233163   4.978   4.673   4.297 -0.2212 -0.2241 -0.1950
 3891TIP3    H133164   5.020   4.758   4.310  0.7096 -0.8664  1.2009
 3891TIP3    H233165   4.942   4.649   4.383 -2.2744 -0.3523 -1.0116
 3892TIP3   OH233166   3.123   5.002   3.764  0.1938  0.1943 -0.3870
 3892TIP3    H133167   3.068   5.079   3.758  1.3969  0.9654 -3.5187
 3892TIP3    H233168   3.100   4.950   3.687  0.5858 -1.7947  0.7678
 3893TIP3   OH233169   0.335   6.670  11.815  0.1082 -0.1339 -0.0646
 3893TIP3    H133170   0.359   6.577  11.810  1.2793  0.0529  1.5718
 3893TIP3    H233171   0.316   6.685  11.907 -2.8932  0.6410 -0.6847
 3894TIP3   OH233172   1.487   0.615  15.152 -0.1457 -0.1504  0.0451
 3894TIP3    H133173   1.456   0.551  15.216  0.4516 -0.0359  0.4528
 3894TIP3    H233174   1.577   0.633  15.178  0.3481 -0.6420 -1.2497
 3895TIP3   OH233175   0.923   0.465  11.392 -0.5271  0.3448 -0.1523
 3895TIP3    H133176   0.923   0.553  11.353 -0.6438 -0.1413 -1.2855
 3895TIP3    H233177   0.838   0.429  11.370  0.6110 -1.1903 -2.4445
 3896TIP3   OH233178   4.482   2.985  15.436 -0.1205 -0.1576 -0.1900
 3896TIP3    H133179   4.566   2.970  15.482 -0.4092  1.3678  0.9263
 3896TIP3    H233180   4.416   2.948  15.495 -0.2609 -1.4145 -1.0987
 3897TIP3   OH233181   1.931   6.369  15.577  0.3668 -0.5311  0.3897
 3897TIP3    H133182   2.002   6.306  15.566  1.0534 -0.0366  1.7180
 3897TIP3    H233183   1.937   6.425  15.500  0.1886 -1.6413 -0.4615
 3898TIP3   OH233184   3.550   0.133  15.182  0.2312 -0.2379 -0.4674
 3898TIP3    H133185   3.528   0.145  15.274 -0.8954 -1.7481 -0.4948
 3898TIP3    H233186   3.645   0.126  15.180  0.1759 -2.4482  0.9247
 3899TIP3   OH233187   3.388   2.102  12.755  0.0702  0.6085 -0.1657
 3899TIP3    H133188   3.378   2.180  12.701 -0.1707  0.5845 -0.1581
 3899TIP3    H233189   3.422   2.134  12.839 -1.4924  0.9165  0.3892
 3900TIP3   OH233190   5.617   3.479   2.261 -0.2240 -0.1176 -0.0697
 3900TIP3    H133191   5.600   3.394   2.220  2.7154 -0.9353  0.1846
 3900TIP3    H233192   5.536   3.528   2.250 -1.5025 -2.4196 -1.5708
 3901TIP3   OH233193   3.761   2.209   0.833  0.0362 -0.5308 -0.4489
 3901TIP3    H133194   3.723   2.289   0.872 -0.2246 -0.9096  0.0989
 3901TIP3    H233195   3.831   2.241   0.776 -2.5229  0.3954 -3.3468
 3902TIP3   OH233196   5.267   5.164  13.425  0.2353  0.6490  0.7107
 3902TIP3    H133197   5.175   5.172  13.402  0.4552  1.2365 -0.0023
 3902TIP3    H233198   5.314   5.208  13.354  1.0378  0.8078  1.3191
 3903TIP3   OH233199   3.796   1.335  14.315 -0.0502  0.1979 -0.0067
 3903TIP3    H133200   3.854   1.369  14.383  0.7713 -0.7833 -0.1962
 3903TIP3    H233201   3.711   1.373  14.334  0.4254  0.8215  0.9037
 3904TIP3   OH233202   2.339   1.723   4.432  0.2422 -0.2599  0.4208
 3904TIP3    H133203   2.308   1.773   4.356 -1.0717 -1.6181  0.0097
 3904TIP3    H233204   2.285   1.754   4.505  2.2568  1.8553  1.1320
 3905TIP3   OH233205   6.799   5.241   4.863  0.1447 -0.6520 -0.1333
 3905TIP3    H133206   6.812   5.245   4.768  1.4241 -0.2164  0.0438
 3905TIP3    H233207   6.869   5.296   4.899  0.4315 -1.7892  1.1218
 3906TIP3   OH233208   3.028   4.353  13.332 -0.3089  0.1462 -0.0543
 3906TIP3    H133209   3.087   4.355  13.407  0.9936 -3.1888 -0.7742
 3906TIP3    H233210   2.950   4.308  13.363  0.1188 -0.9928 -0.5684
 3907TIP3   OH233211   2.288   1.808  16.441  0.4979  0.6853 -0.3161
 3907TIP3    H133212   2.293   1.742  16.510 -0.7352  0.0067 -0.8393
 3907TIP3    H233213   2.219   1.867  16.470 -0.1777  0.2763 -1.0493
 3908TIP3   OH233214   5.270   2.190   3.084  0.0416 -0.1384 -0.0952
 3908TIP3    H133215   5.354   2.234   3.095  0.5893 -1.2411  0.3913
 3908TIP3    H233216   5.205   2.252   3.116  0.8770 -0.0730  1.5748
 3909TIP3   OH233217   0.548   0.462  13.426 -0.0213  0.1001 -0.3637
 3909TIP3    H133218   0.488   0.513  13.481 -0.1967 -0.4176 -0.0715
 3909TIP3    H233219   0.542   0.373  13.460 -0.7773 -0.4104 -1.7525
 3910TIP3   OH233220   3.259   6.215  15.157  0.0980  0.0385 -0.1846
 3910TIP3    H133221   3.257   6.311  15.150 -0.5527 -0.0313 -1.1049
 3910TIP3    H233222   3.167   6.189  15.149  0.4322 -0.7742 -1.8686
 3911TIP3   OH233223   1.351   1.813   0.813  0.0947 -0.1241 -0.2781
 3911TIP3    H133224   1.329   1.829   0.721  0.2448  0.3525 -0.2359
 3911TIP3    H233225   1.444   1.832   0.818  0.2030 -0.6914 -0.1419
 3912TIP3   OH233226   1.311   1.087  15.046 -0.3018 -0.2187 -0.0036
 3912TIP3    H133227   1.297   1.111  15.137 -1.7426 -0.4373 -0.1541
 3912TIP3    H233228   1.348   0.999  15.050  0.4821  0.1146  0.3787
 3913TIP3   OH233229   6.286   5.261  11.471 -0.2610  0.2579 -0.2882
 3913TIP3    H133230   6.302   5.225  11.383 -0.5596 -0.0304 -0.2244
 3913TIP3    H233231   6.209   5.317  11.461 -1.0023 -0.6879  0.0304
 3914TIP3   OH233232   2.800   3.846  11.690 -0.7384  0.1507  0.1315
 3914TIP3    H133233   2.807   3.895  11.772 -2.1866  0.9398 -0.1911
 3914TIP3    H233234   2.706   3.834  11.677 -0.4722 -1.9538 -0.2713
 3915TIP3   OH233235   1.365   1.514  15.622  0.2380 -0.2197 -0.3458
 3915TIP3    H133236   1.309   1.539  15.549  0.5199  0.5746 -0.3024
 3915TIP3    H233237   1.420   1.591  15.637 -0.8219  0.2098  1.6674
 3916TIP3   OH233238   4.387   1.530   2.682 -0.4160  0.0959  0.6395
 3916TIP3    H133239   4.305   1.501   2.641 -1.6190  2.8557  0.8893
 3916TIP3    H233240   4.448   1.539   2.609 -1.0789  0.3449  0.1079
 3917TIP3   OH233241   3.785   0.155  15.746 -0.0677  0.2959 -0.0561
 3917TIP3    H133242   3.822   0.153  15.834 -0.1866 -0.6562 -0.0100
 3917TIP3    H233243   3.690   0.155  15.760 -0.0892 -0.0616 -0.1742
 3918TIP3   OH233244   2.322   5.450  16.404  0.3407 -0.1146 -0.2770
 3918TIP3    H133245   2.273   5.506  16.465 -0.1984 -0.0851 -0.7253
 3918TIP3    H233246   2.388   5.407  16.458 -0.8699 -0.9830  0.5804
 3919TIP3   OH233247   0.795   4.355   1.918  0.0774 -0.6963 -0.4657
 3919TIP3    H133248   0.828   4.276   1.876  0.4014 -0.9781  0.2936
 3919TIP3    H233249   0.704   4.363   1.888  0.5674 -0.3856 -1.9052
 3920TIP3   OH233250   2.974   1.999   1.380  0.4016  0.1367 -0.1262
 3920TIP3    H133251   2.975   1.963   1.468  0.3663  0.3515 -0.0365
 3920TIP3    H233252   3.057   2.047   1.372  0.3866  0.1519 -0.1931
 3921TIP3   OH233253   5.934   1.299  17.189 -0.0223  0.1053  0.1203
 3921TIP3    H133254   5.983   1.352  17.125  1.5519 -1.3731  0.0215
 3921TIP3    H233255   6.001   1.250  17.236 -1.3853 -2.1220 -0.0877
 3922TIP3   OH233256   6.784   0.219  11.644 -0.1387 -0.5017  0.2692
 3922TIP3    H133257   6.717   0.209  11.577  1.6734  0.4009 -1.8177
 3922TIP3    H233258   6.843   0.144  11.631  0.5891  0.0317  0.3877
 3923TIP3   OH233259   2.966   3.140   3.399  0.0417  0.8302 -0.1299
 3923TIP3    H133260   3.019   3.062   3.414 -1.2571  0.0525  0.5481
 3923TIP3    H233261   3.016   3.190   3.334  1.7524  0.2990  0.7009
 3924TIP3   OH233262   1.839   5.953  16.135  0.2002 -0.1012  0.8144
 3924TIP3    H133263   1.895   5.943  16.058 -0.9081 -2.7268  0.2345
 3924TIP3    H233264   1.778   6.022  16.113  1.7470  1.2470  0.5788
 3925TIP3   OH233265   0.504   5.439  13.875 -0.2869  0.7148 -0.2173
 3925TIP3    H133266   0.412   5.429  13.900 -0.2663  2.5233  0.7877
 3925TIP3    H233267   0.504   5.514  13.815  0.2122 -1.0348 -2.5234
 3926TIP3   OH233268   3.702   2.183  13.598 -0.7368 -0.6896 -0.0650
 3926TIP3    H133269   3.617   2.222  13.620 -2.2060 -2.6684 -1.8006
 3926TIP3    H233270   3.733   2.145  13.680 -1.9687 -0.6629  0.4398
 3927TIP3   OH233271   1.152   3.031   6.041 -0.8901 -0.9022  0.0202
 3927TIP3    H133272   1.084   3.026   5.973 -1.6968 -0.6181  0.7981
 3927TIP3    H233273   1.104   3.051   6.121  0.3868  2.2362  0.1090
 3928TIP3   OH233274   5.497   1.925   4.186  1.1754  0.3632  0.0016
 3928TIP3    H133275   5.553   1.871   4.131 -0.4259 -3.0357  1.4252
 3928TIP3    H233276   5.542   1.929   4.270  0.1242 -1.1418  0.6996
 3929TIP3   OH233277   6.579   0.901   2.101 -0.2889 -0.6145 -0.1442
 3929TIP3    H133278   6.485   0.911   2.084 -0.3363 -2.0805 -0.8799
 3929TIP3    H233279   6.584   0.827   2.162  0.4329 -1.0310 -0.7024
 3930TIP3   OH233280   2.816   3.705  17.177 -0.2860 -0.1198  0.1295
 3930TIP3    H133281   2.845   3.743  17.094  2.4388 -1.4301  0.3531
 3930TIP3    H233282   2.739   3.653  17.155  0.7908 -1.0121 -1.7720
 3931TIP3   OH233283   4.693   1.585  10.661 -0.6309 -0.1507 -0.1149
 3931TIP3    H133284   4.605   1.575  10.698 -1.7689 -2.1614 -2.9476
 3931TIP3    H233285   4.718   1.496  10.635  2.4673  0.2950  0.8780
 3932TIP3   OH233286   2.115   0.193  13.014  0.1538  0.1779 -0.4772
 3932TIP3    H133287   2.200   0.226  13.042  0.9730 -1.8740 -0.3759
 3932TIP3    H233288   2.059   0.200  13.091  0.7208 -0.0688 -0.0445
 3933TIP3   OH233289   6.283   0.412  16.491 -0.0516 -0.3825 -0.0802
 3933TIP3    H133290   6.294   0.422  16.396 -1.6265 -0.8082 -0.3286
 3933TIP3    H233291   6.287   0.502  16.524 -0.6068 -0.1259 -0.6888
 3934TIP3   OH233292   1.790   6.765   3.883  0.3890 -0.5594 -0.2666
 3934TIP3    H133293   1.777   6.679   3.843  1.7122 -0.9774  0.1575
 3934TIP3    H233294   1.702   6.792   3.911 -0.5500 -0.4600 -2.9594
 3935TIP3   OH233295   6.544   1.887   5.796  0.0223  0.1885  0.1301
 3935TIP3    H133296   6.601   1.844   5.859  1.3765 -0.7427 -1.6373
 3935TIP3    H233297   6.463   1.836   5.797  1.0578 -1.5496 -0.8543
 3936TIP3   OH233298   5.502   0.893   0.090  0.0244 -0.2285  0.1137
 3936TIP3    H133299   5.592   0.919   0.112 -0.9922  2.9488  1.0144
 3936TIP3    H233300   5.481   0.944   0.012 -0.6232 -1.9335 -0.8772
 3937TIP3   OH233301   2.590   2.873   3.343 -0.4401  0.1889 -0.3093
 3937TIP3    H133302   2.564   2.782   3.355  0.5573 -0.3876 -2.1619
 3937TIP3    H233303   2.680   2.877   3.375 -0.7874  0.7642  0.6293
 3938TIP3   OH233304   5.023   1.407  16.460  0.1659  0.4691  0.6803
 3938TIP3    H133305   4.938   1.449  16.471 -0.2735  0.8949 -2.9264
 3938TIP3    H233306   5.012   1.319  16.496 -0.8225  1.3975  2.8373
 3939TIP3   OH233307   4.491   0.333   1.145  0.4133  0.3034 -0.7096
 3939TIP3    H133308   4.432   0.351   1.072  0.9825  0.6391 -1.0927
 3939TIP3    H233309   4.578   0.334   1.106  0.6198 -1.3349 -0.3841
 3940TIP3   OH233310   2.578   1.927   4.553  0.0596 -0.1345 -0.1664
 3940TIP3    H133311   2.615   1.961   4.635  0.8296  0.0846 -0.6030
 3940TIP3    H233312   2.578   1.832   4.565 -2.3572 -0.0388  1.1715
 3941TIP3   OH233313   3.827   2.098   3.161  0.0793 -0.2176 -0.2896
 3941TIP3    H133314   3.909   2.059   3.193 -0.0089  0.9223  1.4339
 3941TIP3    H233315   3.759   2.039   3.192  0.1725 -0.8092 -1.1582
 3942TIP3   OH233316   0.959   4.590   3.602 -0.0589 -0.2097  0.1116
 3942TIP3    H133317   0.975   4.684   3.610 -0.3920  0.2639 -3.2988
 3942TIP3    H233318   1.043   4.554   3.574 -0.8887 -0.1761 -2.6782
 3943TIP3   OH233319   0.621   0.199   2.699 -0.4186 -0.5098  0.1115
 3943TIP3    H133320   0.620   0.104   2.710 -2.1662 -0.6863 -1.1161
 3943TIP3    H233321   0.633   0.212   2.605 -0.5047  0.4838  0.2311
 3944TIP3   OH233322   6.628   5.529   2.932  0.2585  0.0552  0.3729
 3944TIP3    H133323   6.660   5.466   2.868 -1.0274  0.6531 -0.9324
 3944TIP3    H233324   6.603   5.605   2.879  0.4345  1.0938  1.7488
 3945TIP3   OH233325   5.684   6.176   1.253 -0.0287  0.4805  0.5293
 3945TIP3    H133326   5.746   6.205   1.186 -1.5651 -0.6248 -1.4985
 3945TIP3    H233327   5.598   6.187   1.212 -1.1025  0.4575  2.6388
 3946TIP3   OH233328   4.526   5.139   5.046 -0.1731  0.0876  0.4948
 3946TIP3    H133329   4.441   5.152   5.003  0.6346  1.7263 -0.7260
 3946TIP3    H233330   4.539   5.218   5.099 -0.5182 -1.2952  2.7572
 3947TIP3   OH233331   1.664   4.824   5.675  0.3684  0.0585 -0.1185
 3947TIP3    H133332   1.712   4.902   5.647  1.0504 -0.9635 -1.8752
 3947TIP3    H233333   1.706   4.752   5.629  0.6090 -1.5677  2.4683
 3948TIP3   OH233334   0.519   1.811   4.150 -0.0505  0.1650  0.2025
 3948TIP3    H133335   0.487   1.774   4.068  2.6421  0.3614 -1.0688
 3948TIP3    H233336   0.463   1.774   4.218 -2.1616 -0.2628 -1.6903
 3949TIP3   OH233337   3.706   2.844   4.575 -0.5981  0.2117 -0.2568
 3949TIP3    H133338   3.792   2.815   4.607 -1.1318 -1.1502  0.0275
 3949TIP3    H233339   3.718   2.937   4.554  1.3726 -0.2965 -1.7103
 3950TIP3   OH233340   3.701   4.851  16.194  0.6160  0.1289  0.3570
 3950TIP3    H133341   3.694   4.943  16.218 -0.4650  0.1432  0.0478
 3950TIP3    H233342   3.610   4.823  16.178  0.9635 -0.8699  0.0268
 3951TIP3   OH233343   4.142   4.617   3.480  0.8514 -0.3925 -0.7041
 3951TIP3    H133344   4.085   4.544   3.507 -0.8437  0.6157 -1.3967
 3951TIP3    H233345   4.192   4.582   3.407  2.4986 -1.8573  0.9971
 3952TIP3   OH233346   0.926   4.938  15.488  0.2441 -0.3724  0.9648
 3952TIP3    H133347   0.856   4.938  15.553 -0.5603 -2.9610  0.2161
 3952TIP3    H233348   0.884   4.912  15.406  1.4384  1.6995 -0.3831
 3953TIP3   OH233349   2.417   5.810  15.791  0.0194  0.2129  0.1680
 3953TIP3    H133350   2.479   5.806  15.718 -0.5891  0.7363 -0.3949
 3953TIP3    H233351   2.386   5.900  15.792 -1.4733 -0.2655 -0.2098
 3954TIP3   OH233352   1.464   2.631   5.715 -0.9002  0.2024 -0.0167
 3954TIP3    H133353   1.527   2.698   5.740 -0.9349 -0.5376  2.2905
 3954TIP3    H233354   1.382   2.660   5.754 -1.2935 -0.3668 -0.4138
 3955TIP3   OH233355   5.178   5.227   3.300 -0.4035 -0.1780 -0.2013
 3955TIP3    H133356   5.237   5.302   3.304  2.1469 -2.0271 -0.5824
 3955TIP3    H233357   5.113   5.243   3.368  1.5397  1.1925  1.4377
 3956TIP3   OH233358   2.097   6.394   0.932 -0.0303 -0.5708 -0.0033
 3956TIP3    H133359   2.025   6.340   0.963  0.2114  0.7384  3.2258
 3956TIP3    H233360   2.056   6.476   0.906  0.0741 -0.6485 -0.4222
 3957TIP3   OH233361   5.909   6.737   3.076 -0.3167 -0.6568  0.7050
 3957TIP3    H133362   5.931   6.788   3.154  1.0338  1.1836 -0.7724
 3957TIP3    H233363   5.821   6.767   3.051  0.6164  1.4392 -0.3861
 3958TIP3   OH233364   0.185   2.244  12.403  0.4074 -0.2615  0.8075
 3958TIP3    H133365   0.115   2.247  12.469  1.4917  2.0579  1.9567
 3958TIP3    H233366   0.140   2.221  12.322 -1.4011 -0.4920  1.8173
 3959TIP3   OH233367   0.324   1.489  14.162 -0.3986 -0.6495  0.0374
 3959TIP3    H133368   0.378   1.506  14.239 -0.7181  0.2180  0.0781
 3959TIP3    H233369   0.311   1.394  14.163 -0.1641 -0.6835  0.8890
 3960TIP3   OH233370   5.425   6.751   2.127 -0.4127  0.1354 -0.0847
 3960TIP3    H133371   5.419   6.743   2.032 -1.1350 -0.0837 -0.0215
 3960TIP3    H233372   5.427   6.661   2.159  0.9764  0.1833  0.0529
 3961TIP3   OH233373   4.885   0.276  11.921 -0.0876 -0.2768  0.6632
 3961TIP3    H133374   4.904   0.367  11.899  1.3957 -0.5365  0.7546
 3961TIP3    H233375   4.844   0.280  12.007 -0.7025  0.3508  0.3435
 3962TIP3   OH233376   4.745   4.024  11.441  0.2218 -0.9460  0.0834
 3962TIP3    H133377   4.799   4.103  11.438 -0.5793 -0.3762  0.1918
 3962TIP3    H233378   4.777   3.970  11.368 -0.2058  0.1565 -0.9561
 3963TIP3   OH233379   3.754   0.229   2.257  0.8581 -0.0571 -0.2410
 3963TIP3    H133380   3.760   0.242   2.352 -0.7530  2.0642 -0.3607
 3963TIP3    H233381   3.733   0.136   2.247 -0.2658 -0.0463  1.5530
 3964TIP3   OH233382   4.591   2.752   6.658  0.2689  0.1818  0.4526
 3964TIP3    H133383   4.645   2.797   6.593 -1.0827 -0.1248 -0.9264
 3964TIP3    H233384   4.623   2.662   6.658  0.7550  0.3496  0.7702
 3965TIP3   OH233385   1.838   4.159  16.669  0.1898  0.2548  0.2416
 3965TIP3    H133386   1.845   4.196  16.757  0.7942  2.6752 -0.7383
 3965TIP3    H233387   1.801   4.230  16.617 -4.0034 -2.3800 -0.7688
 3966TIP3   OH233388   3.299   2.713  17.138 -0.6914  0.0037  0.0605
 3966TIP3    H133389   3.309   2.783  17.074 -1.2592 -0.7769 -0.9055
 3966TIP3    H233390   3.324   2.634  17.091  0.2341 -0.4240  1.2208
 3967TIP3   OH233391   1.991   3.436  14.919  0.7791 -0.0187 -0.3943
 3967TIP3    H133392   1.928   3.372  14.886  1.1031 -1.4131  1.4719
 3967TIP3    H233393   2.004   3.497  14.847 -0.2524 -1.5484 -1.9635
 3968TIP3   OH233394   1.708   6.611  10.572  0.2875 -0.7601 -0.2242
 3968TIP3    H133395   1.636   6.670  10.597 -0.4778 -2.7025  2.5602
 3968TIP3    H233396   1.781   6.669  10.553 -1.6450  1.2627 -2.2123
 3969TIP3   OH233397   5.718   2.268  13.263  0.4430 -0.1157  0.1773
 3969TIP3    H133398   5.699   2.175  13.253  2.4684 -0.3964 -1.8499
 3969TIP3    H233399   5.766   2.274  13.346 -0.4710 -0.7084  0.7676
 3970TIP3   OH233400   4.427   0.164  11.477  0.0994  0.2522 -0.7796
 3970TIP3    H133401   4.370   0.192  11.549 -0.0287 -0.8143 -0.4525
 3970TIP3    H233402   4.383   0.196  11.398 -0.8984 -0.4451 -0.5204
 3971TIP3   OH233403   4.951   2.858   3.948 -0.0693  0.0749 -0.2042
 3971TIP3    H133404   4.936   2.952   3.942 -0.7220 -0.0320 -0.3029
 3971TIP3    H233405   4.866   2.821   3.970 -0.6368 -0.8239 -3.4014
 3972TIP3   OH233406   4.047   4.904   3.532 -0.1426  0.5914 -0.0843
 3972TIP3    H133407   3.976   4.855   3.490  0.3279 -0.3895  0.2089
 3972TIP3    H233408   4.092   4.838   3.586 -0.5858  1.7585  1.7791
 3973TIP3   OH233409   5.137   1.255   3.719  0.1244 -0.2773 -0.4110
 3973TIP3    H133410   5.179   1.176   3.684 -0.3650 -0.3003 -0.9605
 3973TIP3    H233411   5.206   1.298   3.769 -0.1153 -2.0448  1.5512
 3974TIP3   OH233412   6.805   2.872   6.619  0.2938 -0.4827 -0.0989
 3974TIP3    H133413   6.779   2.953   6.576 -0.7103 -0.5322  0.3815
 3974TIP3    H233414   6.780   2.884   6.711  0.0809 -1.3434 -0.0318
 3975TIP3   OH233415   1.038   1.521  14.346 -0.2182  0.1169  0.2626
 3975TIP3    H133416   1.051   1.546  14.254  0.3437 -0.0784  0.2898
 3975TIP3    H233417   1.088   1.441  14.356 -0.5181 -0.0212  0.6694
 3976TIP3   OH233418   6.639   5.507  14.614  0.4360 -0.0045  0.0473
 3976TIP3    H133419   6.701   5.455  14.562  0.3180 -0.6551  0.5433
 3976TIP3    H233420   6.580   5.546  14.549  1.7174  1.1226 -0.4870
 3977TIP3   OH233421   4.011   2.707  17.183  0.0345 -0.1509 -0.4931
 3977TIP3    H133422   3.917   2.687  17.174  0.0640 -0.0998 -0.9525
 3977TIP3    H233423   4.017   2.799  17.159 -0.1263  0.5004  1.7471
 3978TIP3   OH233424   4.655   3.158  15.625 -0.1232 -0.2741  0.7520
 3978TIP3    H133425   4.746   3.175  15.600 -0.2860  0.1648  0.4505
 3978TIP3    H233426   4.649   3.185  15.716 -0.0965  0.2272  0.6050
 3979TIP3   OH233427   1.484   2.391   1.515 -0.5161 -0.2244 -0.0197
 3979TIP3    H133428   1.401   2.344   1.524 -0.9243  0.4577 -0.1427
 3979TIP3    H233429   1.513   2.406   1.604  0.0059 -1.3573  0.0243
 3980TIP3   OH233430   0.127   5.908   0.848  0.0862 -0.2212 -0.2682
 3980TIP3    H133431   0.045   5.928   0.892  0.9176 -1.8511  2.2253
 3980TIP3    H233432   0.177   5.990   0.853 -0.7741  0.3175 -0.3820
 3981TIP3   OH233433   2.913   3.938   2.235  0.5774  0.3712 -0.3708
 3981TIP3    H133434   2.971   3.957   2.309  1.3979  0.5638 -1.0587
 3981TIP3    H233435   2.827   3.967   2.265  0.4148 -1.7285  1.4124
 3982TIP3   OH233436   3.553   1.032   2.943  0.4659 -0.5011  0.0853
 3982TIP3    H133437   3.589   1.117   2.970 -2.6985  0.2572  2.6116
 3982TIP3    H233438   3.483   1.055   2.881  1.5651 -1.5910 -1.6448
 3983TIP3   OH233439   5.839   5.693   0.564 -0.2177  0.6448  0.0513
 3983TIP3    H133440   5.854   5.777   0.520 -0.8938  1.5470  1.4671
 3983TIP3    H233441   5.924   5.649   0.560  0.6276  2.1274  0.7439
 3984TIP3   OH233442   1.309   0.964  10.936 -0.4359 -0.1029 -0.9774
 3984TIP3    H133443   1.387   0.930  10.894  0.2323  0.9595 -0.6481
 3984TIP3    H233444   1.330   1.055  10.956 -0.9731 -0.3505  0.9940
 3985TIP3   OH233445   2.277   0.276  16.241 -0.3290  0.2246 -0.4633
 3985TIP3    H133446   2.323   0.192  16.236  0.0929  0.3251  1.1352
 3985TIP3    H233447   2.344   0.339  16.267 -1.0235  0.6855  0.2787
 3986TIP3   OH233448   5.753   4.067  16.555  0.1097 -0.4621 -0.0926
 3986TIP3    H133449   5.809   3.997  16.589  0.9775 -0.4709 -1.4402
 3986TIP3    H233450   5.775   4.071  16.462 -2.3368 -0.6478 -0.7501
 3987TIP3   OH233451   0.732   1.716   5.413  0.4938  0.0425  0.5395
 3987TIP3    H133452   0.696   1.634   5.448 -0.1818 -0.4975 -1.2975
 3987TIP3    H233453   0.824   1.696   5.397  0.4282 -0.2296  0.4947
 3988TIP3   OH233454   6.576   6.176  16.733 -0.5428 -0.1380  0.1566
 3988TIP3    H133455   6.669   6.202  16.732  0.0401 -2.0724 -0.0424
 3988TIP3    H233456   6.545   6.201  16.820 -0.6637  3.0280 -0.6620
 3989TIP3   OH233457   3.120   4.798  13.022  0.0445 -0.0157 -0.2422
 3989TIP3    H133458   3.087   4.887  13.032 -1.1373 -0.3955 -0.5409
 3989TIP3    H233459   3.046   4.749  12.986  1.3004 -0.6805 -2.0910
 3990TIP3   OH233460   1.780   6.144   5.503  0.3668 -0.1588  0.0226
 3990TIP3    H133461   1.735   6.149   5.588  0.1991 -1.7288  0.0414
 3990TIP3    H233462   1.873   6.146   5.525  0.3587  1.6987  0.0691
 3991TIP3   OH233463   1.781   4.562  11.975 -0.2790  0.0162 -0.6954
 3991TIP3    H133464   1.842   4.631  11.950  0.5015  0.2774  1.7114
 3991TIP3    H233465   1.714   4.562  11.906  1.3116  1.1163 -2.3009
 3992TIP3   OH233466   2.287   1.733  11.368 -0.5479 -0.9392 -0.5538
 3992TIP3    H133467   2.317   1.716  11.457 -2.1286 -3.1867 -0.3806
 3992TIP3    H233468   2.210   1.790  11.379  0.0372 -0.1181 -0.6057
 3993TIP3   OH233469   1.955   4.921  14.660  0.3695 -0.1397  0.2860
 3993TIP3    H133470   2.027   4.965  14.705  1.3706 -1.0177 -0.3960
 3993TIP3    H233471   1.915   4.866  14.728  0.5484  0.1046  0.5938
 3994TIP3   OH233472   3.128   4.373  11.058  0.7445  0.1971  0.2264
 3994TIP3    H133473   3.117   4.333  11.144  0.9750  0.8359  0.5622
 3994TIP3    H233474   3.203   4.329  11.019  1.8837  1.2612  1.1697
 3995TIP3   OH233475   3.767   0.383   5.775 -0.3507 -0.0314 -0.5472
 3995TIP3    H133476   3.778   0.356   5.866  3.6001  0.8581 -0.5899
 3995TIP3    H233477   3.734   0.473   5.780  1.8859  0.8090  0.1753
 3996TIP3   OH233478   3.317   2.402   6.014  0.0180 -0.1248  0.1589
 3996TIP3    H133479   3.380   2.336   5.985  2.9156  1.1457  2.9134
 3996TIP3    H233480   3.250   2.353   6.061  0.5770 -1.3359 -0.2750
 3997TIP3   OH233481   0.489   1.647   3.337 -0.3288  0.3864  1.1167
 3997TIP3    H133482   0.499   1.742   3.333  0.7834  0.2364 -0.7520
 3997TIP3    H233483   0.563   1.617   3.390 -0.7163  0.5445  1.7621
 3998TIP3   OH233484   3.696   0.173   1.322  0.2209 -0.2552  0.4538
 3998TIP3    H133485   3.687   0.256   1.274 -0.5092 -1.7426 -2.1787
 3998TIP3    H233486   3.606   0.147   1.341  0.4546 -0.3814  1.4169
 3999TIP3   OH233487   4.293   0.396   4.421  0.6959  0.2958  0.6779
 3999TIP3    H133488   4.343   0.456   4.476  2.5633 -2.1040  1.7421
 3999TIP3    H233489   4.347   0.386   4.342 -0.5215  1.3737 -0.3481
 4000TIP3   OH233490   2.313   2.846   5.629 -0.4170 -0.1551 -0.6066
 4000TIP3    H133491   2.398   2.801   5.629 -0.4300 -0.2574  1.3048
 4000TIP3    H233492   2.251   2.779   5.603 -0.1558 -0.6657  0.0480
 4001TIP3   OH233493   0.391   4.213  15.851  0.0347 -0.0012 -0.1320
 4001TIP3    H133494   0.405   4.185  15.761 -1.0269  1.2631 -0.7271
 4001TIP3    H233495   0.478   4.235  15.884  0.3363  0.4391 -1.1729
 4002TIP3   OH233496   4.691   1.153  17.090 -0.0970 -0.1303 -0.3452
 4002TIP3    H133497   4.721   1.066  17.118 -0.6317 -1.8035 -4.3026
 4002TIP3    H233498   4.607   1.137  17.047  1.5020  1.5334 -4.6336
 4003TIP3   OH233499   5.608   3.495   0.592 -0.1562 -0.0843  1.0629
 4003TIP3    H133500   5.604   3.402   0.612 -0.7642  0.0523  1.5755
 4003TIP3    H233501   5.614   3.498   0.496  1.2805 -0.6843  1.1069
 4004TIP3   OH233502   6.538   6.636  12.913 -0.9395 -0.1236  0.2470
 4004TIP3    H133503   6.565   6.683  12.834 -1.3941  0.7392  0.5932
 4004TIP3    H233504   6.466   6.688  12.949 -0.6068 -0.3942  1.3462
 4005TIP3   OH233505   0.377   3.003   6.514 -0.1149 -0.3846 -0.3949
 4005TIP3    H133506   0.305   3.065   6.521  0.4077  0.0603  2.4276
 4005TIP3    H233507   0.345   2.924   6.557  1.0162 -0.1830  0.8916
 4006TIP3   OH233508   1.390   2.794   6.426  0.0045  0.1678 -0.5319
 4006TIP3    H133509   1.356   2.849   6.496  0.6814  1.0848 -0.9021
 4006TIP3    H233510   1.484   2.786   6.445 -0.1981 -1.4429 -0.1073
 4007TIP3   OH233511   3.395   3.042   5.322  0.4157 -0.1467  0.5592
 4007TIP3    H133512   3.314   3.037   5.373  1.7393  0.9670  2.9941
 4007TIP3    H233513   3.446   2.966   5.350  0.1404 -1.0000 -1.1692
 4008TIP3   OH233514   2.877   3.581  15.704  0.0947 -0.0885  0.7736
 4008TIP3    H133515   2.815   3.511  15.726  1.1095 -1.7131 -1.1553
 4008TIP3    H233516   2.960   3.551  15.739  0.1026  1.4850  2.2396
 4009TIP3   OH233517   6.603   1.944   3.813 -0.1721 -0.2270  0.5766
 4009TIP3    H133518   6.557   1.903   3.887 -1.1648 -1.8844 -0.8669
 4009TIP3    H233519   6.695   1.925   3.829 -0.3897 -0.7491  1.2839
 4010TIP3   OH233520   6.272   5.194  13.465 -0.1919  0.2948  0.1650
 4010TIP3    H133521   6.217   5.140  13.408  2.1932 -1.7618 -0.3551
 4010TIP3    H233522   6.218   5.270  13.486 -2.6214 -0.8535 -1.5359
 4011TIP3   OH233523   4.667   3.452   4.497  0.1064 -0.0273  0.0365
 4011TIP3    H133524   4.675   3.546   4.512  1.7221 -0.1536  0.0783
 4011TIP3    H233525   4.733   3.432   4.431 -1.9936 -0.7298 -2.0108
 4012TIP3   OH233526   4.101   2.014  16.087 -0.1904  0.5309 -0.1948
 4012TIP3    H133527   4.148   2.098  16.082 -2.0850  1.5673 -2.1759
 4012TIP3    H233528   4.014   2.038  16.118 -0.0826 -1.0941  1.5247
 4013TIP3   OH233529   1.746   5.985   5.937  0.6745  0.3211  0.4096
 4013TIP3    H133530   1.782   6.001   6.025  0.9028  0.3601  0.3110
 4013TIP3    H233531   1.671   5.927   5.952 -1.1113  2.6340  0.9307
 4014TIP3   OH233532   3.903   5.538  11.577  0.1099  0.2077 -0.3786
 4014TIP3    H133533   3.817   5.558  11.541  0.1075 -1.0915 -1.1456
 4014TIP3    H233534   3.919   5.448  11.552  0.8615 -0.2072  1.4284
 4015TIP3   OH233535   0.028   3.046   1.837  0.3391 -0.3770 -0.4858
 4015TIP3    H133536  -0.041   3.110   1.858 -0.2967  0.1334 -3.6863
 4015TIP3    H233537   0.088   3.051   1.911 -0.4343  2.8846  0.0761
 4016TIP3   OH233538   5.500   0.868  16.216  0.0810 -0.0796  0.4100
 4016TIP3    H133539   5.420   0.901  16.175  0.4733  2.1832  1.2819
 4016TIP3    H233540   5.470   0.798  16.274 -0.8054 -1.4562 -1.6078
 4017TIP3   OH233541   2.220   3.464   5.179  0.0865 -0.1792 -0.3812
 4017TIP3    H133542   2.314   3.457   5.196 -0.1304 -0.2550  0.8477
 4017TIP3    H233543   2.182   3.389   5.223 -0.5061 -0.4911 -1.3863
 4018TIP3   OH233544   0.463   5.272   4.798  0.1769  0.1370 -0.4809
 4018TIP3    H133545   0.523   5.288   4.871  0.8226 -2.1166 -0.4378
 4018TIP3    H233546   0.416   5.192   4.822 -0.0633 -0.2826 -2.2235
 4019TIP3   OH233547   2.035   0.502   3.764 -0.0349 -0.4845  0.0792
 4019TIP3    H133548   2.041   0.463   3.676  2.9074  0.9822 -0.4944
 4019TIP3    H233549   2.093   0.447   3.817 -1.4669 -1.0985  1.0505
 4020TIP3   OH233550   4.836   4.739  14.802  0.0605  0.4297 -0.3236
 4020TIP3    H133551   4.830   4.643  14.800 -2.3269  0.5052  0.3583
 4020TIP3    H233552   4.794   4.767  14.721  2.5126  0.9184 -1.5047
 4021TIP3   OH233553   2.178   5.568  13.409  0.1387 -0.4184  0.2766
 4021TIP3    H133554   2.175   5.490  13.465  2.9366 -0.5606  0.3803
 4021TIP3    H233555   2.088   5.579  13.379 -0.5276 -3.1895  0.9227
 4022TIP3   OH233556   5.364   6.205  12.845 -0.6163  0.4876 -0.0144
 4022TIP3    H133557   5.282   6.163  12.818 -0.6182 -0.2460  1.0709
 4022TIP3    H233558   5.404   6.143  12.905  0.7890  0.8120 -0.5723
 4023TIP3   OH233559   0.759   4.972  16.081 -0.0310  0.0487  0.6285
 4023TIP3    H133560   0.716   4.983  16.165  0.9963  1.8602  0.9656
 4023TIP3    H233561   0.696   5.006  16.017  0.2291  1.2400  0.9708
 4024TIP3   OH233562   2.278   0.814   3.291  0.5675  0.1879 -0.4153
 4024TIP3    H133563   2.257   0.791   3.201 -0.1931  1.6754 -0.6453
 4024TIP3    H233564   2.343   0.884   3.283  0.0826  0.7156  0.1679
 4025TIP3   OH233565   5.626   2.366  17.065  0.1671 -0.3542  0.1922
 4025TIP3    H133566   5.630   2.278  17.103  0.4938 -0.1695  0.5956
 4025TIP3    H233567   5.534   2.378  17.041  0.1370 -0.8396  0.0507
 4026TIP3   OH233568   2.698   0.943   2.294  0.2606  0.7626 -0.2261
 4026TIP3    H133569   2.621   0.908   2.339  0.6115  0.6833  0.3278
 4026TIP3    H233570   2.688   0.913   2.203 -0.7821  1.4588 -0.3626
 4027TIP3   OH233571   3.407   3.449   4.419 -0.0521  0.0587 -0.3287
 4027TIP3    H133572   3.369   3.535   4.400 -1.7100 -0.5357  0.0947
 4027TIP3    H233573   3.482   3.442   4.360 -1.0717  0.9914 -1.8056
 4028TIP3   OH233574   4.185   4.710   1.292 -0.6202 -1.1179 -0.2537
 4028TIP3    H133575   4.263   4.761   1.313 -1.4268  0.2743 -0.4847
 4028TIP3    H233576   4.184   4.707   1.196 -0.7921 -1.2346 -0.2484
 4029TIP3   OH233577   1.405   0.554  12.511 -0.2126  0.6585  0.0717
 4029TIP3    H133578   1.442   0.494  12.445 -0.9316  1.0281 -0.6859
 4029TIP3    H233579   1.465   0.629  12.511 -0.3739  0.7924 -0.3937
 4030TIP3   OH233580   5.213   6.484  13.988 -0.7324  0.9570  0.0072
 4030TIP3    H133581   5.255   6.446  14.065 -1.1783  1.2567  0.4103
 4030TIP3    H233582   5.174   6.410  13.942  0.6509  0.6053 -0.6556
 4031TIP3   OH233583   1.200   2.957   1.148 -0.6894  0.2812  0.0419
 4031TIP3    H133584   1.187   2.908   1.067  1.0766  1.0135 -0.7512
 4031TIP3    H233585   1.198   3.049   1.120 -0.9257  0.5687  0.9832
 4032TIP3   OH233586   6.199   5.319   0.871 -0.4511  0.1934 -0.8817
 4032TIP3    H133587   6.117   5.278   0.841 -0.7483 -0.4054  0.6498
 4032TIP3    H233588   6.268   5.267   0.830 -0.8351 -0.8860 -0.1910
 4033TIP3   OH233589   6.559   5.173  14.712  0.2765 -0.2319  0.1562
 4033TIP3    H133590   6.569   5.136  14.624 -0.0870 -0.3580  0.1663
 4033TIP3    H233591   6.648   5.197  14.738  0.6105 -1.6177  0.3669
 4034TIP3   OH233592   3.027   6.427   2.714 -0.5343 -0.1807 -0.1532
 4034TIP3    H133593   3.062   6.339   2.724 -0.2675  0.1050  1.7662
 4034TIP3    H233594   3.054   6.453   2.625  1.7266 -1.0439  0.2008
 4035TIP3   OH233595   5.671   3.081  13.681  0.4127  0.4443  0.6966
 4035TIP3    H133596   5.618   3.094  13.760  0.3811  1.0846  0.5751
 4035TIP3    H233597   5.634   3.143  13.617  0.0368 -0.5027 -0.0203
 4036TIP3   OH233598   5.510   2.350   3.071 -0.4118  0.0028 -0.4897
 4036TIP3    H133599   5.559   2.398   3.004 -1.2462  0.4647 -0.7860
 4036TIP3    H233600   5.576   2.320   3.133 -0.0376  3.4972  0.9774
 4037TIP3   OH233601   4.847   2.231  13.386  0.4208  0.3342 -0.1145
 4037TIP3    H133602   4.869   2.157  13.330  0.7221  1.1715 -1.1600
 4037TIP3    H233603   4.767   2.268  13.346  0.5654  0.8701  0.0758
 4038TIP3   OH233604   0.575   5.559  12.560 -0.5291 -0.2901  0.0401
 4038TIP3    H133605   0.497   5.514  12.592  0.5374 -2.0910  0.2635
 4038TIP3    H233606   0.554   5.652  12.568 -1.2280 -0.6212  3.8170
 4039TIP3   OH233607   5.657   5.035  15.418  0.4114  0.1869 -0.1255
 4039TIP3    H133608   5.743   5.076  15.427 -0.2264  1.7844 -0.9027
 4039TIP3    H233609   5.671   4.963  15.356  1.4910 -0.6431  1.0299
 4040TIP3   OH233610   0.049   5.393   4.224 -0.6006 -0.3846 -0.3569
 4040TIP3    H133611   0.024   5.419   4.135  1.7127  1.2205 -0.6126
 4040TIP3    H233612   0.114   5.457   4.251  1.0359 -2.5781  1.3222
 4041TIP3   OH233613   6.452   2.410  14.685 -0.0739  0.2902 -0.1172
 4041TIP3    H133614   6.535   2.454  14.702 -1.2096  1.8291  1.9142
 4041TIP3    H233615   6.412   2.459  14.613 -0.4669  1.4483  0.8477
 4042TIP3   OH233616   0.108   2.299   0.565  0.1154  0.2042  0.5118
 4042TIP3    H133617   0.075   2.265   0.649  0.4382 -0.2992  0.4391
 4042TIP3    H233618   0.175   2.236   0.539 -0.6461 -0.1757 -0.6044
 4043TIP3   OH233619   3.205   1.380   5.895  0.4069 -0.4071  0.1505
 4043TIP3    H133620   3.123   1.412   5.932  0.2792  0.8678 -1.1417
 4043TIP3    H233621   3.186   1.292   5.865  0.1575 -0.9718  1.8566
 4044TIP3   OH233622   1.403   1.085   2.626  0.1845  0.2373  0.3577
 4044TIP3    H133623   1.407   1.098   2.531  0.3435  2.3316  0.5950
 4044TIP3    H233624   1.494   1.081   2.654  0.2284  2.1835  0.6563
 4045TIP3   OH233625   3.554   6.362   5.449  0.5910  0.2065 -0.2662
 4045TIP3    H133626   3.626   6.396   5.502  0.6874 -1.3644  0.6543
 4045TIP3    H233627   3.593   6.344   5.364  1.3838 -0.9714  0.3338
 4046TIP3   OH233628   2.021   5.226  12.508  0.5167 -0.0174 -0.0674
 4046TIP3    H133629   2.111   5.195  12.514  0.9962  1.4195  0.4435
 4046TIP3    H233630   2.001   5.260  12.595 -0.0211  0.9699 -0.5519
 4047TIP3   OH233631   6.563   6.098   0.666 -0.5148 -0.0472  0.7769
 4047TIP3    H133632   6.492   6.086   0.602 -1.6707  1.1979  1.7882
 4047TIP3    H233633   6.583   6.191   0.663  0.7186 -0.2846  0.9325
 4048TIP3   OH233634   0.255   0.112   1.145 -0.2067  0.0220  0.9529
 4048TIP3    H133635   0.252   0.126   1.050 -0.8981  0.1547  0.9900
 4048TIP3    H233636   0.298   0.191   1.179 -0.7542  0.3828  0.8254
 4049TIP3   OH233637   5.889   1.853   0.059  0.1511 -0.1985  0.1016
 4049TIP3    H133638   5.965   1.813   0.102 -0.9538 -2.3986  0.1544
 4049TIP3    H233639   5.893   1.821  -0.031 -0.4402  0.0716 -0.0257
 4050TIP3   OH233640   0.147   1.515   2.033 -0.0139 -0.3372  0.3125
 4050TIP3    H133641   0.053   1.524   2.046 -0.4538 -2.7697 -0.6648
 4050TIP3    H233642   0.167   1.426   2.061  1.6025 -0.6006 -1.4250
 4051TIP3   OH233643   3.433   3.642   5.663 -0.2258  0.1342 -0.4170
 4051TIP3    H133644   3.358   3.651   5.722  0.3425  1.5369  0.1435
 4051TIP3    H233645   3.405   3.687   5.583  0.5071  2.0568  0.3303
 4052TIP3   OH233646   1.315   1.404   1.343 -0.6865  0.3722  0.0086
 4052TIP3    H133647   1.300   1.498   1.329  2.3926  1.0020  0.1925
 4052TIP3    H233648   1.364   1.376   1.266 -0.5976 -0.8444  0.4882
 4053TIP3   OH233649   5.656   2.238   2.761  0.0282  0.0975 -0.2256
 4053TIP3    H133650   5.613   2.163   2.720  0.2262  0.4939 -1.1968
 4053TIP3    H233651   5.720   2.267   2.696  0.2322  0.8590  0.3024
 4054TIP3   OH233652   2.290   0.630   4.310 -0.0029 -0.2434 -0.7297
 4054TIP3    H133653   2.271   0.707   4.363  0.3961 -0.2715 -0.5431
 4054TIP3    H233654   2.357   0.658   4.249 -1.7319  0.3175 -2.4872
 4055TIP3   OH233655   2.921   1.698   5.741  0.5484 -0.4505 -0.2122
 4055TIP3    H133656   2.950   1.788   5.756  0.7049 -0.6122  0.5292
 4055TIP3    H233657   2.862   1.679   5.814 -0.8450 -0.3871 -1.2974
 4056TIP3   OH233658   4.102   5.989  15.311  0.4700 -0.2602 -0.7819
 4056TIP3    H133659   4.090   6.065  15.253  0.1972  0.3761  0.1026
 4056TIP3    H233660   4.184   6.007  15.356 -0.9815  0.9279  1.5336
 4057TIP3   OH233661   3.572   3.552   2.739 -0.2573  0.6485 -0.3459
 4057TIP3    H133662   3.653   3.549   2.688 -0.3666 -1.5159 -0.4831
 4057TIP3    H233663   3.507   3.589   2.680  0.7501  3.2096  0.0315
 4058TIP3   OH233664   3.427   2.508  12.889  0.7174 -0.0974 -0.5451
 4058TIP3    H133665   3.334   2.522  12.871  1.2700  2.0805 -2.0940
 4058TIP3    H233666   3.432   2.417  12.917 -1.6052 -0.9555 -2.5423
 4059TIP3   OH233667   2.017   6.777   1.904 -0.3051  0.1507  0.6962
 4059TIP3    H133668   1.969   6.743   1.828 -1.2650  1.6421  0.5813
 4059TIP3    H233669   1.956   6.838   1.944  1.2989  1.6895  0.8988
 4060TIP3   OH233670   5.264   1.697  13.087  0.3900 -0.0781 -0.6074
 4060TIP3    H133671   5.305   1.784  13.095 -0.3928  0.3239 -0.8210
 4060TIP3    H233672   5.323   1.638  13.134  2.7828 -0.0788 -3.3104
 4061TIP3   OH233673   4.572   2.450   1.772  0.5514 -0.1999  0.4118
 4061TIP3    H133674   4.605   2.384   1.711  0.5115 -0.5352  0.7518
 4061TIP3    H233675   4.596   2.417   1.858  0.2015  0.0478  0.6056
 4062TIP3   OH233676   4.284   3.187  14.243 -0.3192 -0.2036 -0.1914
 4062TIP3    H133677   4.297   3.248  14.170 -0.5965  1.3290  1.0059
 4062TIP3    H233678   4.329   3.227  14.317 -1.0025 -1.1825  0.7872
 4063TIP3   OH233679   4.690   2.884  13.081  0.0272  0.4512  0.5545
 4063TIP3    H133680   4.665   2.847  13.166  0.3446  0.7682  0.7852
 4063TIP3    H233681   4.741   2.962  13.103  2.5417 -0.9592  0.1407
 4064TIP3   OH233682   2.747   4.181  11.129  0.4643  0.0888 -0.2391
 4064TIP3    H133683   2.734   4.250  11.194  0.5332 -1.1814  1.1673
 4064TIP3    H233684   2.659   4.155  11.103  0.4365  0.5729 -0.6506
 4065TIP3   OH233685   5.701   1.018  13.687  0.3461 -0.2615 -0.1546
 4065TIP3    H133686   5.649   1.084  13.733 -2.1329 -0.9345 -1.7452
 4065TIP3    H233687   5.663   0.934  13.715 -0.8135 -0.7083 -2.7872
 4066TIP3   OH233688   2.063   4.004  13.125  0.3924 -0.4229 -0.3506
 4066TIP3    H133689   1.971   4.013  13.100 -0.0911  0.9547  1.6430
 4066TIP3    H233690   2.112   4.041  13.051 -0.7073 -0.3412 -1.0557
 4067TIP3   OH233691   2.709   2.865  13.795  0.0453 -0.1376  0.2156
 4067TIP3    H133692   2.621   2.898  13.814 -0.2077 -0.1680 -0.8271
 4067TIP3    H233693   2.750   2.934  13.743  1.1994  0.5326  1.9421
 4068TIP3   OH233694   3.819   0.433  13.895 -0.2533  0.0742 -0.3107
 4068TIP3    H133695   3.742   0.487  13.880  0.0332  0.2294 -1.2983
 4068TIP3    H233696   3.818   0.369  13.823 -1.2780 -2.0939  1.4897
 4069TIP3   OH233697   0.845   1.027   3.847 -0.8448 -0.7293 -0.0235
 4069TIP3    H133698   0.847   1.057   3.757  1.3223 -1.3298 -0.2259
 4069TIP3    H233699   0.833   1.107   3.899  1.2237  0.0994 -0.7246
 4070TIP3   OH233700   1.816   0.928   5.106  0.7207  0.5945  0.6168
 4070TIP3    H133701   1.859   0.856   5.153  1.8517  1.2809  0.6601
 4070TIP3    H233702   1.823   1.003   5.164  1.4666  1.2696 -0.3121
 4071TIP3   OH233703   4.621   2.982   3.719  0.2801  0.1563 -0.3822
 4071TIP3    H133704   4.543   3.036   3.708  0.0986  0.5146  2.0582
 4071TIP3    H233705   4.591   2.906   3.770  1.4869  0.3419  0.6790
 4072TIP3   OH233706   1.139   3.334  12.896 -0.3342 -0.2195  0.2708
 4072TIP3    H133707   1.055   3.290  12.889 -0.7265  0.3037  1.5092
 4072TIP3    H233708   1.147   3.384  12.814 -0.7170 -1.1061 -0.3225
 4073TIP3   OH233709   0.436   1.505   3.095 -0.7315 -0.4047  0.1937
 4073TIP3    H133710   0.506   1.493   3.031 -1.5567  0.5393 -0.9087
 4073TIP3    H233711   0.482   1.536   3.173  0.0948  0.1288 -0.4835
 4074TIP3   OH233712   1.797   4.053  13.039 -0.4203  0.1713 -0.1309
 4074TIP3    H133713   1.748   4.111  12.981  0.2204  1.6742  0.7686
 4074TIP3    H233714   1.752   3.969  13.032  0.1550 -0.0006 -3.4712
 4075TIP3   OH233715   4.214   4.546   2.190  0.0184  0.5170 -0.2781
 4075TIP3    H133716   4.150   4.476   2.186  0.8377 -0.3972  1.5082
 4075TIP3    H233717   4.293   4.505   2.225  0.7395  2.1769  0.1386
 4076TIP3   OH233718   0.053   6.266  16.201 -0.0717 -0.4874  0.3002
 4076TIP3    H133719   0.115   6.204  16.163  2.3196  1.7854  0.2902
 4076TIP3    H233720   0.014   6.217  16.274  1.4567 -2.1216  0.0998
 4077TIP3   OH233721   0.267   5.454  15.095 -0.1222  0.4350  0.3136
 4077TIP3    H133722   0.267   5.407  15.178  0.0056 -0.1681 -0.0227
 4077TIP3    H233723   0.356   5.491  15.088 -0.1140  0.4336  0.4127
 4078TIP3   OH233724   0.204   3.256   2.399  0.4956  0.2996  0.1325
 4078TIP3    H133725   0.242   3.327   2.451 -1.2489  0.4198  1.3337
 4078TIP3    H233726   0.277   3.224   2.345  2.1379  0.8400  1.9181
 4079TIP3   OH233727   2.150   5.610  16.589 -0.0149  0.1130 -0.2421
 4079TIP3    H133728   2.214   5.680  16.574  1.1311 -0.4079  1.8140
 4079TIP3    H233729   2.074   5.654  16.626  0.3649  0.4039  0.2160
 4080TIP3   OH233730   5.493   1.832   5.768  1.0417  0.6167  0.1536
 4080TIP3    H133731   5.581   1.813   5.737  0.5447 -0.3594 -0.7419
 4080TIP3    H233732   5.483   1.927   5.758  0.8785  0.3800 -2.8756
 4081TIP3   OH233733   5.074   1.112   0.001  0.0727  0.0693 -0.0570
 4081TIP3    H133734   5.024   1.156   0.070  0.4297 -0.9818  0.9182
 4081TIP3    H233735   5.021   1.035  -0.020  0.9280 -0.7003  0.5117
 4082TIP3   OH233736   0.706   0.502  10.850 -0.2815  0.1305 -0.6383
 4082TIP3    H133737   0.664   0.583  10.821 -1.6387 -1.0058 -2.0401
 4082TIP3    H233738   0.633   0.448  10.881  0.4756 -0.9342 -0.6804
 4083TIP3   OH233739   0.052   3.259  13.148  0.0535  0.8481 -0.1769
 4083TIP3    H133740   0.079   3.314  13.074 -2.8930  2.0717 -0.4842
 4083TIP3    H233741   0.005   3.186  13.108 -1.0112  1.1850  0.4024
 4084TIP3   OH233742   4.286   1.805  16.074  0.1261  0.4161 -0.4635
 4084TIP3    H133743   4.222   1.757  16.021 -0.1235  0.1839  0.0409
 4084TIP3    H233744   4.250   1.893  16.081  0.0475  0.3860 -0.4873
 4085TIP3   OH233745   4.174   2.496  13.599  0.7672  0.4299  0.1102
 4085TIP3    H133746   4.209   2.517  13.512  0.5689  0.9493  0.1492
 4085TIP3    H233747   4.195   2.574  13.651  1.7731 -0.2810  0.7938
 4086TIP3   OH233748   0.218   5.765  12.848  0.3983  0.2651  0.0009
 4086TIP3    H133749   0.151   5.810  12.796  1.7524  0.0782 -2.0473
 4086TIP3    H233750   0.286   5.831  12.862 -0.1002  0.4082  1.9084
 4087TIP3   OH233751   4.527   2.425   3.808  0.4440 -0.3052  0.4552
 4087TIP3    H133752   4.444   2.379   3.794  0.0842  0.6656 -0.7329
 4087TIP3    H233753   4.547   2.408   3.900 -1.4268 -0.0048  0.9757
 4088TIP3   OH233754   4.895   0.841  16.555  0.7257 -0.1327 -0.2385
 4088TIP3    H133755   4.903   0.934  16.532 -0.5992 -0.1448 -0.8587
 4088TIP3    H233756   4.817   0.812  16.508  1.0142 -1.5231  0.1041
 4089TIP3   OH233757   6.262   6.679   2.929  0.0769 -0.5852 -0.1342
 4089TIP3    H133758   6.352   6.705   2.947  0.4285 -1.4327 -0.5870
 4089TIP3    H233759   6.209   6.754   2.954  0.9226 -0.0264 -0.0011
 4090TIP3   OH233760   3.555   0.772   2.784  0.2614  0.1662 -0.2416
 4090TIP3    H133761   3.620   0.707   2.811  1.5208  0.3651 -2.5365
 4090TIP3    H233762   3.606   0.839   2.738 -1.3655  1.2823 -0.5124
 4091TIP3   OH233763   1.891   3.026   0.696  0.0588 -0.5427 -0.1375
 4091TIP3    H133764   1.851   3.022   0.783 -1.1029 -3.4028 -0.7105
 4091TIP3    H233765   1.854   3.106   0.657 -0.1959  0.2320  1.5770
 4092TIP3   OH233766   1.676   6.361  15.342 -0.0082  0.3051 -0.1161
 4092TIP3    H133767   1.580   6.361  15.340 -0.0215  1.2274 -0.0095
 4092TIP3    H233768   1.700   6.453  15.347  0.8600  0.0380  1.3969
 4093TIP3   OH233769   2.848   2.864   5.656 -0.0195  0.4234 -0.1836
 4093TIP3    H133770   2.902   2.787   5.675  0.4378  0.8662  0.3804
 4093TIP3    H233771   2.804   2.843   5.574 -0.2096 -0.5980  0.1678
 4094TIP3   OH233772   6.502   3.867  15.516 -0.0690 -0.5829 -0.3895
 4094TIP3    H133773   6.469   3.891  15.430  0.4949  1.7172 -0.0359
 4094TIP3    H233774   6.595   3.848  15.502  0.2586  0.7479 -0.1893
 4095TIP3   OH233775   1.756   2.486   3.316  0.0669  0.4748  0.1349
 4095TIP3    H133776   1.742   2.564   3.371  0.0122  0.6427 -0.1147
 4095TIP3    H233777   1.842   2.499   3.278  0.4782 -0.0628  0.8616
 4096TIP3   OH233778   2.852   1.142  11.511  0.1038  0.3375  0.1952
 4096TIP3    H133779   2.756   1.137  11.506  0.1625 -3.6363  0.0738
 4096TIP3    H233780   2.869   1.198  11.587 -2.3217  0.5169  0.7064
 4097TIP3   OH233781   0.333   5.597  16.823 -0.0577 -0.1813 -0.3689
 4097TIP3    H133782   0.421   5.576  16.791  0.3889  0.5250  0.3403
 4097TIP3    H233783   0.322   5.543  16.901 -0.2410 -0.2499 -0.4426
 4098TIP3   OH233784   6.096   1.042  15.210  0.1891  0.3530 -0.2022
 4098TIP3    H133785   6.036   1.117  15.208  1.4317  1.3722 -0.2949
 4098TIP3    H233786   6.146   1.049  15.129 -0.9058 -1.6556 -1.1063
 4099TIP3   OH233787   3.651   3.242  15.453 -0.5987 -0.2023  0.1866
 4099TIP3    H133788   3.653   3.164  15.510 -1.5098 -0.9535 -0.7623
 4099TIP3    H233789   3.558   3.253  15.431 -0.5867  1.6184  0.8828
 4100TIP3   OH233790   1.188   3.032  16.464 -0.2646 -0.3763 -0.1884
 4100TIP3    H133791   1.189   3.108  16.407 -3.1767  0.3729  0.5855
 4100TIP3    H233792   1.214   3.066  16.550 -0.7150 -0.4065 -0.0333
 4101TIP3   OH233793   5.743   4.398  11.439  0.0230 -0.1539  0.5625
 4101TIP3    H133794   5.666   4.403  11.494 -1.0623  1.2121 -0.9649
 4101TIP3    H233795   5.766   4.305  11.438 -2.8482 -0.9684 -0.5172
 4102TIP3   OH233796   4.210   5.604  16.503 -0.0430 -0.2289  0.0834
 4102TIP3    H133797   4.294   5.559  16.489 -0.2492 -0.7980  0.6491
 4102TIP3    H233798   4.229   5.696  16.483  0.3392 -0.5778 -1.2876
 4103TIP3   OH233799   1.305   2.326  12.240  0.3079 -0.2743 -0.3487
 4103TIP3    H133800   1.321   2.234  12.221  0.8976  0.4408 -3.8642
 4103TIP3    H233801   1.211   2.331  12.258  0.0811 -1.4252 -1.1323
 4104TIP3   OH233802   4.949   1.845   4.112 -0.0599  0.2372  0.2026
 4104TIP3    H133803   4.961   1.756   4.146 -1.2277 -0.3710 -0.8920
 4104TIP3    H233804   5.008   1.850   4.037 -0.2738  0.2505  0.0346
 4105TIP3   OH233805   3.072   4.226  16.713 -0.3191 -0.1265  0.4146
 4105TIP3    H133806   3.007   4.166  16.677  1.0836 -1.5162  0.1346
 4105TIP3    H233807   3.037   4.313  16.694 -0.8632 -0.8157 -2.0736
 4106TIP3   OH233808   3.340   6.620  11.473  0.3180 -0.2931  0.0261
 4106TIP3    H133809   3.422   6.602  11.427  0.0782 -2.7031  0.3978
 4106TIP3    H233810   3.364   6.623  11.565  0.4307  2.2155 -0.0227
 4107TIP3   OH233811   2.886   2.141   2.457  0.3601  0.0556  0.5300
 4107TIP3    H133812   2.804   2.118   2.501 -0.7689 -0.7070 -1.8123
 4107TIP3    H233813   2.875   2.233   2.432  0.6108  0.2132  0.9830
 4108TIP3   OH233814   4.496   0.569  16.074 -0.0211  0.1574 -0.0879
 4108TIP3    H133815   4.432   0.552  16.144  0.5996 -0.2333  0.3891
 4108TIP3    H233816   4.479   0.501  16.009  0.4452 -0.4448  0.4149
 4109TIP3   OH233817   3.692   6.363  15.860  0.3145  0.1503 -0.1042
 4109TIP3    H133818   3.774   6.362  15.810  2.1892 -0.9196  2.7201
 4109TIP3    H233819   3.670   6.270  15.869 -0.4134  0.3694  0.4000
 4110TIP3   OH233820   6.682   6.534   3.734  0.7184 -0.3322  0.3837
 4110TIP3    H133821   6.717   6.614   3.694  1.9914 -0.7057  0.7046
 4110TIP3    H233822   6.737   6.519   3.811  0.7074 -1.6881  0.1595
 4111TIP3   OH233823   5.525   1.267   2.317 -0.0926 -0.4027  0.0332
 4111TIP3    H133824   5.443   1.286   2.270 -1.0918 -0.1230  1.8047
 4111TIP3    H233825   5.515   1.176   2.345  0.5072 -0.5779 -0.3167
 4112TIP3   OH233826   6.281   6.061   1.767 -0.2379 -0.0223 -0.1487
 4112TIP3    H133827   6.325   6.001   1.707 -1.0913 -0.9903  0.1710
 4112TIP3    H233828   6.223   6.113   1.711 -1.1840 -1.0594 -0.1805
 4113TIP3   OH233829   4.535   3.945   2.761 -0.0797  0.1319 -0.2146
 4113TIP3    H133830   4.593   3.990   2.700  0.0243  2.2496  1.2910
 4113TIP3    H233831   4.576   3.958   2.847 -1.9584  0.3627  0.7157
 4114TIP3   OH233832   6.724   4.569  12.798  0.7951 -0.2977 -0.1847
 4114TIP3    H133833   6.788   4.619  12.849  0.3593  1.5380 -1.3407
 4114TIP3    H233834   6.671   4.524  12.863 -0.8659  3.2994  1.2519
 4115TIP3   OH233835   0.434   3.565  15.970 -0.2441  0.5138  0.2745
 4115TIP3    H133836   0.502   3.619  16.010  0.2510  0.1481 -0.0454
 4115TIP3    H233837   0.435   3.484  16.021 -0.9014  0.7492  0.6783
 4116TIP3   OH233838   4.928   6.105   2.952 -0.0224  0.2452  0.1072
 4116TIP3    H133839   4.861   6.158   2.909 -0.8307 -0.1315  0.8863
 4116TIP3    H233840   4.952   6.039   2.887  1.0532  1.5691 -0.9112
 4117TIP3   OH233841   3.021   0.772  14.558  0.3675  0.3772 -0.2013
 4117TIP3    H133842   2.952   0.832  14.587  0.7979  0.9284 -0.2971
 4117TIP3    H233843   2.980   0.721  14.487  0.3569  1.3910 -0.9445
 4118TIP3   OH233844   5.839   1.212   2.133  0.3096 -0.0678 -0.1429
 4118TIP3    H133845   5.856   1.235   2.225 -0.5684 -1.9186  0.5424
 4118TIP3    H233846   5.815   1.120   2.136 -2.6826  0.5125 -1.8268
 4119TIP3   OH233847   2.545   1.862  13.101  0.4784  0.2844  0.3859
 4119TIP3    H133848   2.559   1.824  13.188  0.4331  1.0124  0.7193
 4119TIP3    H233849   2.588   1.947  13.105 -0.2513  0.6861 -0.0233
 4120TIP3   OH233850   2.096   0.606   6.211  0.1725 -0.2644  0.1741
 4120TIP3    H133851   2.079   0.665   6.138 -0.1201 -0.9849 -0.3618
 4120TIP3    H233852   2.179   0.563   6.188 -0.1122 -0.7663  0.0747
 4121TIP3   OH233853   2.547   5.604  13.556 -0.3653  1.1648  0.2979
 4121TIP3    H133854   2.527   5.685  13.602  0.6554  1.8320 -0.3893
 4121TIP3    H233855   2.563   5.631  13.466  2.7541  0.6501  0.5804
 4122TIP3   OH233856   0.949   3.324   1.899 -0.1218  0.1036  0.3106
 4122TIP3    H133857   0.940   3.237   1.859  3.6071 -0.3691  0.1105
 4122TIP3    H233858   0.966   3.383   1.825 -1.0469  0.7109  0.5763
 4123TIP3   OH233859   3.179   3.035  10.532 -0.4968  0.2613 -0.5596
 4123TIP3    H133860   3.102   3.060  10.583  0.7320  0.1165  1.4997
 4123TIP3    H233861   3.202   3.113  10.482 -2.5097  0.0028 -1.9916
 4124TIP3   OH233862   6.034   4.255  14.439  0.0319  0.2494  0.3640
 4124TIP3    H133863   6.040   4.182  14.377  1.8509  0.7950 -0.1600
 4124TIP3    H233864   5.947   4.245  14.479 -1.1468 -0.1866 -2.1364
 4125TIP3   OH233865   0.157   6.275   3.138  0.3509 -0.0966  0.2924
 4125TIP3    H133866   0.141   6.203   3.078 -2.1569  0.1722  0.5491
 4125TIP3    H233867   0.086   6.270   3.202  1.9199  0.7131  2.1898
 4126TIP3   OH233868   1.558   6.368   5.130  0.1324  0.2775 -0.1031
 4126TIP3    H133869   1.550   6.409   5.216  1.6102  3.2300 -1.2383
 4126TIP3    H233870   1.641   6.320   5.134 -0.0315  0.0173  0.2383
 4127TIP3   OH233871   1.924   0.017   1.229  0.6225 -0.0835 -0.2222
 4127TIP3    H133872   1.979  -0.032   1.291  0.4157 -1.8001 -1.3188
 4127TIP3    H233873   1.931  -0.033   1.147 -2.0538 -0.0082 -0.5765
 4128TIP3   OH233874   3.069   3.589   4.957 -0.2973 -0.6692 -0.1938
 4128TIP3    H133875   3.160   3.559   4.966 -0.6079 -1.9699 -1.0897
 4128TIP3    H233876   3.062   3.616   4.865 -0.3287  1.2674  0.3266
 4129TIP3   OH233877   4.460   3.857   0.159 -0.0126 -0.0427 -0.0601
 4129TIP3    H133878   4.425   3.847   0.247  1.9932 -0.5976  0.7449
 4129TIP3    H233879   4.383   3.865   0.103 -1.4299 -1.9968  1.4448
 4130TIP3   OH233880   5.081   2.847  17.079  0.5129 -0.4831 -0.1981
 4130TIP3    H133881   5.058   2.768  17.127 -0.7638 -0.0148 -0.0176
 4130TIP3    H233882   5.115   2.906  17.146  2.9707 -1.3655 -0.5319
 4131TIP3   OH233883   0.005   6.803   3.911 -0.5638  0.1381 -0.1832
 4131TIP3    H133884   0.033   6.717   3.941 -1.5568 -0.3111 -0.5214
 4131TIP3    H233885   0.020   6.802   3.817 -2.1971 -0.3206 -0.4654
 4132TIP3   OH233886   2.648   2.783  11.594  0.0609  0.3178 -0.3393
 4132TIP3    H133887   2.627   2.698  11.633 -1.8225  1.2659  0.8685
 4132TIP3    H233888   2.587   2.791  11.521 -0.0219  0.7537 -0.2256
 4133TIP3   OH233889   3.854   5.103  14.289  0.1620  0.6151  0.1083
 4133TIP3    H133890   3.804   5.167  14.339 -1.2087 -0.0367 -0.3746
 4133TIP3    H233891   3.885   5.150  14.212 -2.0614  0.3956 -0.9823
 4134TIP3   OH233892   2.289   1.811   0.927 -0.3540 -0.3887 -0.3892
 4134TIP3    H133893   2.219   1.807   0.991  1.2903  0.3580  1.5678
 4134TIP3    H233894   2.272   1.739   0.867 -1.6096 -1.5267  1.2772
 4135TIP3   OH233895   5.566   3.492  14.038  0.2783 -0.3700  0.1275
 4135TIP3    H133896   5.498   3.556  14.018  1.0925  0.1006 -1.2866
 4135TIP3    H233897   5.629   3.541  14.092  1.7124  0.6073 -2.2566
 4136TIP3   OH233898   1.005   5.495  12.862 -0.1934  0.1435 -0.4274
 4136TIP3    H133899   1.021   5.589  12.851  2.4081 -0.3536 -1.5492
 4136TIP3    H233900   1.030   5.457  12.778 -0.3898 -1.6555  0.2957
 4137TIP3   OH233901   1.477   4.712  16.735 -0.0731  0.2769 -0.1932
 4137TIP3    H133902   1.416   4.759  16.678 -0.7398  1.4186  1.3997
 4137TIP3    H233903   1.422   4.667  16.798  0.6753  0.7721  0.8483
 4138TIP3   OH233904   4.699   6.088   1.241 -0.2974 -0.2680 -0.0126
 4138TIP3    H133905   4.782   6.059   1.280  0.2286  0.5658 -0.4755
 4138TIP3    H233906   4.719   6.174   1.204 -1.1117 -0.4925 -1.0111
 4139TIP3   OH233907   4.452   5.587  16.984  0.3620  0.0746 -0.9751
 4139TIP3    H133908   4.476   5.498  17.010  2.0101  0.6272 -0.4722
 4139TIP3    H233909   4.423   5.629  17.065 -0.0447  0.1283 -1.1415
 4140TIP3   OH233910   6.552   5.870  16.670 -0.1864 -0.3154  0.1459
 4140TIP3    H133911   6.548   5.963  16.650  0.9699 -0.1056  0.8080
 4140TIP3    H233912   6.527   5.864  16.762  0.0061 -0.6231  0.1820
 4141TIP3   OH233913   5.180   5.446  16.711 -0.4141 -0.0525 -0.0009
 4141TIP3    H133914   5.139   5.379  16.656  2.0329 -2.1370  0.4820
 4141TIP3    H233915   5.259   5.403  16.744 -0.3722  2.0224  2.9638
 4142TIP3   OH233916   3.855   2.413  15.451  0.2025  0.1122  0.3753
 4142TIP3    H133917   3.865   2.508  15.446  0.6166  0.1383  1.3803
 4142TIP3    H233918   3.761   2.398  15.447  0.0437  0.6776  1.5441
 4143TIP3   OH233919   5.893   0.088   1.215 -0.2698 -0.1405 -0.1183
 4143TIP3    H133920   5.806   0.093   1.256  0.3142  0.5130  1.0910
 4143TIP3    H233921   5.876   0.048   1.130 -1.6098 -1.0439  0.5229
 4144TIP3   OH233922   4.728   6.295   0.128  0.3781  0.0674 -0.1555
 4144TIP3    H133923   4.750   6.294   0.035  0.4089 -0.1982 -0.1442
 4144TIP3    H233924   4.783   6.364   0.165  0.3438  0.1939 -0.3403
 4145TIP3   OH233925   2.491   5.798   2.302 -0.1837  0.5742 -0.1440
 4145TIP3    H133926   2.547   5.828   2.373 -0.8381 -1.9763  1.5789
 4145TIP3    H233927   2.411   5.850   2.311 -0.6400 -0.3784  1.6440
 4146TIP3   OH233928   4.060   4.804   0.490 -0.0886  0.1927  0.2447
 4146TIP3    H133929   3.998   4.815   0.419  0.3745 -0.2938 -0.2418
 4146TIP3    H233930   4.048   4.713   0.519 -3.0282  1.3596  3.4189
 4147TIP3   OH233931   6.611   1.872   2.424 -0.0353  0.3328 -0.5517
 4147TIP3    H133932   6.582   1.956   2.459 -0.5445  0.1894 -0.6149
 4147TIP3    H233933   6.536   1.841   2.373 -0.0716 -0.4415 -0.0331
 4148TIP3   OH233934   4.413   0.360  16.778 -0.7046  0.5188  0.3216
 4148TIP3    H133935   4.501   0.377  16.811 -0.3189  0.1837 -0.4895
 4148TIP3    H233936   4.424   0.357  16.683 -2.0037  2.8480  0.0158
 4149TIP3   OH233937   3.318   6.378  13.718  0.1938  0.0141 -1.0168
 4149TIP3    H133938   3.373   6.378  13.796 -1.0313  0.0825 -0.1173
 4149TIP3    H233939   3.379   6.366  13.645  1.4088  0.3517 -0.0891
 4150TIP3   OH233940   4.209   5.742   0.251 -0.6400 -0.0931 -0.0641
 4150TIP3    H133941   4.164   5.762   0.333 -0.6869  1.2174 -0.4007
 4150TIP3    H233942   4.280   5.805   0.245  0.5933 -1.4206 -0.1006
 4151TIP3   OH233943   2.206   5.913  16.324  0.3995  0.0815 -0.4875
 4151TIP3    H133944   2.251   5.900  16.241 -0.3085 -0.0202 -0.8656
 4151TIP3    H233945   2.251   5.855  16.386 -0.2680 -1.2854 -1.2534
 4152TIP3   OH233946   5.683   4.289   0.815  0.0366  0.5952  0.0329
 4152TIP3    H133947   5.699   4.209   0.765  0.6509  0.4919  0.3860
 4152TIP3    H233948   5.748   4.351   0.782 -0.6370  1.0492 -0.4554
 4153TIP3   OH233949   3.687   4.824  13.772  0.3074 -0.0653  0.1356
 4153TIP3    H133950   3.766   4.875  13.752 -1.3485  1.9618 -1.7213
 4153TIP3    H233951   3.674   4.836  13.866  1.5931  0.4470  0.2802
 4154TIP3   OH233952   5.982   4.736   0.138 -0.0846  0.0799  0.0206
 4154TIP3    H133953   5.914   4.754   0.073 -0.9778  0.9103  1.1535
 4154TIP3    H233954   5.971   4.643   0.159  0.6789 -0.3939 -1.4851
 4155TIP3   OH233955   4.715   6.817   4.695  0.5498 -0.4957  0.5232
 4155TIP3    H133956   4.767   6.760   4.639 -0.3875 -0.3857 -0.4911
 4155TIP3    H233957   4.644   6.761   4.727 -0.7235  0.1937 -0.9587
 4156TIP3   OH233958   1.922   2.782   3.247 -0.2200 -0.2599 -0.0486
 4156TIP3    H133959   1.947   2.756   3.336 -0.5431 -0.5329 -0.0355
 4156TIP3    H233960   1.918   2.700   3.198  0.4496 -0.0681 -0.4487
 4157TIP3   OH233961   5.352   2.573   0.017 -0.2146  0.2777  0.6562
 4157TIP3    H133962   5.394   2.653  -0.017  2.5414 -1.0011  0.7877
 4157TIP3    H233963   5.385   2.503  -0.039 -1.4891 -0.9510  1.3844
 4158TIP3   OH233964   5.504   1.382   1.115 -0.3983 -0.0172 -0.2916
 4158TIP3    H133965   5.478   1.386   1.207 -1.8404 -0.5192 -0.6591
 4158TIP3    H233966   5.571   1.451   1.107 -0.3436  0.1310  1.0881
 4159TIP3   OH233967   0.940   2.383   2.667 -0.2173  0.9276  0.0569
 4159TIP3    H133968   0.932   2.316   2.735  0.7424  0.1439 -0.5764
 4159TIP3    H233969   1.004   2.348   2.606  0.2374  2.3882 -0.3527
 4160TIP3   OH233970   5.884   1.883  16.167 -0.0988 -0.1156 -0.4501
 4160TIP3    H133971   5.909   1.952  16.229  1.2416 -0.9572 -0.0255
 4160TIP3    H233972   5.818   1.832  16.215  2.3933 -2.0087  1.2020
 4161TIP3   OH233973   0.769   5.541  13.628  0.0018  0.0525  0.5164
 4161TIP3    H133974   0.807   5.454  13.638 -0.3529 -0.3126 -1.0215
 4161TIP3    H233975   0.757   5.573  13.718  1.9641 -0.6493  1.0784
 4162TIP3   OH233976   1.128   0.670   4.309  0.3802 -0.5336  0.9157
 4162TIP3    H133977   1.221   0.692   4.304  0.7345 -1.9863  0.5344
 4162TIP3    H233978   1.127   0.582   4.347 -0.8527 -0.4447  1.1059
 4163TIP3   OH233979   2.023   5.761   0.446 -0.0869 -0.4189  0.2476
 4163TIP3    H133980   2.068   5.676   0.443  0.5291 -0.0816 -1.9739
 4163TIP3    H233981   2.083   5.821   0.402 -1.7208  0.5292 -0.7917
 4164TIP3   OH233982   6.004   5.606   1.439 -0.6934  0.4286 -0.4749
 4164TIP3    H133983   5.986   5.542   1.370  1.2616 -1.4310  0.5778
 4164TIP3    H233984   5.995   5.556   1.520 -1.3869  2.1464  0.5647
 4165TIP3   OH233985   4.828   3.814  16.745 -0.3854  0.1196 -0.1111
 4165TIP3    H133986   4.821   3.860  16.828  1.3294  1.1748 -0.4849
 4165TIP3    H233987   4.919   3.784  16.742 -0.7798 -1.0827 -1.0134
 4166TIP3   OH233988   1.688   0.572   3.755 -0.3956  0.0958 -0.2619
 4166TIP3    H133989   1.704   0.617   3.838  0.1249  1.7608 -1.2155
 4166TIP3    H233990   1.771   0.528   3.735  0.3025  1.6724 -1.0254
 4167TIP3   OH233991   1.993   5.461  11.081  0.2990  0.0065 -0.6188
 4167TIP3    H133992   2.080   5.458  11.122  0.5272  0.5863 -1.0472
 4167TIP3    H233993   1.995   5.539  11.027 -0.7107  0.3647 -0.1668
 4168TIP3   OH233994   2.675   4.056   4.308 -0.2345 -0.1186 -0.4931
 4168TIP3    H133995   2.609   4.097   4.364  0.2520 -0.5542  0.4222
 4168TIP3    H233996   2.625   3.999   4.249 -0.7839  0.6441 -0.7850
 4169TIP3   OH233997   2.675   0.325  15.615 -0.6546  0.2715 -0.2033
 4169TIP3    H133998   2.673   0.412  15.576 -2.3574  0.4804  0.2526
 4169TIP3    H233999   2.583   0.303  15.629 -0.3668 -2.1111 -1.3885
 4170TIP3   OH234000   3.995   3.684   5.325  0.1648  0.1486 -0.0900
 4170TIP3    H134001   4.034   3.662   5.410 -0.6258  0.1126  0.2828
 4170TIP3    H234002   3.943   3.606   5.303  0.0738  0.3052 -0.4255
 4171TIP3   OH234003   6.069   1.567   3.210  0.3758  0.0031  0.3860
 4171TIP3    H134004   6.033   1.641   3.162  0.8910 -0.9013 -1.4849
 4171TIP3    H234005   6.154   1.550   3.168  0.1504 -1.8188  0.5779
 4172TIP3   OH234006   5.261   4.712  11.319 -0.0103  0.0595  0.1332
 4172TIP3    H134007   5.326   4.766  11.273 -0.8476  0.8895 -0.1316
 4172TIP3    H234008   5.182   4.720  11.264 -0.0024 -1.9327 -0.2269
 4173TIP3   OH234009   2.244   2.022  16.991  0.3509  0.2133  0.5336
 4173TIP3    H134010   2.215   1.938  17.025  1.4080 -0.0783  0.7261
 4173TIP3    H234011   2.177   2.045  16.926 -0.2118 -0.5281  0.8325
 4174TIP3   OH234012   5.054   3.139  12.279 -0.7020 -0.0379 -0.0720
 4174TIP3    H134013   5.039   3.045  12.285  0.3814 -0.2277 -0.1511
 4174TIP3    H234014   5.089   3.163  12.365  0.6410 -0.0291 -0.6041
 4175TIP3   OH234015   1.619   2.639   3.096  0.5030  0.0571 -0.6024
 4175TIP3    H134016   1.685   2.655   3.029  0.7227  0.9154 -0.2022
 4175TIP3    H234017   1.624   2.545   3.114  1.3894  0.0619 -0.8003
 4176TIP3   OH234018   3.429   0.244   1.024 -0.3287  0.4011 -0.0127
 4176TIP3    H134019   3.344   0.223   0.985  0.0008 -2.2002  0.4791
 4176TIP3    H234020   3.407   0.287   1.106 -1.1290  1.1699 -0.6117
 4177TIP3   OH234021   2.403   3.266   6.789  0.3275 -0.0024 -0.2072
 4177TIP3    H134022   2.470   3.333   6.775  0.0560 -0.1721 -2.7949
 4177TIP3    H234023   2.323   3.303   6.753 -0.5261 -0.6042  0.9942
 4178TIP3   OH234024   3.656   2.384  12.269 -0.2505  0.4406 -0.5090
 4178TIP3    H134025   3.650   2.469  12.226 -0.5167  0.1707 -1.0131
 4178TIP3    H234026   3.573   2.374  12.315 -0.3044  0.3673 -0.6207
 4179TIP3   OH234027   4.491   0.064   3.475  0.6109 -0.4156 -0.2968
 4179TIP3    H134028   4.494  -0.015   3.421  2.1801 -0.5510 -0.0719
 4179TIP3    H234029   4.538   0.130   3.424  1.0095 -0.1928  0.3368
 4180TIP3   OH234030   5.483   4.086  13.359 -0.4868  0.3482 -0.1469
 4180TIP3    H134031   5.459   3.994  13.372  0.2481 -0.4132 -3.3509
 4180TIP3    H234032   5.577   4.089  13.374 -0.2152  0.1519 -1.6181
 4181TIP3   OH234033   6.631   0.322  16.775 -0.7598 -0.4628 -0.0921
 4181TIP3    H134034   6.646   0.362  16.689 -2.0492 -1.3577 -0.7633
 4181TIP3    H234035   6.537   0.328  16.788 -0.5030  0.3592  1.6461
 4182TIP3   OH234036   5.235   5.997  12.215  0.0463 -0.4725  0.2467
 4182TIP3    H134037   5.150   6.034  12.239  0.0858  0.8158 -1.4199
 4182TIP3    H234038   5.282   6.069  12.173  1.6653 -1.3805  0.4047
 4183TIP3   OH234039   0.693   2.082   2.223  0.2373 -0.1111  0.1397
 4183TIP3    H134040   0.703   2.054   2.132 -1.6709 -1.0936  0.1707
 4183TIP3    H234041   0.756   2.030   2.272  0.9697  0.1047 -0.5517
 4184TIP3   OH234042   3.157   4.535  11.299 -0.2270  0.4257 -0.1922
 4184TIP3    H134043   3.228   4.596  11.323  0.4937  0.0505 -1.2789
 4184TIP3    H234044   3.147   4.547  11.205 -1.3254  0.1524 -0.1164
 4185TIP3   OH234045   5.377   4.577   3.084  0.0733  0.2668  0.0009
 4185TIP3    H134046   5.284   4.593   3.072  0.1690 -0.2459 -1.5949
 4185TIP3    H234047   5.385   4.483   3.100  0.2971  0.3599  0.4734
 4186TIP3   OH234048   1.921   3.718   1.092 -0.5956  0.2937 -0.1408
 4186TIP3    H134049   2.009   3.749   1.073  0.1262 -2.3882 -1.6613
 4186TIP3    H234050   1.894   3.672   1.012 -3.2453  0.7425  0.4154
 4187TIP3   OH234051   0.230   6.819  11.203 -0.3299 -0.0257  0.1459
 4187TIP3    H134052   0.289   6.744  11.199  0.6850  0.6856  1.1252
 4187TIP3    H234053   0.142   6.781  11.192  0.2038 -1.2495 -0.1097
 4188TIP3   OH234054   4.492   0.542   2.479  0.3564 -0.1041 -0.0839
 4188TIP3    H134055   4.425   0.504   2.535  0.1578 -1.3747 -1.1296
 4188TIP3    H234056   4.443   0.576   2.403  0.7940 -0.1111 -0.3733
 4189TIP3   OH234057   5.210   0.935  13.751 -0.1196  0.2050  0.2479
 4189TIP3    H134058   5.249   0.899  13.831  1.6924  0.7359 -0.3405
 4189TIP3    H234059   5.133   0.982  13.781 -0.0030 -0.3991  1.5619
 4190TIP3   OH234060   2.941   4.016  15.929  0.5796  0.0250 -0.6374
 4190TIP3    H134061   2.988   3.962  15.992  1.8571  0.0985 -1.5041
 4190TIP3    H234062   2.963   4.106  15.954 -1.4885  0.2335  0.7608
 4191TIP3   OH234063   6.813   1.069  13.158  0.0210  0.2238  0.4733
 4191TIP3    H134064   6.878   1.131  13.192 -0.9718  2.1018 -0.8638
 4191TIP3    H234065   6.864   0.999  13.118  1.1788  0.2622  1.7891
 4192TIP3   OH234066   2.907   3.215  14.250  0.2238  0.0942  0.1731
 4192TIP3    H134067   2.829   3.198  14.198 -0.2314  0.2099  0.8052
 4192TIP3    H234068   2.874   3.243  14.335  0.9451  0.9331  0.2039
 4193TIP3   OH234069   2.431   3.486  13.674 -0.0121  0.1593  0.1378
 4193TIP3    H134070   2.426   3.466  13.580 -1.3427 -0.6081  0.3413
 4193TIP3    H234071   2.447   3.401  13.715 -2.2492 -0.0236  0.7797
 4194TIP3   OH234072   3.839   3.336  14.159 -0.0119  0.1033  0.2247
 4194TIP3    H134073   3.837   3.317  14.253 -0.6417 -0.9130  0.0231
 4194TIP3    H234074   3.755   3.303  14.126  0.0578  0.7549 -0.6422
 4195TIP3   OH234075   2.721   1.307   6.120 -0.5618  0.2111  0.2130
 4195TIP3    H134076   2.691   1.383   6.070  4.6939  1.6410 -1.4940
 4195TIP3    H234077   2.777   1.345   6.189  1.7638 -1.9831 -0.3356
 4196TIP3   OH234078   2.232   4.794   2.931  0.0676 -0.5504 -0.3954
 4196TIP3    H134079   2.225   4.833   2.844 -0.3787 -2.8923 -1.4909
 4196TIP3    H234080   2.257   4.867   2.988  1.0895  0.9248 -2.5828
 4197TIP3   OH234081   5.040   4.792   0.575 -0.5327  0.4833  0.3375
 4197TIP3    H134082   5.039   4.743   0.493 -1.4562  2.5993 -1.0151
 4197TIP3    H234083   4.965   4.759   0.625 -1.8535  1.2554 -1.0513
 4198TIP3   OH234084   0.114   6.193   0.618  0.3167 -0.1049  0.2589
 4198TIP3    H134085   0.047   6.154   0.674 -1.9508 -0.2464 -2.3074
 4198TIP3    H234086   0.098   6.287   0.622  0.0830 -0.1214 -0.1754
 4199TIP3   OH234087   1.753   5.115  11.236  0.4245 -0.5505 -0.0181
 4199TIP3    H134088   1.801   5.190  11.271  0.1358  1.0606 -2.8191
 4199TIP3    H234089   1.669   5.117  11.282  0.4693  0.7785  0.0356
 4200TIP3   OH234090   0.370   2.818  12.770  0.1369 -0.0007 -0.0060
 4200TIP3    H134091   0.380   2.757  12.844  0.9047  2.3499  1.9468
 4200TIP3    H234092   0.452   2.867  12.768 -0.2986  0.7289 -1.7789
 4201TIP3   OH234093   2.478   4.277   4.421  0.5912  0.1076  0.1401
 4201TIP3    H134094   2.434   4.354   4.384 -0.6547 -0.0197  1.3075
 4201TIP3    H234095   2.466   4.285   4.515  0.5737 -1.4309  0.2982
 4202TIP3   OH234096   6.081   3.089   2.121  0.3150  0.0485  0.4923
 4202TIP3    H134097   6.041   3.171   2.151 -0.7927 -0.4205  0.3445
 4202TIP3    H234098   6.089   3.036   2.201 -0.1235 -0.1659  0.3977
 4203TIP3   OH234099   6.575   4.261  12.689  0.1052  0.0965  0.4675
 4203TIP3    H134100   6.644   4.209  12.648  1.5297  2.8573 -0.8957
 4203TIP3    H234101   6.502   4.257  12.627  0.0525 -0.5749  0.5674
 4204TIP3   OH234102   1.583   1.292  15.375  0.1767 -0.3304 -0.4742
 4204TIP3    H134103   1.591   1.223  15.309  2.0687  0.7524 -1.4538
 4204TIP3    H234104   1.673   1.319  15.392 -0.3635  0.2140  1.7263
 4205TIP3   OH234105   2.230   2.213  16.551 -0.0579  0.1904  0.1089
 4205TIP3    H134106   2.209   2.268  16.476 -2.3387  0.3743  0.8172
 4205TIP3    H234107   2.159   2.150  16.556 -0.8880  1.1769  2.9736
 4206TIP3   OH234108   3.633   5.298  13.471 -0.2829 -0.2385 -0.2105
 4206TIP3    H134109   3.610   5.261  13.556  2.8696 -0.0205  0.8921
 4206TIP3    H234110   3.678   5.227  13.425  3.5023  1.1807  0.8934
 4207TIP3   OH234111   0.360   1.680   6.001  0.8190 -0.1794 -0.0482
 4207TIP3    H134112   0.340   1.716   5.914 -0.1501  1.2400  0.7207
 4207TIP3    H234113   0.348   1.754   6.060  4.1937 -0.3415  1.0486
 4208TIP3   OH234114   3.387   5.013   2.613 -0.0253 -0.8566 -0.0858
 4208TIP3    H134115   3.334   4.944   2.572 -1.1681  0.8211 -1.5792
 4208TIP3    H234116   3.442   5.046   2.542  0.0350  0.2045  0.4341
 4209TIP3   OH234117   1.234   3.332   3.456 -0.5896  0.3476 -0.2375
 4209TIP3    H134118   1.263   3.371   3.373 -1.3225 -0.1048 -0.7192
 4209TIP3    H234119   1.267   3.242   3.454  0.2349  0.6207  0.4181
 4210TIP3   OH234120   5.838   2.467   4.560 -0.4034 -0.0536  0.4032
 4210TIP3    H134121   5.855   2.484   4.652 -0.4751 -1.5947  0.7264
 4210TIP3    H234122   5.860   2.549   4.516 -1.3269  1.0297  1.8838
 4211TIP3   OH234123   3.283   6.450  16.609  0.2830  0.5439  0.3599
 4211TIP3    H134124   3.326   6.442  16.524  1.5356 -0.0178  1.0265
 4211TIP3    H234125   3.347   6.417  16.672 -1.0343 -0.0870  1.4157
 4212TIP3   OH234126   2.958   2.842  14.893 -0.0315 -0.3439 -0.4636
 4212TIP3    H134127   2.954   2.763  14.840  0.7152 -2.1864  2.0728
 4212TIP3    H234128   2.897   2.826  14.965 -0.3661  1.6962 -0.2285
 4213TIP3   OH234129   1.402   5.745  12.310 -0.0610 -0.5381 -0.1814
 4213TIP3    H134130   1.483   5.771  12.266  2.0176 -0.5960  3.2491
 4213TIP3    H234131   1.386   5.656  12.279  1.9816 -1.0156 -0.0100
 4214TIP3   OH234132   4.144   2.154   5.671  0.0071 -0.2856  0.2845
 4214TIP3    H134133   4.056   2.139   5.637  0.3770 -1.1558 -0.3197
 4214TIP3    H234134   4.190   2.197   5.599 -0.3345  1.5573  1.1316
 4215TIP3   OH234135   1.601   2.663  14.621 -0.0550 -0.7161  0.6942
 4215TIP3    H134136   1.665   2.618  14.565  1.6068  2.8099 -0.5558
 4215TIP3    H234137   1.527   2.682  14.563  0.9549  1.4620  0.0017
 4216TIP3   OH234138   3.105   5.072   4.667  0.1263 -0.1251 -0.1550
 4216TIP3    H134139   3.158   5.132   4.614  1.5298 -2.0801 -1.0867
 4216TIP3    H234140   3.060   5.129   4.729  0.3315  2.0152 -1.8523
 4217TIP3   OH234141   2.101   4.432  14.785  0.5570 -0.0514 -0.4512
 4217TIP3    H134142   2.135   4.521  14.797 -1.3323  0.9314 -1.7774
 4217TIP3    H234143   2.121   4.387  14.866 -0.8244  2.4301  1.4098
 4218TIP3   OH234144   0.877   6.764  11.291  0.2337 -0.2592 -0.0893
 4218TIP3    H134145   0.790   6.734  11.265 -0.3696  0.2232  1.2766
 4218TIP3    H234146   0.898   6.712  11.368 -0.7381  2.4972  2.1933
 4219TIP3   OH234147   4.676   6.418  16.615  0.4907  0.1698 -0.2508
 4219TIP3    H134148   4.603   6.362  16.590  0.4638  0.1405 -0.1079
 4219TIP3    H234149   4.634   6.496  16.653  0.5484 -0.3010  0.8045
 4220TIP3   OH234150   4.520   3.386  12.562  0.0897 -0.1008 -0.8422
 4220TIP3    H134151   4.425   3.398  12.559  0.0429  1.4947  2.2298
 4220TIP3    H234152   4.533   3.305  12.611  0.3066 -0.1197 -0.9279
 4221TIP3   OH234153   3.428   3.583  17.072  0.1079 -0.7821  0.6461
 4221TIP3    H134154   3.409   3.508  17.016 -0.3266 -0.3861  0.2565
 4221TIP3    H234155   3.506   3.623  17.034 -0.3655 -0.3321  0.1266
 4222TIP3   OH234156   1.565   3.358   0.452 -0.2801  0.0015  0.2360
 4222TIP3    H134157   1.505   3.427   0.480 -0.3877 -0.1293  0.3333
 4222TIP3    H234158   1.636   3.359   0.516 -0.1347  0.2151  0.0700
 4223TIP3   OH234159   0.167   0.873  15.802  0.3855 -0.3493 -0.3757
 4223TIP3    H134160   0.222   0.803  15.768 -0.9190 -1.2719 -0.6496
 4223TIP3    H234161   0.140   0.843  15.888  0.5294  0.2239 -0.1250
 4224TIP3   OH234162   5.099   2.145  15.512 -0.3137  0.0459 -0.4094
 4224TIP3    H134163   5.160   2.212  15.483  0.9500 -0.3917  1.1043
 4224TIP3    H234164   5.042   2.130  15.437  2.1589 -0.3430 -2.3364
 4225TIP3   OH234165   5.316   2.415   3.467 -0.8752  0.2819 -0.1888
 4225TIP3    H134166   5.371   2.491   3.452 -1.9973  1.6121  1.9991
 4225TIP3    H234167   5.229   2.451   3.482 -0.9616 -1.0877  3.6852
 4226TIP3   OH234168   5.714   3.549   3.554 -0.2962  0.6063  0.2468
 4226TIP3    H134169   5.662   3.514   3.482  0.5742  0.7438 -0.4592
 4226TIP3    H234170   5.708   3.644   3.544  1.6302  0.6494 -1.0155
 4227TIP3   OH234171   2.262   6.460  15.538 -0.8580 -0.0828  0.4729
 4227TIP3    H134172   2.281   6.554  15.542  1.7265 -0.3869 -1.6529
 4227TIP3    H234173   2.200   6.451  15.466 -1.2432  0.0180  0.7937
 4228TIP3   OH234174   6.009   4.420  14.862  0.5780 -1.0074 -0.0987
 4228TIP3    H134175   6.085   4.384  14.816  1.3854 -0.4915  0.7965
 4228TIP3    H234176   6.046   4.468  14.936 -0.5502  0.3221 -0.3508
 4229TIP3   OH234177   0.722   5.181   1.220 -0.1123  0.5023 -0.0155
 4229TIP3    H134178   0.739   5.182   1.314 -2.3219  1.8192  0.4415
 4229TIP3    H234179   0.774   5.253   1.185  1.4060 -0.5363  0.0092
 4230TIP3   OH234180   4.939   4.564  13.249 -0.3638  0.9514  0.1162
 4230TIP3    H134181   5.031   4.591  13.242 -0.0532 -0.4590 -2.6936
 4230TIP3    H234182   4.904   4.575  13.160 -1.0341 -4.6205 -0.6432
 4231TIP3   OH234183   0.208   3.120  12.781 -0.2129 -0.5402 -0.1035
 4231TIP3    H134184   0.182   3.036  12.818  0.0545 -0.5524  0.0631
 4231TIP3    H234185   0.298   3.105  12.750 -0.4909 -0.5778 -0.9018
 4232TIP3   OH234186   4.566   3.643  16.139  0.2367 -0.8542  0.1756
 4232TIP3    H134187   4.529   3.680  16.218  0.0907 -3.3330  1.3670
 4232TIP3    H234188   4.653   3.612  16.166  0.9697 -0.0563 -1.1533
 4233TIP3   OH234189   6.030   1.081  14.641 -0.2575  0.5323  0.1182
 4233TIP3    H134190   5.957   1.142  14.648 -3.9122 -3.5387  2.0009
 4233TIP3    H234191   6.005   1.021  14.571  1.5885 -0.6261  0.3855
 4234TIP3   OH234192   4.848   4.037  15.852 -0.1393  0.1446  0.4064
 4234TIP3    H134193   4.938   4.006  15.853  0.2778  1.2657  2.1358
 4234TIP3    H234194   4.797   3.960  15.828  1.1839 -0.8274  0.6004
 4235TIP3   OH234195   4.395   6.091  16.615  0.3925 -0.0184 -0.2102
 4235TIP3    H134196   4.312   6.139  16.605  0.0149 -0.9966 -2.3940
 4235TIP3    H234197   4.415   6.098  16.709 -0.9404  2.1979  0.0023
 4236TIP3   OH234198   3.103   4.326   0.483  0.0852  0.1596  0.1436
 4236TIP3    H134199   3.034   4.321   0.549 -0.9553 -2.1819 -1.0158
 4236TIP3    H234200   3.097   4.415   0.449 -1.1977  0.5450  1.2736
 4237TIP3   OH234201   0.602   2.717   0.054  0.7341 -0.2226 -0.2276
 4237TIP3    H134202   0.600   2.790  -0.008 -0.0961  0.1953  0.2805
 4237TIP3    H234203   0.585   2.757   0.139 -1.9693 -1.2446 -0.1865
 4238TIP3   OH234204   0.075   2.054   0.041 -0.2079 -0.3109 -0.1378
 4238TIP3    H134205   0.167   2.071   0.059  0.2663 -1.2677 -1.5623
 4238TIP3    H234206   0.047   1.995   0.111  0.1761  0.1974  0.4517
 4239TIP3   OH234207   2.331   2.666   2.836 -0.3958 -0.2580 -0.2426
 4239TIP3    H134208   2.311   2.734   2.901 -0.8083  1.3605 -1.9731
 4239TIP3    H234209   2.415   2.630   2.864  1.1221  2.7290 -0.5593
 4240TIP3   OH234210   2.541   5.602   4.736  0.8988  0.1415  0.4726
 4240TIP3    H134211   2.498   5.668   4.682  0.3209 -0.8028 -0.2498
 4240TIP3    H234212   2.471   5.567   4.791  0.4910 -1.9955 -1.2959
 4241TIP3   OH234213   4.042   6.386   4.241  0.2159 -0.2923  0.5630
 4241TIP3    H134214   3.991   6.459   4.275  0.5893  0.7732 -1.0319
 4241TIP3    H234215   4.131   6.401   4.273  0.3211  0.0418  0.1229
 4242TIP3   OH234216   6.470   0.908  12.449 -0.0515  0.5702 -0.2600
 4242TIP3    H134217   6.395   0.856  12.421 -0.9165  1.0843  0.9785
 4242TIP3    H234218   6.490   0.876  12.537  0.4159  1.2399 -0.1118
 4243TIP3   OH234219   1.551   0.338   2.036  0.1127  0.0965 -0.1480
 4243TIP3    H134220   1.554   0.363   1.944  0.5399  1.0038  0.1022
 4243TIP3    H234221   1.496   0.259   2.038 -0.9423  0.7803 -1.0120
 4244TIP3   OH234222   2.691   6.799  16.244 -0.3383 -0.1161  0.7488
 4244TIP3    H134223   2.703   6.816  16.338 -0.6429  1.7176  0.4946
 4244TIP3    H234224   2.780   6.798  16.208 -0.2527 -0.1637  0.9607
 4245TIP3   OH234225   5.069   6.140   1.769  0.6545  0.1161  0.5203
 4245TIP3    H134226   5.134   6.073   1.748 -0.5720 -0.3658 -2.2910
 4245TIP3    H234227   4.995   6.091   1.805  1.2009  0.4678  2.1699
 4246TIP3   OH234228   6.471   5.885  14.632 -0.9022 -0.6986 -0.0443
 4246TIP3    H134229   6.401   5.944  14.604  1.4918  2.2062 -0.3621
 4246TIP3    H234230   6.515   5.858  14.552 -0.2350 -0.5907  0.2745
 4247TIP3   OH234231   4.235   2.384  12.046 -0.4192 -0.5736  0.5726
 4247TIP3    H134232   4.171   2.453  12.060  0.0044  0.0018 -0.2472
 4247TIP3    H234233   4.243   2.377  11.951 -0.2665 -1.5729  0.6513
 4248TIP3   OH234234   5.651   4.136  12.220 -0.6242  0.4879  0.4239
 4248TIP3    H134235   5.676   4.057  12.173 -0.4151 -0.2853  1.7613
 4248TIP3    H234236   5.650   4.205  12.154  0.5381 -0.3628 -0.5136
 4249TIP3   OH234237   0.993   0.025  14.787 -0.5655 -0.2029 -0.6760
 4249TIP3    H134238   1.045   0.106  14.787  0.5881 -0.7599  2.8023
 4249TIP3    H234239   0.910   0.050  14.826 -1.1813 -0.2607 -1.9062
 4250TIP3   OH234240   5.790   3.241  10.820 -0.3384 -0.4070  0.1151
 4250TIP3    H134241   5.876   3.244  10.861 -1.6488  0.1126  3.0996
 4250TIP3    H234242   5.758   3.153  10.838  0.3422 -1.4202 -2.9858
 4251TIP3   OH234243   6.610   0.217   3.458  0.0955 -0.0491  0.5297
 4251TIP3    H134244   6.595   0.124   3.474 -0.0948 -0.3737 -1.3421
 4251TIP3    H234245   6.670   0.219   3.384  1.0035  1.3362  1.2601
 4252TIP3   OH234246   2.778   3.274   1.149  0.6867  0.1059 -0.0432
 4252TIP3    H134247   2.817   3.223   1.078 -0.7380 -2.2212  0.7496
 4252TIP3    H234248   2.823   3.245   1.228  0.8451  1.1836  0.2873
 4253TIP3   OH234249   5.392   6.134  13.221 -0.2157  0.0999 -0.0969
 4253TIP3    H134250   5.452   6.208  13.222 -1.2287  1.0511 -2.6395
 4253TIP3    H234251   5.328   6.153  13.290  0.6635  0.5324  0.6246
 4254TIP3   OH234252   6.071   4.130  15.817  0.5917  0.2998  0.1769
 4254TIP3    H134253   6.062   4.196  15.749 -0.6791  1.6381  1.5812
 4254TIP3    H234254   5.997   4.071  15.804  1.3811 -0.5228 -0.6985
 4255TIP3   OH234255   0.093   2.081   4.550 -0.1609  0.3911 -0.0394
 4255TIP3    H134256   0.122   2.041   4.632  1.3825 -0.0011 -0.7415
 4255TIP3    H234257   0.102   2.175   4.565  3.4058  0.3092 -0.7823
 4256TIP3   OH234258   2.524   2.601   2.381 -0.4182  0.7432  0.4783
 4256TIP3    H134259   2.437   2.631   2.405 -0.0565  1.2251  1.2006
 4256TIP3    H234260   2.510   2.546   2.303 -1.3318  0.9908  0.4638
 4257TIP3   OH234261   2.378   3.114   5.174 -0.1682 -0.0551 -0.3813
 4257TIP3    H134262   2.360   3.157   5.091  0.6702  1.4975  0.2035
 4257TIP3    H234263   2.474   3.113   5.180 -0.1310  2.9929  2.0552
 4258TIP3   OH234264   6.031   3.287  11.986 -0.1928  0.9616 -0.1272
 4258TIP3    H134265   6.007   3.256  12.073  1.9100  1.5617  0.7160
 4258TIP3    H234266   6.029   3.382  11.993  0.7782  1.0160 -0.4813
 4259TIP3   OH234267   1.081   0.794   5.921  0.6612 -0.4365  0.2724
 4259TIP3    H134268   1.126   0.829   5.997 -1.7233  1.1541  1.0472
 4259TIP3    H234269   0.990   0.785   5.949 -0.4847  1.0546 -2.6237
 4260TIP3   OH234270   3.550   2.296  16.109 -0.1403  0.6568 -0.1323
 4260TIP3    H134271   3.572   2.386  16.083  0.4354  0.6949  0.4521
 4260TIP3    H234272   3.564   2.294  16.204  0.1270 -0.1208 -0.1780
 4261TIP3   OH234273   2.621   4.274   1.407 -0.3144  0.4258 -0.1804
 4261TIP3    H134274   2.548   4.293   1.466 -1.1694  0.4518 -1.2137
 4261TIP3    H234275   2.638   4.181   1.420 -1.2182  0.1791 -0.6569
 4262TIP3   OH234276   3.527   4.553   3.848 -0.3898 -0.7588  0.0491
 4262TIP3    H134277   3.595   4.539   3.914 -0.0946  3.5933  0.9320
 4262TIP3    H234278   3.445   4.556   3.898 -0.4351  0.2947 -0.0700
 4263TIP3   OH234279   2.973   3.149   0.958  0.2752  0.1628 -0.6642
 4263TIP3    H134280   3.020   3.189   0.884 -1.5413  1.3068 -1.2834
 4263TIP3    H234281   3.023   3.175   1.035  0.3223  1.8992 -1.2401
 4264TIP3   OH234282   3.100   2.078   4.266  0.0030  0.0340 -0.3557
 4264TIP3    H134283   3.056   2.146   4.318  0.7352  0.0044  0.3390
 4264TIP3    H234284   3.085   2.103   4.175 -1.2292  0.1492 -0.1425
 4265TIP3   OH234285   1.966   2.433  15.823  0.0290  0.5643  1.0541
 4265TIP3    H134286   2.044   2.382  15.844 -0.6504 -0.7129  0.5474
 4265TIP3    H234287   1.997   2.495  15.756  0.5437 -0.1685  0.5889
 4266TIP3   OH234288   3.823   0.201  13.741  0.0097 -0.2006 -0.4299
 4266TIP3    H134289   3.850   0.237  13.656 -0.4047 -0.7988 -0.8322
 4266TIP3    H234290   3.756   0.136  13.718  0.5137 -1.0017  0.2865
 4267TIP3   OH234291   6.300   0.909   5.283 -0.2550  0.2200 -0.1380
 4267TIP3    H134292   6.259   0.994   5.264  0.3446  0.2638 -1.3662
 4267TIP3    H234293   6.370   0.901   5.218  1.4743 -0.0232  1.6334
 4268TIP3   OH234294   0.751   1.828   3.780  0.9011 -0.3372 -0.0213
 4268TIP3    H134295   0.708   1.904   3.741  1.4283  0.2000  0.4398
 4268TIP3    H234296   0.819   1.864   3.836  0.2096 -1.0989  1.3698
 4269TIP3   OH234297   4.493   0.909   5.460 -0.1270  0.6478  0.1147
 4269TIP3    H134298   4.410   0.906   5.507 -1.4756  2.4826 -1.9223
 4269TIP3    H234299   4.540   0.983   5.499  0.2441  0.0608  0.7887
 4270TIP3   OH234300   5.678   3.925   6.237  0.0905 -0.0759  0.0546
 4270TIP3    H134301   5.677   3.867   6.313  1.5268  0.8675  0.8551
 4270TIP3    H234302   5.588   3.956   6.229 -0.1074 -0.2416  1.3614
 4271TIP3   OH234303   1.056   4.946   4.125  0.7550 -0.2274 -0.0153
 4271TIP3    H134304   1.104   4.895   4.060  1.5342 -0.7473  0.9378
 4271TIP3    H234305   1.027   4.882   4.190 -2.0971 -0.0836 -1.0007
 4272TIP3   OH234306   5.825   6.109   0.283  0.1226  0.1998 -0.4575
 4272TIP3    H134307   5.835   6.161   0.204  0.9150  1.0470  0.1800
 4272TIP3    H234308   5.779   6.030   0.255 -2.5197  1.9099 -1.1662
 4273TIP3   OH234309   2.806   3.676   1.924 -0.4313 -0.3321  0.3707
 4273TIP3    H134310   2.876   3.635   1.976  0.9281  0.3625 -0.8493
 4273TIP3    H234311   2.801   3.623   1.845 -0.2231  0.5124 -0.2150
 4274TIP3   OH234312   3.312   1.589   4.304 -0.6518 -0.2573  0.0312
 4274TIP3    H134313   3.282   1.677   4.282 -0.4559 -0.1757  0.0878
 4274TIP3    H234314   3.398   1.582   4.264 -0.8009 -0.5370 -0.2375
 4275TIP3   OH234315   6.808   1.860  12.711 -0.1272 -0.0028 -0.0350
 4275TIP3    H134316   6.754   1.782  12.698 -1.7468  1.1116 -0.3380
 4275TIP3    H234317   6.809   1.872  12.806 -0.5339  0.0231 -0.0287
 4276TIP3   OH234318   0.868   1.496   0.214 -0.2479 -0.6254  0.3460
 4276TIP3    H134319   0.865   1.528   0.304 -0.3091 -1.4095  0.6243
 4276TIP3    H234320   0.948   1.444   0.209 -0.2117 -0.5402 -0.0772
 4277TIP3   OH234321   3.663   5.469  13.856 -0.6408 -0.3741 -0.2910
 4277TIP3    H134322   3.723   5.543  13.849 -0.3011 -0.6616 -0.4750
 4277TIP3    H234323   3.601   5.494  13.925  0.2490 -0.4540  0.5554
 4278TIP3   OH234324   1.995   0.684   1.162 -0.0398  0.3157 -0.8696
 4278TIP3    H134325   1.989   0.643   1.248  0.8963  4.6181  1.5188
 4278TIP3    H234326   2.069   0.641   1.120 -0.2844 -1.6510  0.5912
 4279TIP3   OH234327   6.332   6.314   5.246 -0.3781 -0.3058  0.1310
 4279TIP3    H134328   6.400   6.255   5.212  0.0479  1.1141 -1.6053
 4279TIP3    H234329   6.284   6.342   5.169 -3.3684 -1.6482  1.3346
 4280TIP3   OH234330   3.426   4.033   5.652 -0.3675 -0.4790 -0.0442
 4280TIP3    H134331   3.336   4.028   5.684 -0.1090  1.0590  1.0203
 4280TIP3    H234332   3.440   4.125   5.632  1.2416 -0.5245  0.6651
 4281TIP3   OH234333   6.400   3.541   5.961  0.2519  0.2515  0.2605
 4281TIP3    H134334   6.377   3.570   6.049 -0.3245  1.3211 -0.2169
 4281TIP3    H234335   6.412   3.447   5.969 -1.4775  0.0740  1.1368
 4282TIP3   OH234336   3.494   0.381  16.074  0.0515  0.0864  0.5259
 4282TIP3    H134337   3.477   0.435  16.151 -1.2266 -0.3993  0.6237
 4282TIP3    H234338   3.408   0.344  16.053  0.5254 -0.3392 -0.7128
 4283TIP3   OH234339   4.371   1.524  16.276  0.4639 -0.5416 -0.0218
 4283TIP3    H134340   4.388   1.473  16.196  1.1256 -1.8586  0.9220
 4283TIP3    H234341   4.416   1.607  16.261  0.7872 -0.8608 -0.9215
 4284TIP3   OH234342   1.106   3.519  10.786 -0.4096  0.3267  0.1243
 4284TIP3    H134343   1.145   3.435  10.763  0.6355  0.6779  0.5478
 4284TIP3    H234344   1.160   3.552  10.858  0.1816  2.0762 -1.0500
 4285TIP3   OH234345   6.642   0.310   4.482  0.3798  0.2869  0.3070
 4285TIP3    H134346   6.698   0.340   4.555  0.0189  0.4193  0.5323
 4285TIP3    H234347   6.685   0.230   4.451  0.0662 -0.2575  1.2326
 4286TIP3   OH234348   5.762   0.026  15.645  0.2859 -0.1748 -0.0267
 4286TIP3    H134349   5.832  -0.038  15.661 -0.9211 -1.6141 -0.2207
 4286TIP3    H234350   5.691  -0.026  15.607 -0.6247  1.3727 -0.5203
 4287TIP3   OH234351   5.714   2.807  12.053 -0.6579 -0.3476  0.5684
 4287TIP3    H134352   5.804   2.781  12.031 -0.4157  0.8425  0.0942
 4287TIP3    H234353   5.721   2.899  12.079 -1.7312 -0.2676  0.6240
 4288TIP3   OH234354   2.234   5.760  16.853 -0.5058  0.0969  0.0345
 4288TIP3    H134355   2.191   5.824  16.797 -0.1017  0.1615 -0.2021
 4288TIP3    H234356   2.177   5.754  16.930  0.7595  2.6450  1.2522
 4289TIP3   OH234357   6.757   0.159  11.940 -0.0273  0.5091  0.2149
 4289TIP3    H134358   6.760   0.202  11.855 -0.1840  1.2195  0.5626
 4289TIP3    H234359   6.666   0.167  11.968  0.1847  0.9667  0.7932
 4290TIP3   OH234360   1.870   6.500  14.081 -0.2899 -0.0865  0.0157
 4290TIP3    H134361   1.775   6.515  14.080 -0.1847  0.5732 -0.4967
 4290TIP3    H234362   1.897   6.529  14.168 -0.6050 -0.6176  0.2977
 4291TIP3   OH234363   6.006   5.989   2.639  0.0061  0.4438 -0.2127
 4291TIP3    H134364   6.045   5.913   2.683 -1.9153 -0.0608  0.7108
 4291TIP3    H234365   5.916   5.993   2.672 -0.5886  1.8765 -1.8505
 4292TIP3   OH234366   3.756   4.128  13.444 -0.3512  1.1503 -0.0068
 4292TIP3    H134367   3.793   4.163  13.363  1.1403  1.8331  0.9201
 4292TIP3    H234368   3.758   4.202  13.504 -0.6570  0.4373  0.8924
 4293TIP3   OH234369   2.999   5.765   5.286  0.3640 -0.0571 -0.0188
 4293TIP3    H134370   2.958   5.817   5.355  1.7855  0.3693  0.5260
 4293TIP3    H234371   3.041   5.693   5.332 -0.2839 -0.8601 -0.6375
 4294TIP3   OH234372   6.188   6.289  14.948  0.7190 -0.0733  0.2274
 4294TIP3    H134373   6.233   6.368  14.916 -0.1894  0.7509  0.9460
 4294TIP3    H234374   6.251   6.219  14.932  1.4381  0.7403 -0.6953
 4295TIP3   OH234375   5.137   3.303  16.528 -0.2728  0.1421  0.4870
 4295TIP3    H134376   5.131   3.246  16.451 -2.4001  0.5787  0.2771
 4295TIP3    H234377   5.092   3.255  16.597 -1.2514  1.1426  0.5623
 4296TIP3   OH234378   4.000   5.218  13.427  0.0966  0.5612  0.3617
 4296TIP3    H134379   3.977   5.304  13.392  0.9160  1.1871  1.3223
 4296TIP3    H234380   3.951   5.156  13.373 -2.4849  1.7293  1.2208
 4297TIP3   OH234381   6.139   0.867  16.303  0.1950 -0.1985 -0.0460
 4297TIP3    H134382   6.104   0.917  16.230 -1.4376  0.3033  1.0041
 4297TIP3    H234383   6.075   0.879  16.373  0.9124 -1.8992  0.9887
 4298TIP3   OH234384   6.749   5.242   1.058  0.2660  0.0573  0.3464
 4298TIP3    H134385   6.810   5.170   1.043  0.6814  0.2467  1.0350
 4298TIP3    H234386   6.771   5.274   1.146  0.7240  1.6204 -0.2973
 4299TIP3   OH234387   0.957   4.861   0.536 -0.5690 -0.0390  0.3258
 4299TIP3    H134388   0.998   4.814   0.608  0.0841 -0.4737 -0.3065
 4299TIP3    H234389   1.028   4.914   0.499 -0.8364  0.0112 -0.1305
 4300TIP3   OH234390   2.018   5.479   1.443  0.2044  0.1943  0.9468
 4300TIP3    H134391   2.112   5.485   1.423  0.3189  0.5699  1.5899
 4300TIP3    H234392   2.014   5.470   1.538 -0.4201  0.2246  0.9276
 4301TIP3   OH234393   0.214   3.625   3.697 -0.1335  0.4330  0.0434
 4301TIP3    H134394   0.135   3.679   3.692 -0.5361 -0.2034 -0.4888
 4301TIP3    H234395   0.275   3.678   3.750  0.6632  2.9418 -3.0482
 4302TIP3   OH234396   6.030   5.584   5.447 -0.1278 -0.1604 -0.1185
 4302TIP3    H134397   5.969   5.511   5.458  0.9278 -0.8378  1.5847
 4302TIP3    H234398   6.012   5.642   5.521 -0.0213  0.6398 -0.6991
 4303TIP3   OH234399   5.780   2.601  16.012  0.3951 -0.1411  0.5905
 4303TIP3    H134400   5.840   2.650  15.956 -0.3490  1.1292  0.8862
 4303TIP3    H234401   5.832   2.577  16.089  0.3995  1.4268  1.0961
 4304TIP3   OH234402   6.444   4.431   4.650  1.0487  0.4826  0.4397
 4304TIP3    H134403   6.389   4.426   4.572  1.8561 -0.8556 -0.0651
 4304TIP3    H234404   6.382   4.431   4.723  0.3028  1.3783 -0.1628
 4305TIP3   OH234405   0.548   5.679  16.092  0.0010  0.1938  0.3935
 4305TIP3    H134406   0.546   5.769  16.059  0.2984  0.3941  0.9189
 4305TIP3    H234407   0.518   5.626  16.018  1.4538  0.5620 -0.4978
 4306TIP3   OH234408   0.374   4.156  14.532 -0.4614  0.1659 -0.4346
 4306TIP3    H134409   0.416   4.077  14.500 -1.1528 -0.3980  0.0208
 4306TIP3    H234410   0.342   4.133  14.619 -1.0555  0.8112 -0.4694
 4307TIP3   OH234411   2.740   3.508  14.311  0.1340  0.1138  0.3297
 4307TIP3    H134412   2.808   3.449  14.342  2.5879  0.9702 -2.7854
 4307TIP3    H234413   2.758   3.591  14.356  1.2700  0.3341 -0.4587
 4308TIP3   OH234414   2.727   2.589  14.748 -0.0029 -0.5162  0.1587
 4308TIP3    H134415   2.713   2.522  14.682  1.4449 -0.4769 -0.2244
 4308TIP3    H234416   2.822   2.597  14.755 -0.0863 -0.6467  2.3782
 4309TIP3   OH234417   5.000   3.089  16.655 -0.1447  0.1911 -0.6169
 4309TIP3    H134418   4.960   3.043  16.582  2.0147  1.5450 -2.8222
 4309TIP3    H234419   5.061   3.026  16.693 -2.0292 -0.8770  0.8546
 4310TIP3   OH234420   3.871   3.266  15.274 -0.1744 -0.1420  0.5178
 4310TIP3    H134421   3.947   3.236  15.324 -0.2093 -1.4166 -0.1710
 4310TIP3    H234422   3.797   3.253  15.334 -0.0858 -0.6524  0.5180
 4311TIP3   OH234423   4.645   6.402  16.222 -0.1033 -0.0423  1.0427
 4311TIP3    H134424   4.565   6.420  16.270 -0.8179 -0.3773  0.0102
 4311TIP3    H234425   4.667   6.485  16.180 -0.7558 -0.3157  0.1266
 4312TIP3   OH234426   4.656   4.326  14.062  0.3575 -0.1197 -0.0388
 4312TIP3    H134427   4.657   4.421  14.050  0.4283 -0.2860 -1.5374
 4312TIP3    H234428   4.596   4.294  13.994  0.0680 -1.1235  0.6687
 4313TIP3   OH234429   5.786   5.164  11.210  0.0320 -0.0053  0.5863
 4313TIP3    H134430   5.870   5.203  11.230  0.0316  1.1978 -1.4420
 4313TIP3    H234431   5.730   5.186  11.285  1.4402 -0.7014  1.8819
 4314TIP3   OH234432   5.227   2.066  14.687  0.4423  0.4991 -0.0282
 4314TIP3    H134433   5.290   2.138  14.676 -0.3587  1.0370 -1.3639
 4314TIP3    H234434   5.282   1.987  14.688  1.2518  1.0448  0.4025
 4315TIP3   OH234435   1.043   4.079  15.579 -0.4987  0.0824  0.7064
 4315TIP3    H134436   0.968   4.028  15.549 -0.4320 -0.6649  1.7317
 4315TIP3    H234437   1.107   4.013  15.606  0.7272  0.6992 -0.5813
 4316TIP3   OH234438   2.456   0.002   0.349  0.2183 -0.4308  0.3211
 4316TIP3    H134439   2.367  -0.014   0.318  1.4731 -2.5039 -2.6436
 4316TIP3    H234440   2.461  -0.046   0.432 -1.9631  1.5028  1.6727
 4317TIP3   OH234441   4.283   6.738  17.216  0.2079  0.0081 -0.5710
 4317TIP3    H134442   4.224   6.778  17.281  1.5178  0.0387  0.6334
 4317TIP3    H234443   4.366   6.784  17.227  0.7084 -0.5980 -1.6815
 4318TIP3   OH234444   3.237   4.106   3.857 -0.5178 -0.2300 -0.3772
 4318TIP3    H134445   3.286   4.062   3.927 -1.5319 -0.5125  0.1727
 4318TIP3    H234446   3.266   4.198   3.862  0.0590 -0.4171 -0.1628
 4319TIP3   OH234447   5.128   0.700  14.949  0.7378  0.1850  0.3287
 4319TIP3    H134448   5.035   0.694  14.968  1.1140 -2.6751  1.6718
 4319TIP3    H234449   5.167   0.733  15.030  0.9258  1.7930 -0.3646
 4320TIP3   OH234450   0.739   1.088  12.029  0.2512  0.1895  0.2466
 4320TIP3    H134451   0.821   1.052  11.993 -1.6449 -3.2637 -1.0487
 4320TIP3    H234452   0.689   1.115  11.953  0.1464  2.3780  1.0334
 4321TIP3   OH234453   6.263   2.734  14.188  0.5522  0.1131 -0.5419
 4321TIP3    H134454   6.199   2.682  14.139  1.0831  0.8643 -2.0811
 4321TIP3    H234455   6.210   2.802  14.230 -0.0663 -1.2445  0.9950
 4322TIP3   OH234456   0.036   3.686   2.449  0.1388  0.4295  0.3085
 4322TIP3    H134457  -0.014   3.680   2.368 -0.2134 -0.8899  0.5939
 4322TIP3    H234458   0.028   3.599   2.489 -3.5151  2.1368  4.0297
 4323TIP3   OH234459   6.649   5.002  16.995  0.2606  0.1547 -0.7702
 4323TIP3    H134460   6.567   4.987  16.947  0.5841 -0.5187 -1.1330
 4323TIP3    H234461   6.621   5.015  17.086 -0.2050 -0.9071 -0.7412
 4324TIP3   OH234462   5.831   5.271  15.319  0.1625  0.0150 -0.3581
 4324TIP3    H134463   5.847   5.262  15.413 -1.0660 -0.9162 -0.2035
 4324TIP3    H234464   5.916   5.256  15.278  0.6454  0.1136  0.5922
 4325TIP3   OH234465   6.368   1.357   1.232  0.4304 -0.4708 -0.3973
 4325TIP3    H134466   6.336   1.432   1.183  1.8731  0.4176 -0.0408
 4325TIP3    H234467   6.353   1.282   1.174  1.0625  0.3958 -1.7411
 4326TIP3   OH234468   2.948   3.449  16.618 -0.1254  0.0450  0.1784
 4326TIP3    H134469   2.902   3.370  16.645 -1.8383  1.0875  0.4042
 4326TIP3    H234470   2.970   3.493  16.700  0.4828  0.0112  0.0411
 4327TIP3   OH234471   3.155   0.178   4.301  0.4369 -0.2017  0.3887
 4327TIP3    H134472   3.076   0.171   4.247  0.9450  2.6695 -0.9540
 4327TIP3    H234473   3.123   0.208   4.386 -0.0091  0.1966  0.0883
 4328TIP3   OH234474   0.645   0.558  12.104 -0.1582 -0.2636 -0.1423
 4328TIP3    H134475   0.702   0.606  12.043  0.4723 -1.2042 -0.3251
 4328TIP3    H234476   0.569   0.614  12.115  0.0345  0.2492 -1.2552
 4329TIP3   OH234477   5.481   5.486   5.697 -0.3338 -0.5999  0.3311
 4329TIP3    H134478   5.432   5.568   5.698 -0.6591 -0.7432 -1.2446
 4329TIP3    H234479   5.571   5.510   5.676 -0.1784 -0.5568  1.0063
 4330TIP3   OH234480   4.791   3.717  13.871 -0.0141 -0.3667  0.0474
 4330TIP3    H134481   4.840   3.705  13.790 -0.6186  0.8669 -0.5324
 4330TIP3    H234482   4.839   3.667  13.936  0.3350 -1.6140 -1.1195
 4331TIP3   OH234483   6.454   5.868  11.732 -0.0544  1.1746 -0.3446
 4331TIP3    H134484   6.425   5.777  11.739 -0.5785  1.4598  3.0776
 4331TIP3    H234485   6.549   5.864  11.741 -0.0286  0.9689 -0.6693
 4332TIP3   OH234486   4.073   0.363  14.727  0.0871  0.2061  0.1832
 4332TIP3    H134487   4.073   0.386  14.635 -1.2638 -0.5213 -0.0302
 4332TIP3    H234488   4.165   0.361  14.752  0.4708  0.3439 -1.1595
 4333TIP3   OH234489   3.713   5.113  16.240  0.3741 -0.0469 -0.4279
 4333TIP3    H134490   3.728   5.202  16.208 -0.4487  0.3415  0.2248
 4333TIP3    H234491   3.788   5.095  16.297 -0.8583  1.3970  1.8096
 4334TIP3   OH234492   1.141   4.842  15.178  0.1042 -0.1621  0.3931
 4334TIP3    H134493   1.132   4.916  15.238 -0.4129  0.3637 -0.3178
 4334TIP3    H234494   1.173   4.881  15.097 -0.9783 -0.5877 -0.2540
 4335TIP3   OH234495   3.091   0.186  15.168 -0.2627  0.1329  0.1084
 4335TIP3    H134496   3.088   0.255  15.234 -0.4297  0.0821  0.1556
 4335TIP3    H234497   3.066   0.107  15.215 -1.6277  0.3007 -0.2749
 4336TIP3   OH234498   3.591   2.459   3.529 -0.3050  0.2755  0.0136
 4336TIP3    H134499   3.622   2.441   3.441 -2.9284  0.8193 -1.1188
 4336TIP3    H234500   3.501   2.426   3.530 -0.2706  0.0332  2.5957
 4337TIP3   OH234501   5.259   5.335   0.890  0.4289 -0.3936  0.8622
 4337TIP3    H134502   5.210   5.396   0.946 -0.1234  3.2637 -3.1145
 4337TIP3    H234503   5.191   5.283   0.847  0.2945  0.9341 -0.6333
 4338TIP3   OH234504   2.038   3.461   2.640  0.0613  0.0075 -0.1826
 4338TIP3    H134505   1.971   3.406   2.680 -0.5016 -0.1889 -1.3551
 4338TIP3    H234506   2.062   3.524   2.708  0.5768 -1.5450  1.1241
 4339TIP3   OH234507   6.757   1.558   5.197 -0.5706  0.6721 -0.6562
 4339TIP3    H134508   6.781   1.531   5.286 -1.3005  1.3907 -0.2296
 4339TIP3    H234509   6.665   1.533   5.189 -0.0558 -1.0470 -1.8763
 4340TIP3   OH234510   2.008   2.044  16.822  0.2534  0.5505  0.0893
 4340TIP3    H134511   1.982   2.133  16.799  3.3413  1.2639 -1.2373
 4340TIP3    H234512   1.937   2.011  16.878 -1.1175  3.7264  0.4220
 4341TIP3   OH234513   3.036   4.383   5.061 -0.2548 -0.7983  0.2259
 4341TIP3    H134514   2.998   4.297   5.043 -2.0113  0.2189 -1.3128
 4341TIP3    H234515   2.970   4.428   5.114  0.7217 -0.4432  1.1729
 4342TIP3   OH234516   1.787   1.726   3.740  0.1761 -0.1219 -0.1359
 4342TIP3    H134517   1.799   1.638   3.775  0.2208  0.4774  1.4353
 4342TIP3    H234518   1.693   1.738   3.737  0.1704 -0.2178 -0.3277
 4343TIP3   OH234519   2.070   3.190   3.894 -0.6851  0.2433 -0.0847
 4343TIP3    H134520   2.135   3.183   3.964  0.2973 -0.3266 -1.0206
 4343TIP3    H234521   2.075   3.282   3.866  0.1397  0.0668 -0.5346
 4344TIP3   OH234522   4.560   4.727  15.195  0.2097  0.2335 -0.3873
 4344TIP3    H134523   4.648   4.711  15.161 -0.3473 -1.6645 -1.0925
 4344TIP3    H234524   4.555   4.673  15.274  0.4671  2.2688  1.0928
 4345TIP3   OH234525   2.532   6.785  15.223  0.2829 -0.1442 -0.1059
 4345TIP3    H134526   2.540   6.703  15.174 -0.2739  0.4357 -1.2134
 4345TIP3    H234527   2.620   6.824  15.217  0.2360 -0.1036 -0.6159
 4346TIP3   OH234528   3.160   5.198   2.800 -0.0904  0.3056 -0.0684
 4346TIP3    H134529   3.153   5.164   2.711 -1.5642  0.0794  0.0978
 4346TIP3    H234530   3.113   5.282   2.797 -0.9648 -0.1384  0.6802
 4347TIP3   OH234531   6.255   4.334  12.804 -0.3981 -0.4615  0.3279
 4347TIP3    H134532   6.196   4.410  12.804 -0.2739 -0.3474  1.7687
 4347TIP3    H234533   6.258   4.307  12.712 -1.0582  0.7988 -0.0938
 4348TIP3   OH234534   3.433   2.795  13.920  0.4163 -0.0263 -0.1869
 4348TIP3    H134535   3.368   2.745  13.968  0.9372  0.2576  0.8431
 4348TIP3    H234536   3.389   2.878  13.900 -0.0147 -0.3863 -0.7794
 4349TIP3   OH234537   6.348   5.953   0.898 -0.0273  0.0457  0.2194
 4349TIP3    H134538   6.311   6.012   0.833 -1.6669 -0.0420  1.0255
 4349TIP3    H234539   6.439   5.942   0.871 -0.8076 -0.5533 -2.4674
 4350TIP3   OH234540   2.827   1.273   3.676 -0.1484 -0.4081 -0.0341
 4350TIP3    H134541   2.864   1.349   3.721  0.8382 -0.7025 -0.3325
 4350TIP3    H234542   2.735   1.298   3.660  1.1228  2.7145 -4.1638
 4351TIP3   OH234543   6.031   2.758  16.211  0.2039  0.1223 -0.2651
 4351TIP3    H134544   6.019   2.670  16.176 -1.6557  0.2109  0.0319
 4351TIP3    H234545   6.053   2.811  16.135 -1.2014 -0.1569 -0.9054
 4352TIP3   OH234546   6.745   0.502   1.261  0.0777 -0.0286 -0.5407
 4352TIP3    H134547   6.748   0.545   1.346  0.3183 -0.9186 -0.0952
 4352TIP3    H234548   6.746   0.408   1.280 -1.0342 -0.2638 -1.4670
 4353TIP3   OH234549   5.827   0.926   5.859 -0.2840  0.1555 -0.5010
 4353TIP3    H134550   5.762   0.968   5.803 -1.3339 -0.7561 -0.0228
 4353TIP3    H234551   5.820   0.972   5.943 -0.5602 -0.1518 -0.3510
 4354TIP3   OH234552   2.226   0.483   4.545  0.3496 -0.4102 -0.3190
 4354TIP3    H134553   2.262   0.474   4.456  0.4534 -1.8012 -0.1549
 4354TIP3    H234554   2.146   0.536   4.533  1.2552  0.8722 -0.9828
 4355TIP3   OH234555   6.585   3.724   1.038 -0.3897 -0.3113 -0.1249
 4355TIP3    H134556   6.567   3.632   1.058  1.2007 -0.7126 -0.4165
 4355TIP3    H234557   6.505   3.770   1.064 -0.6674 -1.5754  1.4103
 4356TIP3   OH234558   5.159   5.970  16.818  0.0718  0.1092 -0.2373
 4356TIP3    H134559   5.178   5.879  16.798 -0.7500  0.2930 -1.9984
 4356TIP3    H234560   5.244   6.008  16.843  0.5851 -0.9026 -0.4114
 4357TIP3   OH234561   2.682   2.618   1.669  0.2432 -0.3898 -0.2126
 4357TIP3    H134562   2.618   2.665   1.723 -0.5000 -0.1084 -1.3004
 4357TIP3    H234563   2.664   2.526   1.687 -1.2190 -0.3580 -1.2717
 4358TIP3   OH234564   6.476   0.231  12.061 -0.4026  0.1890  0.0309
 4358TIP3    H134565   6.436   0.318  12.054  1.6039  1.1772  0.0925
 4358TIP3    H234566   6.430   0.189  12.134  0.0177  2.0336  1.4363
 4359TIP3   OH234567   2.545   2.306  15.316  0.1209 -0.0965 -0.0047
 4359TIP3    H134568   2.532   2.215  15.290 -1.6379  0.1420 -0.0609
 4359TIP3    H234569   2.537   2.356  15.235 -1.6360  0.3113  0.3724
 4360TIP3   OH234570   5.972   6.474   0.087  0.5063  0.0061  0.5358
 4360TIP3    H134571   5.933   6.506   0.169 -0.1007  0.1807  0.1860
 4360TIP3    H234572   5.972   6.550   0.029  0.9330 -0.1183  0.3719
 4361TIP3   OH234573   4.251   0.888   0.924 -0.2475  0.7469 -0.2687
 4361TIP3    H134574   4.307   0.826   0.877 -2.8752 -0.6791 -1.7225
 4361TIP3    H234575   4.207   0.835   0.991 -0.7851  1.5440  0.0261
 4362TIP3   OH234576   1.906   3.947   3.900  0.1872 -0.2972  0.6942
 4362TIP3    H134577   1.815   3.952   3.929 -0.2110  0.2605 -0.5501
 4362TIP3    H234578   1.927   4.036   3.871  0.6096 -0.7462 -0.4637
 4363TIP3   OH234579   0.596   5.409   3.042 -0.1275 -0.4553  0.1971
 4363TIP3    H134580   0.659   5.350   3.084  0.5688  0.2123  0.1167
 4363TIP3    H234581   0.614   5.400   2.948 -1.2437 -1.4576  0.0573
 4364TIP3   OH234582   0.799   4.717   1.527  0.0609 -0.0653  0.0494
 4364TIP3    H134583   0.834   4.628   1.541  0.4163  0.1066  0.2689
 4364TIP3    H234584   0.718   4.703   1.478  0.4504 -0.4695 -0.4923
 4365TIP3   OH234585   3.191   6.282   3.487 -0.0512 -0.0567 -0.1004
 4365TIP3    H134586   3.205   6.212   3.423 -0.1103 -1.0707  0.9576
 4365TIP3    H234587   3.110   6.324   3.459  0.5704  0.3470 -1.3912
 4366TIP3   OH234588   1.012   6.230  12.972 -0.6379  0.0028 -0.3282
 4366TIP3    H134589   0.972   6.308  13.008 -0.0992  0.9306 -1.6485
 4366TIP3    H234590   1.027   6.251  12.879  0.6910 -1.1763 -0.4175
 4367TIP3   OH234591   1.439   6.434  14.328  0.4121 -0.4003 -0.2076
 4367TIP3    H134592   1.510   6.497  14.318  0.3792 -0.5938 -2.1066
 4367TIP3    H234593   1.362   6.478  14.291  0.5266 -1.7112 -2.1537
 4368TIP3   OH234594   1.074   2.555   1.168  0.1061  0.1415  0.0710
 4368TIP3    H134595   1.024   2.633   1.194  0.0468  0.1924 -0.1983
 4368TIP3    H234596   1.144   2.588   1.112 -1.0249 -0.1822 -1.5982
 4369TIP3   OH234597   4.930   4.062  16.593  0.1256 -0.8811 -0.4215
 4369TIP3    H134598   4.947   4.040  16.685 -1.6893  1.6982  0.6319
 4369TIP3    H234599   4.918   3.977  16.551  0.5927 -2.1382  1.7905
 4370TIP3   OH234600   4.478   5.290  11.439  0.3280  0.2784  0.6607
 4370TIP3    H134601   4.568   5.292  11.407  0.3589 -1.9711  0.4278
 4370TIP3    H234602   4.441   5.374  11.412  2.0650  0.8473 -0.0948
 4371TIP3   OH234603   2.682   6.371  12.665  0.6236  0.0720  0.4047
 4371TIP3    H134604   2.595   6.350  12.631  1.0611 -0.7489 -0.2272
 4371TIP3    H234605   2.668   6.387  12.758 -0.2705  0.3893  0.2261
 4372TIP3   OH234606   5.410   1.770   5.104 -0.0522  0.4789  0.2004
 4372TIP3    H134607   5.362   1.757   5.186 -0.0454  1.3706  0.3497
 4372TIP3    H234608   5.441   1.682   5.081  0.4311  0.3029  1.4476
 4373TIP3   OH234609   1.323   0.523   4.516  0.2950 -0.1006 -0.3174
 4373TIP3    H134610   1.344   0.524   4.610 -4.0240 -1.1541  0.8668
 4373TIP3    H234611   1.338   0.613   4.487  1.1962  0.3856  1.4948
 4374TIP3   OH234612   5.068   1.711   3.862  0.1813  0.0503 -0.0881
 4374TIP3    H134613   5.125   1.765   3.918 -0.1375  0.3713 -0.0707
 4374TIP3    H234614   5.069   1.625   3.903 -0.2742  0.3550  0.5715
 4375TIP3   OH234615   5.154   5.691   1.438  0.5881  0.2936 -0.1059
 4375TIP3    H134616   5.091   5.755   1.472  0.9315  1.6071 -1.8107
 4375TIP3    H234617   5.102   5.635   1.381  0.6990  0.5257 -0.4399
 4376TIP3   OH234618   2.515   5.960  16.108  0.1261  0.6043 -0.3311
 4376TIP3    H134619   2.520   6.053  16.083  0.1692  0.5867 -0.3867
 4376TIP3    H234620   2.430   5.931  16.075 -0.6008  1.0338  1.0548
 4377TIP3   OH234621   3.975   6.325  17.009 -0.2181  0.0108 -0.4888
 4377TIP3    H134622   3.923   6.385  16.956 -1.3800 -0.6000 -0.0913
 4377TIP3    H234623   3.922   6.310  17.088  0.7053 -0.3976  0.0846
 4378TIP3   OH234624   6.473   4.549  14.433  0.3127  0.0215  0.4722
 4378TIP3    H134625   6.495   4.641  14.449  0.8011  0.2145 -1.1799
 4378TIP3    H234626   6.384   4.540  14.468  0.0182  1.2753  0.1150
 4379TIP3   OH234627   5.067   3.985  16.815 -0.3329 -0.6771 -0.5065
 4379TIP3    H134628   5.156   3.996  16.780 -0.0579  1.1642  0.6204
 4379TIP3    H234629   5.061   3.892  16.837  2.0800 -0.5074  1.2682
 4380TIP3   OH234630   2.296   0.766  14.212  0.4299  0.5397  0.6413
 4380TIP3    H134631   2.235   0.793  14.144  0.5413  1.8423  1.0156
 4380TIP3    H234632   2.363   0.716  14.166 -0.6501 -0.4889  0.1551
 4381TIP3   OH234633   0.985   3.595  11.525 -0.4462  0.3663  0.5859
 4381TIP3    H134634   1.000   3.511  11.482 -0.2443  0.6799  0.0394
 4381TIP3    H234635   1.023   3.584  11.613 -1.7002 -0.6030  1.0463
 4382TIP3   OH234636   1.702   0.728   2.581 -0.0510  0.5217 -0.1647
 4382TIP3    H134637   1.647   0.682   2.643 -0.6882  2.3368  0.6972
 4382TIP3    H234638   1.791   0.718   2.615 -0.2797  0.6238  0.4749
 4383TIP3   OH234639   4.243   3.466  16.667 -0.5678  0.1090  0.5439
 4383TIP3    H134640   4.328   3.484  16.626 -1.7490  1.6948 -1.4138
 4383TIP3    H234641   4.202   3.552  16.674 -2.5800 -0.7606  0.0954
 4384TIP3   OH234642   3.144   4.074   6.161  0.4343  0.6240 -0.6544
 4384TIP3    H134643   3.177   4.157   6.193 -1.4242  1.7469 -1.4862
 4384TIP3    H234644   3.111   4.029   6.239 -0.1624  1.4710 -0.3967
 4385TIP3   OH234645   3.638   4.920   1.293 -0.1429  0.0795 -0.2449
 4385TIP3    H134646   3.728   4.910   1.264  0.1925  2.6570 -0.3203
 4385TIP3    H234647   3.590   4.850   1.249  1.7318 -1.1208 -0.4674
 4386TIP3   OH234648   6.203   0.684   2.489  0.0051 -0.4139  0.0668
 4386TIP3    H134649   6.173   0.770   2.459  2.6056  0.7492  0.5968
 4386TIP3    H234650   6.160   0.673   2.574 -1.1300 -0.1244 -0.4460
 4387TIP3   OH234651   3.406   4.796   0.114  0.1487  0.4476 -0.3952
 4387TIP3    H134652   3.443   4.883   0.102  0.6947  0.0037 -2.2300
 4387TIP3    H234653   3.480   4.737   0.106 -0.0803 -0.1925  1.6234
 4388TIP3   OH234654   5.770   3.600  14.634 -0.4738 -0.2223 -0.2747
 4388TIP3    H134655   5.840   3.658  14.604  0.6025 -1.3542 -0.0363
 4388TIP3    H234656   5.792   3.580  14.725  0.0728 -2.2113 -0.7922
 4389TIP3   OH234657   0.903   0.763   0.315  0.0384 -0.0393 -0.1907
 4389TIP3    H134658   0.981   0.770   0.260  0.4057 -1.1070  0.1743
 4389TIP3    H234659   0.923   0.814   0.393  0.5491 -0.6464  0.0849
 4390TIP3   OH234660   3.259   1.990  11.692  0.2479  0.7917  0.4981
 4390TIP3    H134661   3.168   1.991  11.724  0.0979 -1.7091  0.3071
 4390TIP3    H234662   3.311   1.968  11.769  0.2509 -1.5850 -0.1128
 4391TIP3   OH234663   2.549   1.219  11.561 -0.0643  0.0845 -0.1598
 4391TIP3    H134664   2.529   1.295  11.615 -1.5896  0.7624 -1.5910
 4391TIP3    H234665   2.533   1.144  11.619  1.5993  0.7838  1.3055
 4392TIP3   OH234666   2.651   0.164   2.559  0.0606  0.6014  0.5613
 4392TIP3    H134667   2.711   0.090   2.572 -0.7573 -0.4102 -1.1248
 4392TIP3    H234668   2.617   0.152   2.471  0.4978  3.4629 -0.0910
 4393TIP3   OH234669   0.570   0.761  15.274  0.2360 -0.2484 -0.6060
 4393TIP3    H134670   0.493   0.791  15.225 -0.0673  0.0298  0.0327
 4393TIP3    H234671   0.536   0.695  15.334  0.5839 -0.4976 -0.6833
 4394TIP3   OH234672   2.030   4.227   5.216  0.1265  0.1970 -0.9328
 4394TIP3    H134673   2.072   4.161   5.160  0.4950  0.3137 -0.7944
 4394TIP3    H234674   2.097   4.250   5.280 -1.1191 -1.9764  1.3320
 4395TIP3   OH234675   2.848   6.460  12.432  0.2069  0.2660  0.1288
 4395TIP3    H134676   2.786   6.446  12.503 -1.4993  0.6501 -1.2372
 4395TIP3    H234677   2.864   6.554  12.432  1.0076  0.1383  0.6332
 4396TIP3   OH234678   5.597   3.233  13.470  0.1931 -0.0127  0.0941
 4396TIP3    H134679   5.550   3.173  13.412  1.9318 -2.6580  1.2316
 4396TIP3    H234680   5.634   3.299  13.411 -0.2209 -1.1118 -1.4595
 4397TIP3   OH234681   3.095   0.942  14.982  0.6751  0.0085 -1.1713
 4397TIP3    H134682   3.189   0.961  14.985  0.6452  0.0566  1.4366
 4397TIP3    H234683   3.074   0.909  15.069 -1.5883 -0.8097 -1.9534
 4398TIP3   OH234684   4.242   5.748  14.252  0.2727 -0.3477  0.2277
 4398TIP3    H134685   4.307   5.679  14.241  0.5528 -0.1898  0.8657
 4398TIP3    H234686   4.286   5.815  14.305 -0.1681  0.0865  0.0536
 4399TIP3   OH234687   1.261   2.738  14.216  0.3778 -0.0714  0.4120
 4399TIP3    H134688   1.195   2.764  14.280 -0.4153 -0.3218 -0.2901
 4399TIP3    H234689   1.344   2.765  14.256 -0.0378 -0.7236  1.7911
 4400TIP3   OH234690   1.658   5.455   0.905 -0.4501 -0.4724 -0.2537
 4400TIP3    H134691   1.744   5.419   0.884  0.1613  0.0996  1.1964
 4400TIP3    H234692   1.625   5.489   0.821  1.1283  0.1404 -0.6480
 4401TIP3   OH234693   3.067   2.857  12.697 -0.2194  0.4006  0.6532
 4401TIP3    H134694   3.111   2.942  12.692  3.0920 -1.0635  1.8750
 4401TIP3    H234695   3.078   2.819  12.610 -0.0799  0.4861  0.6332
 4402TIP3   OH234696   5.208   3.293  10.489 -0.1473 -0.2580 -0.1421
 4402TIP3    H134697   5.241   3.215  10.444  3.9620  2.3080 -2.1282
 4402TIP3    H234698   5.174   3.260  10.573  2.5712 -4.0581 -0.2946
 4403TIP3   OH234699   4.541   1.661   2.260 -0.1332  0.4138  0.1718
 4403TIP3    H134700   4.610   1.725   2.241 -0.3439  0.3051 -1.0358
 4403TIP3    H234701   4.495   1.650   2.176 -1.9043  0.8205  1.0537
 4404TIP3   OH234702   6.076   2.398  16.447  0.1295  0.1662  0.0131
 4404TIP3    H134703   6.139   2.392  16.375  0.9366 -0.1754  0.7349
 4404TIP3    H234704   6.119   2.454  16.512  0.1923 -0.9636  0.9942
 4405TIP3   OH234705   1.739   0.919   2.272 -0.5459 -0.2709 -0.2730
 4405TIP3    H134706   1.794   0.988   2.309 -1.7241  0.2054  0.6493
 4405TIP3    H234707   1.746   0.931   2.178  0.9575 -0.2613 -0.1889
 4406TIP3   OH234708   5.965   0.003  16.229 -0.0105 -0.3338 -0.6504
 4406TIP3    H134709   5.901   0.002  16.158 -0.2774 -1.5613 -0.4128
 4406TIP3    H234710   5.925   0.057  16.298 -1.4474 -2.2018  0.0563
 4407TIP3   OH234711   6.576   2.184  16.421  0.0675  0.2578  0.3513
 4407TIP3    H134712   6.484   2.204  16.433  0.0234 -0.1065  0.6227
 4407TIP3    H234713   6.613   2.181  16.510  0.2294 -0.1066  0.2751
 4408TIP3   OH234714   0.311   2.147  14.161 -0.5274  0.0460  0.1837
 4408TIP3    H134715   0.255   2.191  14.097 -2.4754 -0.9971  1.0658
 4408TIP3    H234716   0.327   2.061  14.123 -2.4532 -0.9182  1.4037
 4409TIP3   OH234717   4.507   3.231   2.972  0.1243 -0.0133  0.3693
 4409TIP3    H134718   4.590   3.275   2.953 -0.0876  0.4263  0.4662
 4409TIP3    H234719   4.441   3.285   2.929 -0.1580 -0.1267  0.6599
 4410TIP3   OH234720   4.807   3.588  11.603 -0.3852  0.1933 -0.2902
 4410TIP3    H134721   4.848   3.658  11.553  0.2173  0.9205  1.1563
 4410TIP3    H234722   4.759   3.536  11.538 -1.2797  2.2222 -1.3363
 4411TIP3   OH234723   5.168   2.278   1.898  0.5050 -0.0416 -0.8032
 4411TIP3    H134724   5.145   2.366   1.927 -4.8777 -0.4775 -2.7097
 4411TIP3    H234725   5.235   2.291   1.832 -0.3172  2.6782 -1.2049
 4412TIP3   OH234726   0.166   3.956  14.584  0.4626 -0.2680  0.1627
 4412TIP3    H134727   0.245   3.904  14.590  0.3410 -0.3366  1.2915
 4412TIP3    H234728   0.101   3.898  14.544  1.1103 -0.0264 -1.3168
 4413TIP3   OH234729   3.533   2.710  15.591 -0.5591  0.7331 -0.2880
 4413TIP3    H134730   3.575   2.687  15.508 -0.0344 -0.0055  0.1734
 4413TIP3    H234731   3.560   2.641  15.652 -1.1838  1.0994  0.4231
 4414TIP3   OH234732   1.584   0.956   4.660  0.1872 -0.1551 -0.1244
 4414TIP3    H134733   1.662   0.970   4.607  0.2099 -0.5388 -0.1927
 4414TIP3    H234734   1.519   1.018   4.625  0.3981  0.0313 -0.1878
 4415TIP3   OH234735   0.845   2.961   4.223  0.2014 -0.0516 -0.2815
 4415TIP3    H134736   0.778   3.028   4.208 -0.0627 -0.5473 -1.3364
 4415TIP3    H234737   0.807   2.904   4.290  0.2134  0.5290  0.2375
 4416TIP3   OH234738   4.605   3.133  12.437  0.1949 -0.0038  0.2112
 4416TIP3    H134739   4.532   3.195  12.430  1.2333  1.1428 -1.2039
 4416TIP3    H234740   4.605   3.087  12.353  2.9090  2.2285 -1.1842
 4417TIP3   OH234741   1.370   6.078  13.540  0.0662 -0.3069 -0.2615
 4417TIP3    H134742   1.317   6.158  13.544 -0.5564 -0.7047 -0.4805
 4417TIP3    H234743   1.355   6.043  13.452 -0.9069 -1.5023  0.3584
 4418TIP3   OH234744   6.284   2.821   1.583 -0.6139  0.1423 -0.3398
 4418TIP3    H134745   6.335   2.805   1.662 -0.0125 -1.5465 -1.0284
 4418TIP3    H234746   6.331   2.892   1.538 -1.7204  2.0883  1.4113
 4419TIP3   OH234747   2.263   4.839  15.307 -0.1654  0.2902  0.3381
 4419TIP3    H134748   2.315   4.777  15.256 -2.6330 -1.2695 -0.4861
 4419TIP3    H234749   2.200   4.784  15.355 -0.8390  2.0240  1.5418
 4420TIP3   OH234750   4.223   0.840  14.414  0.2686 -0.0753  0.4207
 4420TIP3    H134751   4.287   0.793  14.467  0.8267 -0.8958 -0.9126
 4420TIP3    H234752   4.275   0.896  14.357 -0.0749 -1.3573 -1.2594
 4421TIP3   OH234753   1.611   1.654   4.902 -0.1726  0.5907  0.3620
 4421TIP3    H134754   1.661   1.573   4.895  0.2496  0.9155 -0.5254
 4421TIP3    H234755   1.636   1.705   4.824 -3.8383 -0.3124 -1.6231
 4422TIP3   OH234756   5.171   2.409  11.333 -0.1424 -0.0143  0.2688
 4422TIP3    H134757   5.085   2.450  11.326 -0.5213 -0.6499  0.9882
 4422TIP3    H234758   5.200   2.430  11.422  0.1522 -0.3711  0.2583
 4423TIP3   OH234759   1.509   3.965  11.985  0.3035 -0.1401 -0.0962
 4423TIP3    H134760   1.527   4.048  12.030  1.0148  0.0136 -0.6345
 4423TIP3    H234761   1.463   3.991  11.905 -2.3511 -0.5247  1.2012
 4424TIP3   OH234762   3.229   0.169  13.230 -0.1296 -0.2689 -0.6064
 4424TIP3    H134763   3.182   0.137  13.153  0.9606 -3.1695 -0.1881
 4424TIP3    H234764   3.320   0.178  13.201 -0.2519  1.8323 -0.4710
 4425TIP3   OH234765   0.917   5.364  11.685  0.1194 -0.1056  0.0030
 4425TIP3    H134766   0.844   5.326  11.635  1.4901 -0.9701 -1.4225
 4425TIP3    H234767   0.942   5.442  11.636  1.3803 -0.8727 -0.6074
 4426TIP3   OH234768   1.252   6.819   2.342 -0.0837 -0.1143 -0.1140
 4426TIP3    H134769   1.159   6.842   2.337  0.3630  1.8551 -0.1672
 4426TIP3    H234770   1.266   6.759   2.268 -1.1351  0.2644 -0.6422
 4427TIP3   OH234771   3.715   6.784  13.627 -0.5877  0.0044  0.4772
 4427TIP3    H134772   3.644   6.817  13.573 -0.6284 -2.4051 -1.0631
 4427TIP3    H234773   3.672   6.746  13.703 -0.8793 -0.5575  0.0333
 4428TIP3   OH234774   1.417   0.360   6.516 -0.1061 -0.4372  0.7311
 4428TIP3    H134775   1.376   0.359   6.602 -0.2814 -2.7779  0.6895
 4428TIP3    H234776   1.506   0.327   6.532  0.1322 -0.0868  0.1371
 4429TIP3   OH234777   2.904   5.852  11.743  0.0246 -0.0012 -0.0299
 4429TIP3    H134778   2.957   5.775  11.761 -0.7672 -0.1622  1.8375
 4429TIP3    H234779   2.955   5.925  11.778 -0.9228 -0.1574  1.7726
 4430TIP3   OH234780   2.515   3.463   2.173 -1.2001 -0.1136  0.3314
 4430TIP3    H134781   2.478   3.514   2.101  0.1659  1.4746  0.6852
 4430TIP3    H234782   2.605   3.496   2.182 -0.0729 -2.9116  0.3309
 4431TIP3   OH234783   3.631   5.487  17.032  0.4074  0.2444 -0.5514
 4431TIP3    H134784   3.678   5.560  17.072 -0.3242  0.9392 -0.9417
 4431TIP3    H234785   3.700   5.423  17.012  0.6757 -0.8783  3.1887
 4432TIP3   OH234786   5.727   0.975  12.623  0.4482  0.2866  0.3508
 4432TIP3    H134787   5.689   0.950  12.539 -0.0626 -1.4762  1.0640
 4432TIP3    H234788   5.813   1.009  12.601 -0.4164  1.7104 -1.0461
 4433TIP3   OH234789   4.480   5.811  11.309  0.4774 -0.0173  0.0813
 4433TIP3    H134790   4.548   5.748  11.330  0.8624  0.5744  0.6608
 4433TIP3    H234791   4.456   5.850  11.393 -0.3936 -0.0271 -0.1476
 4434TIP3   OH234792   3.055   3.544  14.932 -0.4472 -0.0711  0.0021
 4434TIP3    H134793   3.037   3.609  15.000 -0.3063 -0.2926  0.2546
 4434TIP3    H234794   2.989   3.476  14.945  0.6831 -1.0148  1.1024
 4435TIP3   OH234795   3.407   2.566  14.245 -0.7671 -0.1252 -0.2742
 4435TIP3    H134796   3.340   2.558  14.314 -1.0517  1.5832 -0.3086
 4435TIP3    H234797   3.445   2.653  14.259 -0.5055  0.0658 -1.9798
 4436TIP3   OH234798   3.476   2.216   2.234  0.0345 -0.2642  0.1279
 4436TIP3    H134799   3.431   2.291   2.194  2.4028  0.9444 -0.4516
 4436TIP3    H234800   3.470   2.233   2.329  0.3096  0.5351  0.0133
 4437TIP3   OH234801   4.396   5.352   0.824  0.9111  0.1731  0.0064
 4437TIP3    H134802   4.380   5.441   0.793 -0.7656  0.2493  0.9884
 4437TIP3    H234803   4.419   5.303   0.745 -0.1103  1.0477 -0.8656
 4438TIP3   OH234804   1.739   1.102  15.581  0.0702 -0.0357 -0.3191
 4438TIP3    H134805   1.793   1.081  15.658  1.3447  3.3787 -0.1219
 4438TIP3    H234806   1.652   1.120  15.618  0.5777  1.2025  0.3486
 4439TIP3   OH234807   5.698   5.869  16.301 -0.4476  0.4141 -0.0604
 4439TIP3    H134808   5.777   5.910  16.266  0.5236  0.4502  2.0227
 4439TIP3    H234809   5.689   5.788  16.250  1.8999 -0.3944  0.6682
 4440TIP3   OH234810   3.241   0.095  15.881  0.0876  0.1388  0.1775
 4440TIP3    H134811   3.170   0.087  15.818  1.2029  0.5502 -1.1894
 4440TIP3    H234812   3.244   0.188  15.902 -0.1719  0.0273  0.7309
 4441TIP3   OH234813   5.155   6.102  13.366 -0.1399 -0.2620 -0.5601
 4441TIP3    H134814   5.108   6.067  13.442 -1.0087  1.7606 -0.1065
 4441TIP3    H234815   5.094   6.093  13.293  0.7701 -2.3990 -1.1644
 4442TIP3   OH234816   2.239   3.487  13.236 -0.4771 -0.3376  0.4868
 4442TIP3    H134817   2.219   3.507  13.144 -1.4215  0.8745  0.9396
 4442TIP3    H234818   2.185   3.548  13.286  2.6044  1.5692  1.8180
 4443TIP3   OH234819   2.977   5.952  11.266  0.3300 -0.2022  0.3809
 4443TIP3    H134820   3.008   6.019  11.327  0.1324  0.2654 -0.0256
 4443TIP3    H234821   2.987   5.992  11.179 -0.3221 -0.4784  0.1696
 4444TIP3   OH234822   2.720   6.060  11.091 -0.6394 -0.2684  0.2005
 4444TIP3    H134823   2.811   6.080  11.066 -0.9843 -0.5242 -1.3946
 4444TIP3    H234824   2.715   5.964  11.089 -1.2074 -0.2351 -0.8413
 4445TIP3   OH234825   3.705   5.247   3.582 -0.2804 -0.1473  0.1442
 4445TIP3    H134826   3.656   5.171   3.553  1.7749 -0.9124 -1.5909
 4445TIP3    H234827   3.786   5.211   3.620  0.3568  1.1271  0.0732
 4446TIP3   OH234828   6.152   0.149  13.883 -0.5917  0.4729 -0.1711
 4446TIP3    H134829   6.111   0.089  13.821 -1.2059  0.9199 -0.2052
 4446TIP3    H234830   6.240   0.165  13.847 -0.1935 -0.8508  0.1450
 4447TIP3   OH234831   2.768   5.000  14.301  0.4224  0.6582 -0.3153
 4447TIP3    H134832   2.769   5.093  14.325  1.6127  0.6887 -0.3869
 4447TIP3    H234833   2.855   4.969  14.325 -0.5011 -0.8606  1.2810
 4448TIP3   OH234834   2.504   4.382   5.729  0.3623  0.0807 -0.0228
 4448TIP3    H134835   2.581   4.415   5.773  1.3022 -0.8594 -0.9012
 4448TIP3    H234836   2.450   4.343   5.798  0.6470  0.7695  0.5924
 4449TIP3   OH234837   5.289   3.969   2.310 -0.1398  0.1506 -0.4438
 4449TIP3    H134838   5.379   3.986   2.338 -0.3475  0.8065 -0.1644
 4449TIP3    H234839   5.282   3.874   2.309  0.8047  0.0744 -1.2461
 4450TIP3   OH234840   6.517   2.054  13.927  0.0710 -0.1403  0.1916
 4450TIP3    H134841   6.582   2.000  13.881  0.3004 -0.2493  0.6443
 4450TIP3    H234842   6.483   2.113  13.859  0.8015  0.0669 -0.0012
 4451TIP3   OH234843   5.282   0.070  11.162  1.1669  0.4898 -0.3072
 4451TIP3    H134844   5.214   0.125  11.122  0.1450 -0.9357 -0.6424
 4451TIP3    H234845   5.320   0.124  11.230 -0.5091  1.2677  0.0613
 4452TIP3   OH234846   1.797   2.608  13.234  0.0251  0.4008 -0.3900
 4452TIP3    H134847   1.774   2.696  13.206  0.5638  0.3423 -1.0244
 4452TIP3    H234848   1.893   2.606  13.233  0.0587  0.2700  1.0856
 4453TIP3   OH234849   5.889   5.937   3.550 -0.1461 -0.3037 -0.3234
 4453TIP3    H134850   5.962   5.951   3.610 -1.1200 -0.5772  0.9769
 4453TIP3    H234851   5.927   5.888   3.477  0.6793 -1.9101  1.1060
 4454TIP3   OH234852   1.663   0.543  12.836 -0.0117  0.0819 -0.9184
 4454TIP3    H134853   1.597   0.606  12.807 -0.1407 -0.8164 -2.7121
 4454TIP3    H234854   1.620   0.457  12.826  0.5552 -0.3729  0.3680
 4455TIP3   OH234855   5.527   1.288  13.056 -0.3929  0.2665  0.2749
 4455TIP3    H134856   5.531   1.225  13.127 -1.0817  0.0252  0.1057
 4455TIP3    H234857   5.534   1.236  12.976  2.0385  0.6654  0.1462
 4456TIP3   OH234858   5.571   0.542   1.451  0.0958 -0.3921  0.2216
 4456TIP3    H134859   5.531   0.558   1.537  2.2698 -0.2381  1.2593
 4456TIP3    H234860   5.525   0.603   1.392  0.2490  1.3248  1.7846
 4457TIP3   OH234861   3.483   3.406  16.778  0.2466 -0.2556  0.3785
 4457TIP3    H134862   3.524   3.461  16.710 -2.0045  1.9712  0.6398
 4457TIP3    H234863   3.406   3.370  16.735 -1.8398  2.0785  1.8862
 4458TIP3   OH234864   6.707   5.516  15.187 -0.0030  0.2059 -0.5172
 4458TIP3    H134865   6.716   5.421  15.181 -0.4123  0.1706 -0.6471
 4458TIP3    H234866   6.723   5.547  15.098  0.3808  0.2845 -0.4236
 4459TIP3   OH234867   1.777   1.602   4.601 -0.0760  0.4722  0.3394
 4459TIP3    H134868   1.872   1.602   4.613 -0.3873 -1.1041  5.1682
 4459TIP3    H234869   1.754   1.509   4.596 -1.4252  0.8250 -0.4701
 4460TIP3   OH234870   4.545   3.937  16.152  0.1475  0.1175  0.2136
 4460TIP3    H134871   4.555   4.008  16.089 -0.3057 -0.8672 -0.9987
 4460TIP3    H234872   4.487   3.973  16.220 -1.5548  0.3515 -1.2964
 4461TIP3   OH234873   0.107   2.040   5.195 -0.4172 -0.5331 -0.2755
 4461TIP3    H134874   0.103   1.959   5.144  3.4958 -2.8287  2.4678
 4461TIP3    H234875   0.031   2.035   5.254 -1.2620 -1.1976 -1.3850
 4462TIP3   OH234876   5.293   6.110  11.879  0.6310 -0.3714  0.4309
 4462TIP3    H134877   5.257   6.021  11.878  0.6247 -0.3777 -1.4329
 4462TIP3    H234878   5.216   6.167  11.876  0.6637 -0.3001  0.8264
 4463TIP3   OH234879   3.641   0.767   0.915  0.5028  0.1918  0.4867
 4463TIP3    H134880   3.611   0.759   1.006 -0.1545  0.5972  0.3087
 4463TIP3    H234881   3.616   0.856   0.889  0.4072 -0.0282 -0.1925
 4464TIP3   OH234882   4.099   6.291  15.231 -0.0283 -0.0207 -0.7159
 4464TIP3    H134883   4.175   6.236  15.211 -0.1709 -0.2020 -0.7652
 4464TIP3    H234884   4.088   6.345  15.153  1.1348  1.2763 -0.0188
 4465TIP3   OH234885   5.326   3.617  13.991  0.5981 -0.4244  0.2272
 4465TIP3    H134886   5.271   3.641  14.066  2.1970 -1.2690  1.7591
 4465TIP3    H234887   5.273   3.638  13.914 -0.4649  2.1240  1.5329
 4466TIP3   OH234888   2.926   5.823   1.482  0.5825  0.3366 -0.1926
 4466TIP3    H134889   2.841   5.817   1.527  0.4927 -1.5450 -0.5527
 4466TIP3    H234890   2.982   5.760   1.528  2.4856  2.9373  1.3549
 4467TIP3   OH234891   0.415   6.337   0.758  0.0388 -0.7411  0.5160
 4467TIP3    H134892   0.446   6.248   0.738  1.4139 -0.5903  1.8217
 4467TIP3    H234893   0.413   6.381   0.673  1.5867 -1.3580  0.1240
 4468TIP3   OH234894   0.655   4.255   2.765  0.1065 -0.2063  0.0718
 4468TIP3    H134895   0.646   4.183   2.702 -1.4258 -0.5524  0.6410
 4468TIP3    H234896   0.739   4.239   2.808  1.4139  0.2771 -2.1443
 4469TIP3   OH234897   4.339   4.000   0.896  0.5117 -0.4703  0.0065
 4469TIP3    H134898   4.338   3.905   0.898  1.3738 -0.4726  1.5084
 4469TIP3    H234899   4.331   4.026   0.987  0.7027  0.8949 -0.3435
 4470TIP3   OH234900   3.403   0.885  13.162 -0.5423 -0.4188  0.4606
 4470TIP3    H134901   3.450   0.814  13.206  2.0621  1.1307  0.3706
 4470TIP3    H234902   3.373   0.846  13.080 -1.6643 -2.1384  1.6088
 4471TIP3   OH234903   4.870   3.487  12.891  0.3082 -0.0650  0.1285
 4471TIP3    H134904   4.815   3.562  12.916  0.4675 -0.4289  1.7230
 4471TIP3    H234905   4.810   3.412  12.894 -0.0642  0.0552 -2.3297
 4472TIP3   OH234906   3.534   6.792  16.185 -0.3312 -0.2406  0.1575
 4472TIP3    H134907   3.624   6.790  16.217  0.2546  2.6005 -1.0194
 4472TIP3    H234908   3.537   6.746  16.101  0.3590  0.9141 -0.4780
 4473TIP3   OH234909   6.721   6.706  10.765 -0.0422 -0.6483  0.2406
 4473TIP3    H134910   6.708   6.611  10.770  0.0924 -0.6362  1.0237
 4473TIP3    H234911   6.790   6.725  10.829 -0.6439  0.0713  0.7025
 4474TIP3   OH234912   1.824   5.822   1.737 -0.1581 -0.2431 -0.4279
 4474TIP3    H134913   1.731   5.837   1.750 -0.2779 -0.5403 -0.8924
 4474TIP3    H234914   1.828   5.755   1.668  0.3847 -0.6133 -0.0511
 4475TIP3   OH234915   1.873   0.937  12.097  0.3846 -0.6665  0.4180
 4475TIP3    H134916   1.943   0.963  12.037  1.0273 -0.3315  1.3006
 4475TIP3    H234917   1.816   0.881  12.044  1.2518 -0.8498 -0.3426
 4476TIP3   OH234918   0.588   4.251  10.162  0.4406  0.4687 -0.1800
 4476TIP3    H134919   0.617   4.186  10.226 -0.0929 -0.8372 -1.2494
 4476TIP3    H234920   0.514   4.210  10.117  0.9467  1.2843 -1.7981
 4477TIP3   OH234921   6.011   4.282  13.805  0.2268 -0.1258  0.3064
 4477TIP3    H134922   6.058   4.205  13.774  1.7760  0.5312  0.9151
 4477TIP3    H234923   6.055   4.305  13.887 -2.1472 -0.3641  1.7700
 4478TIP3   OH234924   5.605   1.776   5.325 -0.4239 -0.0169 -0.2375
 4478TIP3    H134925   5.633   1.864   5.302  1.9710 -0.2607  1.4074
 4478TIP3    H234926   5.615   1.725   5.244 -0.7612  0.9456 -0.9059
 4479TIP3   OH234927   0.374   3.758   3.895  0.1100 -0.1212 -0.4345
 4479TIP3    H134928   0.355   3.846   3.863  0.1769 -0.6396 -1.9739
 4479TIP3    H234929   0.459   3.766   3.940 -0.1615  0.6986 -0.0486
 4480TIP3   OH234930   6.557   2.072   2.953 -0.4140 -0.1949 -0.5156
 4480TIP3    H134931   6.609   1.994   2.935  0.0731 -0.3086  1.1898
 4480TIP3    H234932   6.612   2.144   2.924  0.2179 -0.3791  0.1764
 4481TIP3   OH234933   6.802   6.299   3.344  0.3023  0.0575 -0.8282
 4481TIP3    H134934   6.857   6.244   3.400  0.9510 -0.2022 -1.6975
 4481TIP3    H234935   6.713   6.280   3.372  0.6148  0.0090  0.1784
 4482TIP3   OH234936   5.489   5.396   4.442 -0.1666  0.1443 -0.4818
 4482TIP3    H134937   5.426   5.437   4.383 -0.5152 -1.5875 -1.3790
 4482TIP3    H234938   5.442   5.385   4.525 -0.4078  0.5996 -0.5585
 4483TIP3   OH234939   1.855   4.428   5.870  0.0636 -0.2282 -0.0099
 4483TIP3    H134940   1.945   4.424   5.900  0.0634 -0.6953 -0.0604
 4483TIP3    H234941   1.808   4.366   5.926 -0.5369  1.1543  1.0616
 4484TIP3   OH234942   0.815   0.728   6.004 -0.1789  0.1175  0.3257
 4484TIP3    H134943   0.791   0.763   6.090 -0.9285 -1.3270  0.7439
 4484TIP3    H234944   0.744   0.757   5.946 -0.6287 -0.3953  0.6027
 4485TIP3   OH234945   5.444   3.867   4.281  0.6710  0.4059  0.1339
 4485TIP3    H134946   5.423   3.831   4.367  1.2946 -0.5456 -0.0955
 4485TIP3    H234947   5.379   3.830   4.222 -0.0634  1.4563  0.2717
 4486TIP3   OH234948   0.110   2.577  14.138 -0.3346 -0.0940  0.1673
 4486TIP3    H134949   0.186   2.588  14.081 -0.2362  0.5957  0.4139
 4486TIP3    H234950   0.056   2.654  14.120 -0.5933 -0.1835  0.5606
 4487TIP3   OH234951   2.390   5.649  14.843 -0.1480 -0.3760  0.4151
 4487TIP3    H134952   2.387   5.743  14.860  1.8919 -0.2503  0.3103
 4487TIP3    H234953   2.330   5.611  14.908 -1.2896  0.9992  0.2130
 4488TIP3   OH234954   6.159   5.856  14.797  0.3364  0.4646  0.1087
 4488TIP3    H134955   6.076   5.867  14.750  0.8383  1.0710 -0.6493
 4488TIP3    H234956   6.225   5.896  14.740  1.1625 -0.0495  0.6845
 4489TIP3   OH234957   4.976   2.635  12.229 -0.3987  0.0894 -0.3828
 4489TIP3    H134958   4.939   2.619  12.142  0.3915 -0.4424 -0.6304
 4489TIP3    H234959   5.070   2.646  12.213 -0.2885  0.2721  0.3731
 4490TIP3   OH234960   4.982   5.779  14.700 -0.5222 -0.0237 -0.1081
 4490TIP3    H134961   5.032   5.728  14.636 -0.2498 -0.3946  0.4011
 4490TIP3    H234962   4.896   5.790  14.659 -0.3312 -0.2046 -0.5653
 4491TIP3   OH234963   2.072   3.188  16.978  0.0548  0.3616  0.6676
 4491TIP3    H134964   2.004   3.123  16.962  1.1115 -0.6430  0.1223
 4491TIP3    H234965   2.102   3.213  16.890  1.4092 -0.3280  0.9194
 4492TIP3   OH234966   0.372   1.209  15.127  0.4493  0.4546  0.3227
 4492TIP3    H134967   0.353   1.169  15.043 -0.6033 -0.1097  0.8193
 4492TIP3    H234968   0.467   1.197  15.138  0.6377  0.7237 -0.8577
 4493TIP3   OH234969   2.401   5.063   4.588 -0.2568  0.4110 -0.2989
 4493TIP3    H134970   2.409   5.106   4.503  1.6490 -0.1313 -0.4428
 4493TIP3    H234971   2.396   4.970   4.567 -4.4123  0.3962  0.0056
 4494TIP3   OH234972   1.965   0.396   0.147 -0.6625  0.0887 -0.2918
 4494TIP3    H134973   1.935   0.375   0.059  0.3100  0.6454 -0.7795
 4494TIP3    H234974   1.908   0.467   0.176 -0.6591  0.2524 -0.6845
 4495TIP3   OH234975   6.034   4.634  13.920  0.3796 -0.4019  0.1565
 4495TIP3    H134976   5.950   4.590  13.908  0.8277 -1.6780  1.3688
 4495TIP3    H234977   6.065   4.652  13.831  0.1151 -2.4863 -0.4086
 4496TIP3   OH234978   6.798   6.700  14.131 -0.4295  0.2717  0.3329
 4496TIP3    H134979   6.714   6.717  14.088 -0.5695  1.2871  0.9637
 4496TIP3    H234980   6.859   6.684  14.060 -0.6650  1.8599 -0.2769
 4497TIP3   OH234981   5.083   6.384   4.379 -0.0026  0.6143  0.3455
 4497TIP3    H134982   5.168   6.342   4.393  0.6174  1.0249 -1.8357
 4497TIP3    H234983   5.100   6.452   4.314 -1.8714  1.2062  0.4089
 4498TIP3   OH234984   1.482   5.388   5.288  0.4887 -0.4509  0.4911
 4498TIP3    H134985   1.547   5.426   5.229  0.2047 -1.1353 -0.2935
 4498TIP3    H234986   1.427   5.462   5.314  0.9497 -0.0460  0.3205
 4499TIP3   OH234987   2.493   3.926  14.901 -0.2518  0.3903  0.1505
 4499TIP3    H134988   2.521   3.852  14.955  1.8264  1.2113  0.2637
 4499TIP3    H234989   2.430   3.888  14.840 -1.1331 -0.9576  1.7834
 4500TIP3   OH234990   0.378   5.628  10.892 -0.1353  0.1563  0.7294
 4500TIP3    H134991   0.374   5.534  10.906 -2.4215  0.2405  0.9415
 4500TIP3    H234992   0.329   5.643  10.811  1.1256  1.0930  0.0963
 4501TIP3   OH234993   1.760   1.532  15.356 -0.3589 -0.6613 -0.2497
 4501TIP3    H134994   1.712   1.547  15.275  2.0418 -0.3027 -1.7329
 4501TIP3    H234995   1.737   1.605  15.413  0.3772  0.9588 -1.9232
 4502TIP3   OH234996   1.747   4.889   1.173 -0.4294  0.3159 -0.2663
 4502TIP3    H134997   1.706   4.924   1.094  0.0130  1.0080 -0.1994
 4502TIP3    H234998   1.837   4.923   1.170 -0.2340 -0.1384  0.2348
 4503TIP3   OH234999   3.577   2.322   5.357 -0.6371  0.1112 -0.0708
 4503TIP3    H135000   3.606   2.233   5.336  0.7230  0.8993 -1.8293
 4503TIP3    H235001   3.657   2.368   5.382 -1.2489  0.9462  0.3899
 4504TIP3   OH235002   2.814   3.729   1.264  0.5159 -0.6165  0.0021
 4504TIP3    H135003   2.843   3.769   1.345  1.5439 -0.3174 -0.4946
 4504TIP3    H235004   2.733   3.684   1.287  0.9374 -0.7744  1.2513
 4505TIP3   OH235005   2.396   5.280   2.075  0.3023  0.3756 -0.0663
 4505TIP3    H135006   2.400   5.321   2.161 -2.9109 -1.2099  1.0245
 4505TIP3    H235007   2.372   5.351   2.016 -3.0080  0.7167  1.4234
 4506TIP3   OH235008   4.512   4.419   3.157  0.1448  0.6100  0.5142
 4506TIP3    H135009   4.544   4.365   3.229 -0.1508 -1.1715 -0.6242
 4506TIP3    H235010   4.536   4.371   3.078 -3.9670 -0.2293 -0.4840
 4507TIP3   OH235011   6.169   3.878  11.253  0.0739  0.2281 -0.0841
 4507TIP3    H135012   6.257   3.854  11.285  0.4756  1.3806 -0.2671
 4507TIP3    H235013   6.185   3.914  11.166 -0.5966  0.3975 -0.1359
 4508TIP3   OH235014   1.568   6.244  13.241 -1.2385  0.3987  0.2137
 4508TIP3    H135015   1.654   6.238  13.199 -1.3828 -0.5570  0.0395
 4508TIP3    H235016   1.506   6.218  13.173 -1.7493  1.8503  0.0973
 4509TIP3   OH235017   1.619   5.822  14.441 -0.3335 -0.3515 -0.1672
 4509TIP3    H135018   1.637   5.853  14.530  1.1311 -0.3806 -0.4411
 4509TIP3    H235019   1.700   5.781  14.412 -0.4811  0.4613 -1.8608
 4510TIP3   OH235020   3.660   0.891   1.984 -0.4142  0.2455 -0.0495
 4510TIP3    H135021   3.711   0.958   1.939  0.3871 -0.4062 -0.1224
 4510TIP3    H235022   3.662   0.815   1.925  0.4966 -0.5601  0.9799
 4511TIP3   OH235023   4.948   3.661  10.561 -0.1664 -0.0710  0.1306
 4511TIP3    H135024   4.980   3.613  10.637  1.0556  2.4109  1.2987
 4511TIP3    H235025   4.966   3.602  10.487  1.6430 -1.2439  1.3990
 4512TIP3   OH235026   5.361   6.316  16.614 -0.6660  0.1574 -0.1416
 4512TIP3    H135027   5.294   6.305  16.547 -0.2576  0.6823 -0.6466
 4512TIP3    H235028   5.442   6.287  16.571 -0.6492 -1.0339  0.6455
 4513TIP3   OH235029   4.565   2.546  12.442  0.4157  0.0879  0.3309
 4513TIP3    H135030   4.504   2.487  12.487 -1.6596  0.7180 -1.5176
 4513TIP3    H235031   4.641   2.491  12.423 -0.7262 -1.5340  0.2134
 4514TIP3   OH235032   6.452   2.412   3.283 -0.0789 -0.1955 -0.6115
 4514TIP3    H135033   6.390   2.477   3.318  0.7369  0.8320 -1.0278
 4514TIP3    H235034   6.535   2.433   3.325  0.6891  0.4092 -2.3649
 4515TIP3   OH235035   3.424   3.238  12.244 -0.0768  0.0101 -0.2543
 4515TIP3    H135036   3.475   3.310  12.207  0.0597 -0.5793 -1.2636
 4515TIP3    H235037   3.342   3.278  12.272  0.0500  0.5824 -0.6888
 4516TIP3   OH235038   3.736   4.533  14.131  0.7933 -0.4488  0.2219
 4516TIP3    H135039   3.767   4.445  14.109 -2.7265 -2.0832  0.9930
 4516TIP3    H235040   3.733   4.534  14.227 -2.9140 -1.2221  0.2974
 4517TIP3   OH235041   5.436   6.630  14.357 -0.2565 -0.2364  0.0841
 4517TIP3    H135042   5.529   6.652  14.354 -0.3231  0.0454 -0.0073
 4517TIP3    H235043   5.429   6.563  14.425  0.0489 -0.4416 -0.0843
 4518TIP3   OH235044   3.048   4.813   4.601  0.3661 -0.2531  0.7412
 4518TIP3    H135045   3.079   4.900   4.624 -0.3944  0.2370 -0.0288
 4518TIP3    H235046   3.098   4.790   4.523 -0.7164  0.2723 -0.1282
 4519TIP3   OH235047   1.398   0.583  10.492 -0.5274  0.1883 -0.1543
 4519TIP3    H135048   1.446   0.531  10.427 -0.0858 -0.1264  0.4116
 4519TIP3    H235049   1.383   0.522  10.565 -0.4787  0.7085  0.2942
 4520TIP3   OH235050   2.142   5.397  14.614 -0.3269  0.5795 -0.0227
 4520TIP3    H135051   2.100   5.467  14.564 -1.3580 -0.8095 -1.1874
 4520TIP3    H235052   2.143   5.322  14.554  3.3399  0.3450  0.1288
 4521TIP3   OH235053   6.526   4.223  11.744 -0.3601  0.4236 -0.1394
 4521TIP3    H135054   6.518   4.312  11.779  0.4224  1.6192 -2.7193
 4521TIP3    H235055   6.499   4.232  11.652  1.8793 -1.5116 -1.0708
 4522TIP3   OH235056   1.160   2.200   0.221 -0.0980  0.2841  0.0612
 4522TIP3    H135057   1.117   2.137   0.164 -1.1964  1.4913 -0.4923
 4522TIP3    H235058   1.253   2.176   0.218 -0.3015 -0.4130 -1.2520
 4523TIP3   OH235059   4.448   2.565  12.177 -0.3956 -0.0641  0.1695
 4523TIP3    H135060   4.505   2.598  12.247  1.1051  0.9512 -1.4370
 4523TIP3    H235061   4.387   2.507  12.221  0.1156  0.9728  2.4094
 4524TIP3   OH235062   6.495   4.113   5.638 -0.4073 -0.6527  0.5513
 4524TIP3    H135063   6.464   4.111   5.729 -1.4028  2.0648  0.3551
 4524TIP3    H235064   6.436   4.174   5.594  0.2429 -1.6837 -1.8927
 4525TIP3   OH235065   5.440   5.512  12.345  0.2025 -0.4107 -0.0430
 4525TIP3    H135066   5.419   5.606  12.349 -1.5959 -0.6781 -1.6953
 4525TIP3    H235067   5.412   5.478  12.430  1.2456  0.5845  0.7325
 4526TIP3   OH235068   2.480   2.972   4.210  0.1348  0.1464  0.0520
 4526TIP3    H135069   2.489   2.877   4.220  0.9928 -0.6281 -5.2486
 4526TIP3    H235070   2.568   3.006   4.225  1.1325 -0.7657 -3.0103
 4527TIP3   OH235071   2.841   3.764   4.101 -0.0215 -0.3789 -0.7805
 4527TIP3    H135072   2.881   3.828   4.042  0.7625 -0.9626 -0.8918
 4527TIP3    H235073   2.748   3.788   4.103  0.4001  1.2803 -0.1455
 4528TIP3   OH235074   0.032   0.142  16.781  0.1790 -0.2420 -0.4573
 4528TIP3    H135075   0.101   0.187  16.829 -0.5204 -0.5223  0.8403
 4528TIP3    H235076  -0.044   0.200  16.787  0.0749 -0.2831 -1.2302
 4529TIP3   OH235077   0.744   0.137  16.079  0.3870 -0.2811  0.8122
 4529TIP3    H135078   0.800   0.060  16.071  1.2710  0.3498  0.7672
 4529TIP3    H235079   0.787   0.191  16.145 -0.0933  0.2897  0.6655
 4530TIP3   OH235080   1.906   3.275   0.367  0.8194  0.4707  0.1812
 4530TIP3    H135081   1.866   3.193   0.338  1.6553  0.5603 -1.3008
 4530TIP3    H235082   1.885   3.338   0.299 -2.6992  2.5223  2.7818
 4531TIP3   OH235083   5.859   4.348   4.178  0.0458 -0.7504 -0.0177
 4531TIP3    H135084   5.771   4.367   4.210  0.0538 -1.1080  0.2139
 4531TIP3    H235085   5.913   4.419   4.215 -0.3096  0.0333 -0.9693
 4532TIP3   OH235086   3.750   3.387   3.793  0.1402 -0.1032  1.0585
 4532TIP3    H135087   3.671   3.352   3.753 -0.4651  0.5941  1.6191
 4532TIP3    H235088   3.819   3.326   3.767 -0.5297 -0.5772  0.3484
 4533TIP3   OH235089   0.541   3.461  15.440 -0.4072 -0.1189  0.2426
 4533TIP3    H135090   0.630   3.461  15.405  0.0992 -1.1185  1.4832
 4533TIP3    H235091   0.552   3.476  15.534 -1.5176 -0.6306  0.4689
 4534TIP3   OH235092   5.948   2.432  11.973  0.5845 -0.0505  0.4676
 4534TIP3    H135093   5.869   2.391  12.009  0.7933  0.8080  1.9443
 4534TIP3    H235094   6.019   2.402  12.029  1.0725  0.4983  0.1499
 4535TIP3   OH235095   4.872   5.662  16.772 -0.4755  0.2258 -0.4241
 4535TIP3    H135096   4.802   5.727  16.766 -0.7754 -0.1260 -0.7457
 4535TIP3    H235097   4.872   5.635  16.864  0.1486  1.2272 -0.1141
 4536TIP3   OH235098   6.133   5.160  15.742 -0.0442 -0.2399  0.4610
 4536TIP3    H135099   6.214   5.202  15.771  0.2742 -0.8653  0.4887
 4536TIP3    H235100   6.075   5.163  15.818  0.1321 -0.2348  0.5955
 4537TIP3   OH235101   0.167   6.011  16.686 -0.6179  0.6479  0.0606
 4537TIP3    H135102   0.162   6.105  16.701  1.2038  0.7631  0.1633
 4537TIP3    H235103   0.108   5.995  16.611 -0.4872  1.9545 -0.3424
 4538TIP3   OH235104   6.703   1.522   2.916  0.4638 -0.7723 -0.5093
 4538TIP3    H135105   6.758   1.551   2.844 -0.7431  2.9796 -0.1268
 4538TIP3    H235106   6.764   1.502   2.987  1.5397  2.0220 -0.5080
 4539TIP3   OH235107   0.071   6.358   1.666 -0.6960  0.5313  0.0822
 4539TIP3    H135108   0.019   6.356   1.747 -0.4208  1.0516  0.2770
 4539TIP3    H235109   0.153   6.314   1.689 -1.1012 -0.4469 -0.2744
 4540TIP3   OH235110   2.469   4.438  13.794 -0.9041  0.5421  0.1248
 4540TIP3    H135111   2.378   4.447  13.822 -0.9883  0.5298 -0.1446
 4540TIP3    H235112   2.466   4.375  13.721 -0.8572  1.5450 -0.7662
 4541TIP3   OH235113   1.737   2.505  15.976 -0.4456  0.2718  0.0792
 4541TIP3    H135114   1.728   2.417  16.014 -2.7648 -0.0062 -0.9840
 4541TIP3    H235115   1.804   2.495  15.909  0.6625 -0.2036  1.2080
 4542TIP3   OH235116   6.110   0.362  11.598  0.0326  0.2123  0.1880
 4542TIP3    H135117   6.060   0.436  11.564  1.0630  0.9526  0.2449
 4542TIP3    H235118   6.043   0.301  11.629 -0.8427  1.0778  0.0701
 4543TIP3   OH235119   1.572   0.764  12.457 -0.4264 -0.4277 -0.3219
 4543TIP3    H135120   1.558   0.829  12.388  0.4168 -1.3664 -1.4135
 4543TIP3    H235121   1.666   0.770  12.476 -0.6707 -0.0823  0.8675
 4544TIP3   OH235122   3.270   5.421   1.007  0.0171  0.1934  0.2295
 4544TIP3    H135123   3.212   5.462   0.943  0.7350  0.1768 -0.4533
 4544TIP3    H235124   3.289   5.490   1.070  0.3673  0.6138 -0.3231
 4545TIP3   OH235125   4.359   3.547  14.905 -0.1878 -0.1140  0.0058
 4545TIP3    H135126   4.307   3.627  14.914 -1.2520 -0.6433 -1.1341
 4545TIP3    H235127   4.296   3.481  14.877  0.7840 -1.2296  0.3782
 4546TIP3   OH235128   5.698   0.867  15.841 -0.0588  0.0095  0.7669
 4546TIP3    H135129   5.762   0.893  15.775  0.7732 -0.4409  1.3709
 4546TIP3    H235130   5.653   0.792  15.801 -0.8472  0.8761 -0.0214
 4547TIP3   OH235131   3.357   4.278  16.697 -0.5407  0.3575 -0.3938
 4547TIP3    H135132   3.389   4.253  16.610 -1.6545 -0.2220 -0.6557
 4547TIP3    H235133   3.263   4.257  16.695 -0.2763 -1.3693  1.5558
 4548TIP3   OH235134   5.145   3.937   5.813 -0.3197  0.1403  0.1719
 4548TIP3    H135135   5.206   3.966   5.881  0.4579 -2.0651  0.4719
 4548TIP3    H235136   5.061   3.975   5.839  0.4037  1.1563  1.1274
 4549TIP3   OH235137   4.716   0.622  11.761 -0.1064  0.0435  0.1860
 4549TIP3    H135138   4.651   0.689  11.784 -0.2578 -0.3136  0.8122
 4549TIP3    H235139   4.779   0.624  11.832 -0.4682 -0.9261  0.5507
 4550TIP3   OH235140   2.365   2.793   1.605 -0.3867 -0.3774 -0.0817
 4550TIP3    H135141   2.286   2.773   1.655  0.6819 -2.8581  0.7604
 4550TIP3    H235142   2.437   2.773   1.665  0.9165  1.3638 -0.9836
 4551TIP3   OH235143   3.914   2.337   3.520 -0.3761 -0.0211 -0.0850
 4551TIP3    H135144   4.004   2.322   3.548 -0.2656  0.1715 -0.3450
 4551TIP3    H235145   3.920   2.356   3.427 -0.4619  2.1601  0.3096
 4552TIP3   OH235146   0.728   0.643   6.675 -0.4104  0.2791  0.0208
 4552TIP3    H135147   0.662   0.688   6.622 -0.2519  0.9615  0.3900
 4552TIP3    H235148   0.734   0.555   6.637  0.7749  1.2011 -2.0547
 4553TIP3   OH235149   6.630   4.883  13.544 -0.1281  0.1551 -0.2548
 4553TIP3    H135150   6.562   4.933  13.589 -0.8874  0.0141 -1.2069
 4553TIP3    H235151   6.679   4.949  13.494 -0.9255  0.0171 -1.2535
 4554TIP3   OH235152   0.999   0.494  14.335 -0.0792 -0.0626  0.5278
 4554TIP3    H135153   1.055   0.423  14.366  1.3410 -0.6787 -2.9651
 4554TIP3    H235154   1.056   0.571  14.333  0.4064 -0.4190 -1.9155
 4555TIP3   OH235155   4.908   6.611  17.233 -0.6254  0.1830 -0.3844
 4555TIP3    H135156   4.868   6.625  17.147  0.1800 -0.6748 -0.9248
 4555TIP3    H235157   4.960   6.531  17.222  1.0814  1.1474  0.3406
 4556TIP3   OH235158   3.945   4.796  12.387 -0.1370 -0.4880  0.4610
 4556TIP3    H135159   3.902   4.803  12.301  0.2735  0.5549  0.3302
 4556TIP3    H235160   4.025   4.747  12.369 -0.4554 -0.9967  0.4049
 4557TIP3   OH235161   0.314   2.631   1.324  0.8033  0.1102 -0.2904
 4557TIP3    H135162   0.357   2.648   1.240  0.3235 -1.7572 -0.9726
 4557TIP3    H235163   0.376   2.575   1.371 -0.3436 -1.7438 -0.8621
 4558TIP3   OH235164   1.112   5.605   2.771  0.3687 -0.0646 -0.4860
 4558TIP3    H135165   1.060   5.656   2.834  0.3146  0.5434 -1.0117
 4558TIP3    H235166   1.141   5.528   2.821 -1.7923 -0.9049 -0.4321
 4559TIP3   OH235167   2.464   3.783   5.225 -1.2147 -0.6656  0.0109
 4559TIP3    H135168   2.372   3.783   5.250 -1.3728 -0.3171 -0.5643
 4559TIP3    H235169   2.492   3.874   5.239 -1.3061 -0.4613 -1.0709
 4560TIP3   OH235170   0.007   2.779   3.437 -0.1137  0.4824  0.5875
 4560TIP3    H135171  -0.052   2.706   3.419 -0.4575  0.5255  1.5205
 4560TIP3    H235172  -0.050   2.853   3.455  0.1926  1.5245 -2.2180
 4561TIP3   OH235173   5.984   0.584  10.924  0.1098  0.1132 -0.1306
 4561TIP3    H135174   5.893   0.613  10.916 -0.6059 -1.4757  1.4876
 4561TIP3    H235175   5.981   0.490  10.906  1.5928  0.1716 -0.8616
 4562TIP3   OH235176   3.611   1.772   6.751 -0.1022  0.1350 -0.4235
 4562TIP3    H135177   3.532   1.769   6.806 -0.2261  0.9892 -0.5337
 4562TIP3    H235178   3.613   1.862   6.718  1.7975  0.6129  0.8392
 4563TIP3   OH235179   4.884   5.576   6.499  0.4062 -0.0348 -0.1023
 4563TIP3    H135180   4.875   5.650   6.439 -0.9238  0.9249  1.2293
 4563TIP3    H235181   4.921   5.614   6.578 -0.0323 -0.8385  0.4994
 4564TIP3   OH235182   0.543   4.352   3.707 -0.5978 -0.0050  0.4303
 4564TIP3    H135183   0.597   4.431   3.717 -1.0435  0.3311  0.2147
 4564TIP3    H235184   0.599   4.290   3.660 -0.5715  0.5205 -0.2445
 4565TIP3   OH235185   5.581   0.646  16.441  0.5320  0.6910 -0.5883
 4565TIP3    H135186   5.488   0.659  16.425  0.0068  0.6591  2.0444
 4565TIP3    H235187   5.599   0.559  16.407 -0.0200  1.2405 -2.4106
 4566TIP3   OH235188   6.719   2.371   5.659 -0.0985 -0.2319 -0.0595
 4566TIP3    H135189   6.697   2.388   5.567  1.0650  2.6755  0.0925
 4566TIP3    H235190   6.635   2.350   5.700 -1.2374  1.8267 -1.1536
 4567TIP3   OH235191   2.912   1.985   5.325 -0.1219  0.5067 -0.6510
 4567TIP3    H135192   2.863   1.909   5.357 -3.4345  1.5555 -2.7151
 4567TIP3    H235193   2.983   1.949   5.273  0.5009 -1.1180  1.2268
 4568TIP3   OH235194   0.479   4.541  14.434  0.4470 -0.3720 -0.5179
 4568TIP3    H135195   0.477   4.559  14.528  1.3574  2.3023 -0.9295
 4568TIP3    H235196   0.570   4.557  14.409 -0.1477  0.6439 -2.1313
 4569TIP3   OH235197   4.776   3.632   3.373 -0.1639  0.2666 -0.0851
 4569TIP3    H135198   4.823   3.712   3.347 -0.7576  1.0928  1.3132
 4569TIP3    H235199   4.756   3.645   3.466  0.2175 -1.7601  0.3217
 4570TIP3   OH235200   1.330   0.526  16.559  0.1637  0.6338  0.0937
 4570TIP3    H135201   1.363   0.612  16.533  0.4586  0.2724 -0.7615
 4570TIP3    H235202   1.393   0.464  16.522  0.2550  0.0587  1.1534
 4571TIP3   OH235203   5.924   3.294  13.380  0.0152  0.2901  0.5031
 4571TIP3    H135204   6.006   3.250  13.356 -1.5132 -2.2968 -0.3779
 4571TIP3    H235205   5.914   3.277  13.473  0.4558  0.6505  0.6238
 4572TIP3   OH235206   1.015   4.589  13.194  0.3424 -0.3359 -0.0513
 4572TIP3    H135207   0.948   4.528  13.164  2.3223 -2.6471 -0.0898
 4572TIP3    H235208   1.097   4.556  13.156  1.5993  2.0795  0.3574
 4573TIP3   OH235209   4.799   3.811   1.664  0.7890  0.2604 -0.0491
 4573TIP3    H135210   4.730   3.868   1.698 -0.3007 -0.3584 -1.1424
 4573TIP3    H235211   4.807   3.742   1.729  1.2880  1.0103  0.7050
 4574TIP3   OH235212   2.624   3.692   4.711  0.1885 -0.1592 -0.0765
 4574TIP3    H135213   2.580   3.738   4.640 -0.3973 -1.1475 -0.3682
 4574TIP3    H235214   2.572   3.713   4.789 -0.8768 -1.3664 -0.4278
 4575TIP3   OH235215   4.007   3.677  13.036  0.2308 -0.3146 -0.1103
 4575TIP3    H135216   4.103   3.671  13.034  0.5713  1.8406  2.9121
 4575TIP3    H235217   3.986   3.698  13.127 -3.2031 -1.1280 -0.5811
 4576TIP3   OH235218   6.487   2.882  16.326 -0.0689 -0.5364  0.1306
 4576TIP3    H135219   6.430   2.860  16.400  1.3919 -0.3479  1.3373
 4576TIP3    H235220   6.441   2.954  16.282 -1.9221 -1.9145 -0.3553
 4577TIP3   OH235221   6.788   0.331  14.304 -0.0242  0.2414  0.1332
 4577TIP3    H135222   6.797   0.396  14.374  1.9457 -0.7549  0.8620
 4577TIP3    H235223   6.698   0.343  14.272  0.2045  3.1975  0.3265
 4578TIP3   OH235224   1.404   1.350   2.067 -0.2777  0.2286 -0.3099
 4578TIP3    H135225   1.482   1.399   2.093  1.5012 -2.0281 -0.9762
 4578TIP3    H235226   1.421   1.324   1.976 -1.1508 -1.4600 -0.0384
 4579TIP3   OH235227   6.234   5.000   1.314 -0.0175 -0.0874 -0.8082
 4579TIP3    H135228   6.226   5.007   1.219  1.0519  1.8906 -0.7988
 4579TIP3    H235229   6.162   5.052   1.349  0.4890  0.4760 -0.5748
 4580TIP3   OH235230   3.136   1.195   0.874 -0.1889  0.4197  0.0843
 4580TIP3    H135231   3.104   1.278   0.837  0.2119  0.6968  0.3504
 4580TIP3    H235232   3.208   1.221   0.931  2.1698 -0.3748 -2.3318
 4581TIP3   OH235233   5.240   5.696  16.782  0.2427  0.1573  0.0520
 4581TIP3    H135234   5.217   5.613  16.741  0.0994  0.9421 -1.5377
 4581TIP3    H235235   5.331   5.685  16.809  1.4836  0.5903 -3.4095
 4582TIP3   OH235236   5.089   4.532  16.921  0.1845 -0.0360  0.2620
 4582TIP3    H135237   5.048   4.606  16.876 -0.5012 -0.3719  0.3148
 4582TIP3    H235238   5.157   4.571  16.975 -0.4416  0.6091  0.6054
 4583TIP3   OH235239   2.686   5.271   1.002 -0.2317 -0.5010 -0.3022
 4583TIP3    H135240   2.659   5.307   1.087 -1.0026 -0.9156 -0.3612
 4583TIP3    H235241   2.605   5.264   0.953 -0.0900 -2.1387 -0.3617
 4584TIP3   OH235242   3.912   1.506   5.630 -0.0000  0.1276 -0.5775
 4584TIP3    H135243   3.883   1.594   5.655 -1.7152 -0.2500 -1.1185
 4584TIP3    H235244   3.973   1.521   5.558  0.0293  0.8893 -0.4051
 4585TIP3   OH235245   6.670   3.626  13.573  0.1516 -0.0725  0.3697
 4585TIP3    H135246   6.593   3.581  13.539 -0.7558  0.4809  1.6182
 4585TIP3    H235247   6.686   3.585  13.659  1.1555 -0.0655  0.2032
 4586TIP3   OH235248   1.297   0.417  12.968 -0.0566  0.4351  0.0788
 4586TIP3    H135249   1.322   0.351  12.904  0.1015 -1.2594  1.8032
 4586TIP3    H235250   1.380   0.446  13.007  0.0077  2.7189 -1.5873
 4587TIP3   OH235251   5.722   3.495  10.712 -0.1426 -0.4549 -0.2739
 4587TIP3    H135252   5.737   3.408  10.747  0.0363 -1.1045 -1.8672
 4587TIP3    H235253   5.656   3.534  10.770 -1.0084 -2.0445 -0.1434
 4588TIP3   OH235254   1.297   0.139   2.580 -0.9540  0.6583 -0.3227
 4588TIP3    H135255   1.249   0.091   2.512 -0.5997  1.2885 -1.0245
 4588TIP3    H235256   1.303   0.228   2.547  1.0336  0.5182 -0.4210
 4589TIP3   OH235257   5.082   5.619  17.022 -0.0430  0.2981 -0.0488
 4589TIP3    H135258   5.142   5.579  17.085 -3.0235 -0.7977  2.3619
 4589TIP3    H235259   5.136   5.637  16.945  2.9048 -2.3585  1.1739
 4590TIP3   OH235260   3.964   4.579   2.580  0.1063  0.0699  0.2556
 4590TIP3    H135261   3.901   4.531   2.635 -3.0868  0.3491 -2.7636
 4590TIP3    H235262   4.008   4.511   2.529 -0.7719  0.0297 -0.4776
 4591TIP3   OH235263   1.147   5.507   3.757  0.0492 -0.3304 -0.2605
 4591TIP3    H135264   1.181   5.444   3.694  3.0765  0.9304 -0.0920
 4591TIP3    H235265   1.122   5.455   3.832 -1.0763 -1.6150 -1.4789
 4592TIP3   OH235266   0.152   5.599  14.910 -0.0032  0.0817  1.0008
 4592TIP3    H135267   0.061   5.573  14.899 -0.2393  1.3446 -0.2289
 4592TIP3    H235268   0.191   5.528  14.962 -0.4232 -3.1829 -2.6628
 4593TIP3   OH235269   2.962   0.275  12.070  0.0107 -0.1543 -0.4528
 4593TIP3    H135270   2.878   0.254  12.112 -0.6059  1.3673 -0.8396
 4593TIP3    H235271   2.995   0.350  12.121  0.8153 -0.3227 -0.7206
 4594TIP3   OH235272   5.811   1.239  14.670  0.6117 -0.0486  0.0909
 4594TIP3    H135273   5.768   1.247  14.755 -0.4074 -1.9118 -0.1828
 4594TIP3    H235274   5.831   1.328  14.644  0.3978  0.5961  2.0151
 4595TIP3   OH235275   1.342   0.223   0.256  0.7064 -0.2163 -0.6838
 4595TIP3    H135276   1.366   0.304   0.301 -0.0247 -0.3047 -0.1210
 4595TIP3    H235277   1.303   0.252   0.174  0.5182 -0.0009 -0.5188
 4596TIP3   OH235278   5.327   2.431  15.712  0.2850 -0.0568  0.2128
 4596TIP3    H135279   5.299   2.345  15.745  0.2686  0.1053  0.6144
 4596TIP3    H235280   5.386   2.410  15.639  0.7684 -0.4172  0.7014
 4597TIP3   OH235281   6.668   1.085  14.079  0.6174 -0.0951  0.4768
 4597TIP3    H135282   6.665   0.991  14.065  2.7541 -0.1355 -0.0709
 4597TIP3    H235283   6.596   1.120  14.028 -0.5819 -1.4523  1.1771
 4598TIP3   OH235284   5.719   5.331   5.100 -0.2387 -0.0332  0.1714
 4598TIP3    H135285   5.708   5.248   5.053  1.7110 -0.1104 -0.2181
 4598TIP3    H235286   5.678   5.315   5.185  1.3985 -1.9699  0.6832
 4599TIP3   OH235287   5.579   0.718  17.049 -0.8133 -0.5888 -0.6565
 4599TIP3    H135288   5.617   0.657  16.985 -1.9872 -2.7628  0.6160
 4599TIP3    H235289   5.487   0.726  17.022 -1.7768 -2.8948  1.6248
 4600TIP3   OH235290   1.995   1.182  11.427 -0.0450 -0.0804  0.0622
 4600TIP3    H135291   1.920   1.232  11.461 -0.3053 -1.1201  1.1095
 4600TIP3    H235292   1.998   1.204  11.334  0.0253  2.0595  0.5203
 4601TIP3   OH235293   1.844   2.961   5.453 -0.2566 -0.2186  0.0858
 4601TIP3    H135294   1.796   2.945   5.372 -2.8141  2.3323  0.9024
 4601TIP3    H235295   1.869   2.874   5.484 -1.8867 -1.4885 -1.9063
 4602TIP3   OH235296   5.535   0.933   1.116  0.1450 -0.5186  0.3178
 4602TIP3    H135297   5.500   0.853   1.076  0.2131 -0.5793  0.3801
 4602TIP3    H235298   5.609   0.904   1.169 -1.6065 -0.8673  2.7761
 4603TIP3   OH235299   4.927   0.595   4.462  0.5683  0.1105  0.3511
 4603TIP3    H135300   4.937   0.615   4.555 -1.1963 -0.1067  0.6097
 4603TIP3    H235301   4.875   0.667   4.427  1.4703  0.3393 -0.5506
 4604TIP3   OH235302   2.568   6.451   4.277  0.0193  0.6942 -0.5010
 4604TIP3    H135303   2.491   6.494   4.242 -0.6223  0.0354  0.0633
 4604TIP3    H235304   2.562   6.463   4.372  1.2300  1.6402 -0.5145
 4605TIP3   OH235305   0.233   5.112   5.443  0.0030 -0.1404  0.0895
 4605TIP3    H135306   0.258   5.042   5.504  0.3809  0.2990  0.4384
 4605TIP3    H235307   0.306   5.116   5.380  0.3303  0.4326  0.4983
 4606TIP3   OH235308   6.818   3.577  14.204 -0.1265  0.1675  0.3732
 4606TIP3    H135309   6.910   3.554  14.216 -0.3362  0.0691  1.9687
 4606TIP3    H235310   6.771   3.528  14.272 -0.8617  3.4177  2.4422
 4607TIP3   OH235311   1.217   3.550   2.281  0.3471 -0.6841  0.2363
 4607TIP3    H135312   1.310   3.559   2.261  0.3382 -0.7861  0.1471
 4607TIP3    H235313   1.182   3.495   2.211  0.2441 -0.7450  0.3338
 4608TIP3   OH235314   3.812   1.746  10.702  0.2779  0.1537  0.2819
 4608TIP3    H135315   3.885   1.714  10.756  0.2136  0.0595  0.3136
 4608TIP3    H235316   3.762   1.802  10.761  0.8032  0.9166  0.0235
 4609TIP3   OH235317   0.452   1.263   5.046  0.4373 -0.1055  0.2763
 4609TIP3    H135318   0.364   1.228   5.058  0.6177 -0.4608  0.5805
 4609TIP3    H235319   0.446   1.355   5.073 -0.2974  0.4282 -1.5134
 4610TIP3   OH235320   0.113   6.608  16.392  0.1331 -0.3633  0.0866
 4610TIP3    H135321   0.020   6.592  16.375  0.2435 -0.7212 -0.1887
 4610TIP3    H235322   0.143   6.528  16.435  0.4168 -0.4262 -0.2279
 4611TIP3   OH235323   3.538   1.273  15.463 -0.3775 -0.2325 -0.1301
 4611TIP3    H135324   3.489   1.330  15.522 -0.5862 -0.0810 -0.4423
 4611TIP3    H235325   3.612   1.327  15.434  2.5982 -1.7862  3.6821
 4612TIP3   OH235326   5.756   2.515   1.258  0.2310  0.1174 -0.1076
 4612TIP3    H135327   5.850   2.500   1.246  0.3841  0.3798  0.6630
 4612TIP3    H235328   5.739   2.596   1.209  0.5280  0.3796  0.2143
 4613TIP3   OH235329   1.302   1.900  12.590  0.9221 -0.2540  0.0679
 4613TIP3    H135330   1.276   1.901  12.682  0.8369 -0.1155  0.0424
 4613TIP3    H235331   1.249   1.968  12.549  0.5862 -0.6601 -0.1855
 4614TIP3   OH235332   6.448   0.412  11.494 -0.0885 -0.2163 -0.1139
 4614TIP3    H135333   6.487   0.429  11.408  1.1335 -0.0050  0.4694
 4614TIP3    H235334   6.393   0.488  11.511  0.1615  0.0410 -0.4398
 4615TIP3   OH235335   0.744   5.717   2.272  0.3519  0.1669  0.0477
 4615TIP3    H135336   0.791   5.639   2.301 -0.3323 -0.7244 -1.1778
 4615TIP3    H235337   0.699   5.690   2.192  0.8901  2.0983 -0.9669
 4616TIP3   OH235338   5.064   3.566  14.409  0.0130 -0.1854  0.3460
 4616TIP3    H135339   5.074   3.649  14.364  1.2398 -1.1323 -1.2176
 4616TIP3    H235340   5.148   3.551  14.452 -0.2340 -0.5865  0.7034
 4617TIP3   OH235341   2.265   0.943  11.214  0.7245 -0.3521 -0.1706
 4617TIP3    H135342   2.291   0.869  11.158 -0.8526  0.1014 -1.5721
 4617TIP3    H235343   2.337   0.951  11.277  1.0191 -2.9897 -0.0347
 4618TIP3   OH235344   4.469   2.094   3.623  0.1673  0.3112  0.2854
 4618TIP3    H135345   4.515   2.054   3.698  1.4397  1.0953 -0.0359
 4618TIP3    H235346   4.538   2.141   3.576 -1.0319  1.7308 -0.1053
 4619TIP3   OH235347   5.169   5.630   0.575  0.4159  0.4857 -0.2763
 4619TIP3    H135348   5.101   5.565   0.559 -0.3534  1.0038  0.7799
 4619TIP3    H235349   5.141   5.676   0.655  2.2617  0.3482  0.5213
 4620TIP3   OH235350   2.927   0.857  12.746 -0.1692 -0.0846 -0.2863
 4620TIP3    H135351   2.957   0.947  12.760 -1.2290  0.3132 -0.5055
 4620TIP3    H235352   2.925   0.819  12.834  0.6596 -0.0352 -0.2327
 4621TIP3   OH235353   4.974   6.581  13.136 -0.6010  0.3149  0.2194
 4621TIP3    H135354   4.957   6.671  13.108 -0.6987 -0.2317 -1.6005
 4621TIP3    H235355   5.069   6.574  13.135 -0.5737  0.4953  0.7799
 4622TIP3   OH235356   0.075   5.485   3.385  0.0502  0.4392 -0.7757
 4622TIP3    H135357   0.058   5.497   3.292  0.6483  3.1720 -0.6194
 4622TIP3    H235358  -0.010   5.498   3.427 -0.3099 -1.2227 -0.8937
 4623TIP3   OH235359   5.348   3.327   0.666 -0.1513  0.2274 -0.1835
 4623TIP3    H135360   5.305   3.409   0.642  3.4817  1.8798 -1.7953
 4623TIP3    H235361   5.315   3.263   0.602 -3.5034  0.0666  1.4703
 4624TIP3   OH235362   3.365   1.381  16.332 -0.7787 -0.0555  0.0656
 4624TIP3    H135363   3.365   1.412  16.422 -0.2243 -0.5132  0.2360
 4624TIP3    H235364   3.425   1.439  16.286 -1.1669  0.2615 -0.0364
 4625TIP3   OH235365   0.051   5.807   6.645 -0.3021 -0.6145  0.0652
 4625TIP3    H135366   0.108   5.734   6.622  0.1261  0.5434 -3.0561
 4625TIP3    H235367  -0.034   5.785   6.606  0.3715  1.3220 -2.7802
 4626TIP3   OH235368   0.350   5.842   4.262  0.4549 -0.1799  0.3771
 4626TIP3    H135369   0.439   5.851   4.295 -0.1935 -2.5511  3.2334
 4626TIP3    H235370   0.296   5.889   4.325 -0.3831  1.3671 -1.4067
 4627TIP3   OH235371   2.882   0.301   0.080  0.0149 -0.2022 -0.2176
 4627TIP3    H135372   2.798   0.328   0.045  0.3055 -0.4038 -1.0961
 4627TIP3    H235373   2.863   0.221   0.129 -0.1430 -0.9103 -1.3906
 4628TIP3   OH235374   5.271   5.931   1.268 -0.2403  0.2504  0.2990
 4628TIP3    H135375   5.228   5.991   1.329 -1.3817 -0.5605  0.3296
 4628TIP3    H235376   5.278   5.848   1.316 -1.4129 -0.4878 -0.7061
 4629TIP3   OH235377   5.513   3.210   4.014 -0.3754 -0.3391 -0.4002
 4629TIP3    H135378   5.440   3.154   3.987 -1.6238  1.2261 -0.4225
 4629TIP3    H235379   5.576   3.204   3.942 -0.3634 -1.8449 -0.2977
 4630TIP3   OH235380   0.201   6.347  13.369  0.1815  0.1678 -0.5955
 4630TIP3    H135381   0.133   6.292  13.406  0.3814 -0.5120 -1.2227
 4630TIP3    H235382   0.154   6.421  13.331 -0.3717 -1.0782 -2.4343
 4631TIP3   OH235383   6.124   5.746  14.012 -0.0120  0.2867 -0.2791
 4631TIP3    H135384   6.065   5.680  13.976 -0.1301 -0.4222  1.1656
 4631TIP3    H235385   6.185   5.697  14.067 -0.7252  1.4275  1.6424
 4632TIP3   OH235386   1.484   4.953   5.358 -0.2496  0.1351 -0.0970
 4632TIP3    H135387   1.412   4.918   5.305  0.3084 -0.2126 -0.6420
 4632TIP3    H235388   1.555   4.889   5.346  0.3191  0.7437  0.0135
 4633TIP3   OH235389   4.266   4.465  13.294  0.5819  0.3812 -0.2158
 4633TIP3    H135390   4.294   4.556  13.288  1.7877 -0.0109 -0.8756
 4633TIP3    H235391   4.329   4.424  13.354  0.4879 -0.1619 -0.4761
 4634TIP3   OH235392   6.798   3.248  17.150 -0.3073 -0.5622 -0.2799
 4634TIP3    H135393   6.882   3.262  17.106 -0.6726  0.5515 -0.6361
 4634TIP3    H235394   6.796   3.153  17.166  0.0539 -0.9489 -2.2243
 4635TIP3   OH235395   4.377   6.170   5.945  0.0561  0.5309  0.7006
 4635TIP3    H135396   4.307   6.142   5.886 -0.1736  1.1246  0.6858
 4635TIP3    H235397   4.456   6.131   5.909  0.0072  1.3361 -0.3210
 4636TIP3   OH235398   1.423   6.090   0.413 -0.1326  0.0584 -0.1853
 4636TIP3    H135399   1.386   6.096   0.501 -1.6534 -0.6391 -0.7402
 4636TIP3    H235400   1.428   6.181   0.383 -2.1071  0.1688 -0.3336
 4637TIP3   OH235401   4.129   6.131   5.463  0.0099  0.0701 -0.2179
 4637TIP3    H135402   4.115   6.218   5.426 -0.2072  0.5200  0.8947
 4637TIP3    H235403   4.116   6.071   5.389 -0.9524  0.9022 -0.7398
 4638TIP3   OH235404   6.076   5.942   3.916 -0.0789 -0.2264  0.3929
 4638TIP3    H135405   6.089   5.980   4.003 -0.4437 -0.7884  0.7025
 4638TIP3    H235406   6.090   6.014   3.855  0.2032  0.1655  0.9206
 4639TIP3   OH235407   6.469   0.436  12.282  0.0315 -0.3414 -0.1301
 4639TIP3    H135408   6.550   0.438  12.230  1.3620  0.6798  1.8631
 4639TIP3    H235409   6.406   0.483  12.228  1.0270 -0.3092 -1.3294
 4640TIP3   OH235410   1.274   0.821   5.453 -0.3920  0.1505 -0.3773
 4640TIP3    H135411   1.271   0.915   5.436 -0.0542  0.2550  0.1391
 4640TIP3    H235412   1.358   0.793   5.418 -0.0628  0.2171  0.3537
 4641TIP3   OH235413   1.868   0.976  12.376  0.4172 -0.3874 -0.9207
 4641TIP3    H135414   1.888   0.888  12.406 -0.3266  0.1245  1.2933
 4641TIP3    H235415   1.865   0.969  12.280  1.5358 -2.4719 -0.8587
 4642TIP3   OH235416   4.412   3.427   2.786 -0.5541 -0.3727 -0.0167
 4642TIP3    H135417   4.331   3.441   2.736 -1.7459  0.7499  2.0836
 4642TIP3    H235418   4.449   3.514   2.797  1.3166 -0.9272 -1.4261
 4643TIP3   OH235419   1.306   1.975  13.946  0.0171 -0.0885  0.5463
 4643TIP3    H135420   1.244   1.927  13.891 -0.2888  1.2431 -0.3198
 4643TIP3    H235421   1.262   1.984  14.030 -1.1400  1.0823 -0.1389
 4644TIP3   OH235422   0.744   2.378  14.466 -0.1606 -0.7013  0.3466
 4644TIP3    H135423   0.760   2.471  14.477  0.2878 -0.3896 -2.3006
 4644TIP3    H235424   0.670   2.360  14.524  0.4683  1.0078  1.7806
 4645TIP3   OH235425   0.921   5.698   5.329  0.2703 -0.4806 -0.0704
 4645TIP3    H135426   0.967   5.616   5.312 -0.7651 -0.5425 -3.4164
 4645TIP3    H235427   0.830   5.671   5.342 -0.0509  0.0813 -1.0612
 4646TIP3   OH235428   2.304   4.028  16.178 -0.4415  0.3089  0.3584
 4646TIP3    H135429   2.291   3.955  16.238  0.3573  0.6654  0.9850
 4646TIP3    H235430   2.299   4.106  16.233  2.2733  0.5678  0.3712
 4647TIP3   OH235431   5.085   4.218   0.898 -0.1270 -0.0960 -0.2589
 4647TIP3    H135432   5.001   4.263   0.906  0.5440  1.7525 -2.4424
 4647TIP3    H235433   5.070   4.151   0.831  0.5344  1.5106 -2.0963
 4648TIP3   OH235434   3.437   3.497  15.136  0.4153 -0.2094 -0.1395
 4648TIP3    H135435   3.425   3.414  15.182  0.8841 -0.6835 -0.8526
 4648TIP3    H235436   3.403   3.482  15.049 -0.1377  0.5762 -0.0670
 4649TIP3   OH235437   4.058   5.485  13.880  0.1763 -0.0129 -0.3968
 4649TIP3    H135438   4.007   5.531  13.946 -1.4196 -0.5653 -1.1979
 4649TIP3    H235439   3.995   5.463  13.811  1.3149 -1.4342 -1.0535
 4650TIP3   OH235440   3.406   4.442   4.931 -0.4496 -0.1690 -0.1310
 4650TIP3    H135441   3.394   4.494   4.852 -1.6360  1.4673  1.0464
 4650TIP3    H235442   3.457   4.498   4.989  1.6573 -1.9023 -0.1898
 4651TIP3   OH235443   1.371   0.605  10.863 -0.3990  0.0372 -0.2417
 4651TIP3    H135444   1.279   0.597  10.839 -0.1465 -1.1289 -0.9010
 4651TIP3    H235445   1.417   0.551  10.800  0.7029  0.2123  0.3816
 4652TIP3   OH235446   1.929   4.209  12.336  0.1205  0.3089  0.3198
 4652TIP3    H135447   1.984   4.131  12.329 -1.8885 -1.1519  0.1209
 4652TIP3    H235448   1.951   4.261  12.259  1.0046 -0.3571  0.0994
 4653TIP3   OH235449   2.464   4.998  12.718 -0.0853 -0.0754 -0.5581
 4653TIP3    H135450   2.538   5.053  12.741 -0.0842  0.6544 -2.1629
 4653TIP3    H235451   2.501   4.911  12.705 -0.1375 -0.6153  2.3122
 4654TIP3   OH235452   3.285   6.452   0.076 -0.1281 -0.3940  0.4936
 4654TIP3    H135453   3.202   6.498   0.068 -0.4680 -0.7963  1.5932
 4654TIP3    H235454   3.350   6.514   0.040 -0.7659  0.3263  0.5569
 4655TIP3   OH235455   0.532   3.909  14.141  0.3111  0.0153  0.4889
 4655TIP3    H135456   0.514   3.939  14.052  1.8490  2.3443  0.8527
 4655TIP3    H235457   0.455   3.936  14.192  0.0402 -0.0524  0.1166
 4656TIP3   OH235458   3.638   6.122  14.959  0.1009 -0.0634 -1.0413
 4656TIP3    H135459   3.648   6.081  15.045 -2.8117  1.4555  0.1660
 4656TIP3    H235460   3.699   6.196  14.961 -0.5393  0.4523  0.0745
 4657TIP3   OH235461   5.795   0.721   3.140  0.3864  0.0979  0.1017
 4657TIP3    H135462   5.878   0.684   3.170 -0.3326 -1.0482  0.7810
 4657TIP3    H235463   5.783   0.800   3.193  2.1132  1.6017 -1.6058
 4658TIP3   OH235464   2.375   1.836   4.860 -0.0956  0.4225  0.1128
 4658TIP3    H135465   2.316   1.909   4.879  0.7357  0.3094  4.1553
 4658TIP3    H235466   2.452   1.853   4.914  2.5936 -0.7512 -3.0171
 4659TIP3   OH235467   3.049   1.166  16.751 -0.2640  0.0748  0.5026
 4659TIP3    H135468   3.098   1.109  16.692 -0.6440  2.2019 -2.0565
 4659TIP3    H235469   3.066   1.131  16.838  2.6318 -1.5786 -0.5971
 4660TIP3   OH235470   1.658   3.936  12.505 -0.5326 -0.0108 -0.7587
 4660TIP3    H135471   1.741   3.889  12.503 -0.3967  0.2291 -0.8454
 4660TIP3    H235472   1.675   4.013  12.559 -1.4096 -1.2534  1.4072
 4661TIP3   OH235473   5.434   4.587   1.618  0.1341  0.2625 -0.3487
 4661TIP3    H135474   5.388   4.517   1.571 -0.2737  0.1944  0.1328
 4661TIP3    H235475   5.364   4.644   1.649  0.5219  1.6337 -1.8609
 4662TIP3   OH235476   3.708   0.396   1.872  0.4085  0.2146 -0.4547
 4662TIP3    H135477   3.664   0.354   1.799 -1.6122  0.1863  0.7038
 4662TIP3    H235478   3.761   0.327   1.912 -1.0633 -0.6490  0.0555
 4663TIP3   OH235479   0.749   3.378  14.233 -0.1493  0.3359  0.1406
 4663TIP3    H135480   0.665   3.385  14.188 -1.4255  3.1098  2.5856
 4663TIP3    H235481   0.809   3.429  14.178 -1.0635  1.5902  0.2538
 4664TIP3   OH235482   2.491   6.234  17.147  0.1460 -0.7945  0.2819
 4664TIP3    H135483   2.586   6.231  17.135  0.1400  0.1467 -0.0905
 4664TIP3    H235484   2.457   6.263  17.062 -0.3279  0.5590  0.8965
 4665TIP3   OH235485   3.087   3.144   1.710 -0.4873 -0.2639 -0.2060
 4665TIP3    H135486   3.065   3.112   1.622  0.5828 -0.2179 -0.5045
 4665TIP3    H235487   3.067   3.071   1.768 -3.1845  0.3745 -0.1806
 4666TIP3   OH235488   3.382   4.205   0.257 -0.7886 -0.7408 -0.2809
 4666TIP3    H135489   3.378   4.299   0.276 -0.0582 -0.2560 -2.2991
 4666TIP3    H235490   3.290   4.179   0.247 -0.9222  0.2675 -1.8767
 4667TIP3   OH235491   2.635   3.112   5.678 -0.1065 -1.0087 -0.1271
 4667TIP3    H135492   2.677   3.032   5.646 -1.0840 -0.8255 -1.9982
 4667TIP3    H235493   2.708   3.171   5.697  0.6112 -2.1732  0.9090
 4668TIP3   OH235494   6.379   1.706  11.938 -0.3456  0.0885  0.2043
 4668TIP3    H135495   6.394   1.746  12.023 -0.1316 -0.0054  0.2107
 4668TIP3    H235496   6.368   1.613  11.956 -1.1774  0.1831  0.2258
 4669TIP3   OH235497   5.443   3.119  12.606  0.4924  0.2695  0.4242
 4669TIP3    H135498   5.357   3.121  12.648 -0.1870 -1.8031 -0.7472
 4669TIP3    H235499   5.505   3.127  12.679 -0.6661 -0.9549  1.6114
 4670TIP3   OH235500   6.645   1.435  15.295  0.1223  0.6541 -0.0574
 4670TIP3    H135501   6.681   1.413  15.381 -1.5396  0.0854  0.5325
 4670TIP3    H235502   6.645   1.531  15.293  1.8805  0.6861 -0.2056
 4671TIP3   OH235503   3.048   5.830   2.323 -0.1761 -0.2138  0.3015
 4671TIP3    H135504   3.139   5.834   2.351  0.5458 -0.3284 -1.8463
 4671TIP3    H235505   3.008   5.765   2.381  1.8581 -2.3783 -0.5469
 4672TIP3   OH235506   2.804   1.482   3.415  0.4319  0.1402 -0.1040
 4672TIP3    H135507   2.803   1.420   3.342 -2.1165 -2.6349  1.9842
 4672TIP3    H235508   2.712   1.492   3.439  0.6752  4.9744 -0.2763
 4673TIP3   OH235509   4.759   3.006   2.794 -0.2100 -0.6542 -0.0686
 4673TIP3    H135510   4.713   3.070   2.739 -1.1877 -1.8903 -0.7327
 4673TIP3    H235511   4.702   2.994   2.869 -0.5631 -1.5246 -0.4626
 4674TIP3   OH235512   3.066   1.473  16.935 -0.1286 -0.6533 -0.4035
 4674TIP3    H135513   2.986   1.443  16.893 -1.6085  1.3362  0.7837
 4674TIP3    H235514   3.074   1.565  16.908 -1.3653  0.8680  3.6123
 4675TIP3   OH235515   1.514   6.070  15.269 -0.0542  0.2262 -0.1314
 4675TIP3    H135516   1.457   5.996  15.246  1.5478 -1.4320  0.9603
 4675TIP3    H235517   1.535   6.111  15.185  0.0306 -1.3763 -0.9336
 4676TIP3   OH235518   1.445   1.423  17.065  0.3750 -0.4067  0.1832
 4676TIP3    H135519   1.389   1.359  17.111 -1.7315  0.3312 -1.2062
 4676TIP3    H235520   1.490   1.470  17.135  1.5408 -2.9547  1.2712
 4677TIP3   OH235521   6.788   3.106   2.741 -0.4737 -0.1145  0.2363
 4677TIP3    H135522   6.710   3.099   2.687  0.1308  0.0216 -0.6774
 4677TIP3    H235523   6.823   3.193   2.720  1.6218 -1.3520 -1.7437
 4678TIP3   OH235524   2.649   6.811   5.411 -0.8595  0.3011  0.2102
 4678TIP3    H135525   2.565   6.781   5.376 -1.0081 -0.2396  0.9967
 4678TIP3    H235526   2.634   6.817   5.506 -0.1396  0.6190  0.3055
 4679TIP3   OH235527   6.049   0.255   3.360 -0.6055  0.0405  0.0794
 4679TIP3    H135528   6.143   0.246   3.367 -0.3770  1.7343 -0.2123
 4679TIP3    H235529   6.017   0.168   3.338  0.7638 -0.7799  1.2515
 4680TIP3   OH235530   4.561   5.007  15.259  0.3883  0.5267  0.1458
 4680TIP3    H135531   4.534   4.927  15.303 -0.6471  0.1889 -1.0377
 4680TIP3    H235532   4.598   4.978  15.176  0.9970  1.2207  0.1598
 4681TIP3   OH235533   3.820   1.273  15.554  0.0731 -0.1721 -0.3185
 4681TIP3    H135534   3.795   1.360  15.522  2.6593  0.8855  0.3291
 4681TIP3    H235535   3.815   1.280  15.650 -3.7007 -2.1001 -0.1731
 4682TIP3   OH235536   2.439   0.998   1.163 -0.3764 -0.0361 -0.1575
 4682TIP3    H135537   2.432   0.952   1.079 -2.0231  0.5221 -0.3573
 4682TIP3    H235538   2.376   1.070   1.157 -1.0235 -0.3725  1.8049
 4683TIP3   OH235539   0.245   0.275   3.083  0.5896  0.4102  0.4258
 4683TIP3    H135540   0.262   0.305   3.172 -0.1052  0.4223  0.5634
 4683TIP3    H235541   0.263   0.352   3.028 -0.8543  1.0112  0.7463
 4684TIP3   OH235542   3.292   3.897   2.846  0.0827 -0.4456  0.3888
 4684TIP3    H135543   3.296   3.923   2.937 -1.0046  1.0473  0.0393
 4684TIP3    H235544   3.324   3.973   2.797  0.1088 -1.0102 -0.5034
 4685TIP3   OH235545   1.082   4.516  16.091 -0.2885  0.3045 -0.5456
 4685TIP3    H135546   1.011   4.453  16.106  0.9344 -1.1774 -0.7521
 4685TIP3    H235547   1.075   4.538  15.998  0.1469 -0.6518 -0.8149
 4686TIP3   OH235548   0.337   5.222   4.468 -0.0568 -0.0840  0.2616
 4686TIP3    H135549   0.328   5.170   4.388 -2.1105 -0.7828  0.8690
 4686TIP3    H235550   0.405   5.178   4.519  0.7262 -0.0766 -0.7570
 4687TIP3   OH235551   0.477   5.644   0.027 -0.3964 -0.3721 -0.7948
 4687TIP3    H135552   0.456   5.662   0.119  1.1773  0.8047 -0.6351
 4687TIP3    H235553   0.452   5.724  -0.019 -1.2825 -0.9948 -1.4529
 4688TIP3   OH235554   4.181   3.401   0.258 -0.9113 -0.6489  0.4038
 4688TIP3    H135555   4.272   3.386   0.285 -1.0653 -1.8087  0.3473
 4688TIP3    H235556   4.187   3.416   0.164 -0.8690 -1.9972  0.1628
 4689TIP3   OH235557   0.381   1.335  11.646 -0.0487 -0.8888 -0.1431
 4689TIP3    H135558   0.449   1.402  11.648  0.9645 -1.8895  1.4508
 4689TIP3    H235559   0.299   1.383  11.658  0.5833  0.1280  0.2029
 4690TIP3   OH235560   6.403   6.577   3.841  0.5773  0.2139 -0.7952
 4690TIP3    H135561   6.445   6.525   3.909 -0.9209 -0.0644 -0.0595
 4690TIP3    H235562   6.361   6.649   3.887  0.9837  1.0001 -1.6152
 4691TIP3   OH235563   1.490   5.394  13.315 -0.3179  0.4164 -0.0994
 4691TIP3    H135564   1.400   5.363  13.305  0.5494 -1.8717 -1.8013
 4691TIP3    H235565   1.515   5.425  13.228  1.2537 -1.3301 -0.3523
 4692TIP3   OH235566   6.239   3.416  14.061 -0.4541  0.2409  0.2172
 4692TIP3    H135567   6.306   3.419  13.993  0.2173 -1.2276  0.7646
 4692TIP3    H235568   6.157   3.433  14.016 -0.1390 -1.6194 -1.1374
 4693TIP3   OH235569   3.353   1.124  15.088 -0.9040  0.1227  0.1908
 4693TIP3    H135570   3.389   1.119  15.000 -0.2945 -0.6186  0.4688
 4693TIP3    H235571   3.355   1.033  15.120  0.8768  0.6378  1.7368
 4694TIP3   OH235572   4.161   1.308  10.761 -0.5568  0.2140 -0.0852
 4694TIP3    H135573   4.187   1.398  10.781  0.8284 -0.1213 -0.2961
 4694TIP3    H235574   4.089   1.317  10.699 -0.6526  1.1793  0.1543
 4695TIP3   OH235575   2.056   4.905  16.628  0.3470 -0.0295  0.0401
 4695TIP3    H135576   2.142   4.944  16.642 -0.5371  1.6013  1.3301
 4695TIP3    H235577   2.009   4.970  16.575 -0.8688  0.3288  1.4780
 4696TIP3   OH235578   4.677   1.269  16.405  0.0611  0.5806  0.7136
 4696TIP3    H135579   4.717   1.341  16.358  0.0198  0.6463  0.7795
 4696TIP3    H235580   4.728   1.260  16.485  0.2410  0.3537  0.5759
 4697TIP3   OH235581   6.080   5.968  12.209 -0.4752  0.0624  0.2113
 4697TIP3    H135582   6.078   5.907  12.283 -2.9781  1.4888  1.4417
 4697TIP3    H235583   6.147   5.932  12.151  1.8259 -1.0006  3.2416
 4698TIP3   OH235584   1.972   4.923  10.998 -0.3611  0.3355 -0.3056
 4698TIP3    H135585   1.942   4.924  11.089  1.6895 -2.7051  0.5362
 4698TIP3    H235586   1.969   5.015  10.971 -2.2356  1.1820  2.3700
 4699TIP3   OH235587   3.549   0.361   2.109 -0.1027 -0.0313  1.0526
 4699TIP3    H135588   3.594   0.407   2.038  1.0897 -0.4754  1.5009
 4699TIP3    H235589   3.619   0.319   2.159 -1.1142 -2.0260  0.8915
 4700TIP3   OH235590   0.229   0.273  16.927  0.6264 -1.0437  0.4766
 4700TIP3    H135591   0.208   0.357  16.967 -0.2433 -1.6290  1.2875
 4700TIP3    H235592   0.228   0.211  17.000  0.4442 -1.8976 -0.2345
 4701TIP3   OH235593   4.214   3.650  14.591  0.1809 -0.0948  0.5023
 4701TIP3    H135594   4.239   3.631  14.500  2.4104 -1.1488  1.2450
 4701TIP3    H235595   4.138   3.594  14.607 -0.0789 -0.0883 -0.6485
 4702TIP3   OH235596   0.269   1.827  13.353  0.5594  0.0489  0.9087
 4702TIP3    H135597   0.278   1.919  13.378  0.1192  0.1789  0.6211
 4702TIP3    H235598   0.188   1.799  13.395  1.8714 -0.8968  2.9406
 4703TIP3   OH235599   4.932   1.589   4.175 -0.3795 -0.0309 -0.4537
 4703TIP3    H135600   4.886   1.532   4.113 -0.7795  1.0770 -1.2089
 4703TIP3    H235601   4.909   1.554   4.261 -2.0574  0.0561 -0.8381
 4704TIP3   OH235602   4.411   1.991   5.663  0.0601 -0.1467  0.0898
 4704TIP3    H135603   4.325   1.957   5.687  0.2937 -0.9095 -0.1193
 4704TIP3    H235604   4.418   2.075   5.708 -1.0457  0.2189 -0.3808
 4705TIP3   OH235605   2.157   0.869  13.923  0.3359  0.5744  0.6949
 4705TIP3    H135606   2.073   0.900  13.889  1.6855  1.7012 -1.9190
 4705TIP3    H235607   2.158   0.775  13.901  0.2659  0.8364 -0.5124
 4706TIP3   OH235608   0.854   5.789  11.886  0.7398 -0.6680 -0.6816
 4706TIP3    H135609   0.910   5.845  11.833  0.5617 -0.9808 -1.2036
 4706TIP3    H235610   0.806   5.735  11.823 -1.3960  0.7200 -0.3420
 4707TIP3   OH235611   3.789   3.742   5.659  0.0182  0.0084 -0.6330
 4707TIP3    H135612   3.771   3.656   5.697 -1.3085 -0.2296 -1.7354
 4707TIP3    H235613   3.883   3.755   5.674  0.2262 -1.5766 -0.3427
 4708TIP3   OH235614   2.317   5.163  15.008 -0.9662  0.7358 -0.3537
 4708TIP3    H135615   2.347   5.072  15.018  0.6183  1.2483 -0.2686
 4708TIP3    H235616   2.274   5.182  15.092  0.9971  0.8734  0.6778
 4709TIP3   OH235617   4.794   4.983   2.387 -0.7318 -0.1356 -0.1765
 4709TIP3    H135618   4.733   4.938   2.329 -0.3995 -0.2298 -0.4586
 4709TIP3    H235619   4.792   5.074   2.358  0.7112 -0.4847 -1.4789
 4710TIP3   OH235620   0.662   0.089   3.636  0.1792 -0.1241  0.2152
 4710TIP3    H135621   0.694   0.173   3.603 -0.9496  0.2035 -0.0805
 4710TIP3    H235622   0.659   0.033   3.559 -0.7467  0.0993  0.0847
 4711TIP3   OH235623   3.838   2.860   0.544  0.3410  0.0967 -0.8585
 4711TIP3    H135624   3.835   2.910   0.463 -1.5411 -0.9397 -1.4703
 4711TIP3    H235625   3.826   2.769   0.517 -0.4508 -0.2565  0.5741
 4712TIP3   OH235626   2.117   5.923   1.473 -0.3609  0.3626 -0.4930
 4712TIP3    H135627   2.175   5.848   1.490  0.0167  0.8454  0.4035
 4712TIP3    H235628   2.116   5.932   1.378 -0.9359 -1.1885 -0.6649
 4713TIP3   OH235629   1.226   1.032  11.705  0.9021  0.7111 -0.1933
 4713TIP3    H135630   1.231   0.941  11.734 -1.3807  0.4379 -0.4272
 4713TIP3    H235631   1.178   1.027  11.622  1.5044  2.0753 -0.6455
 4714TIP3   OH235632   1.069   1.765  16.566 -0.1549 -0.5943  0.1984
 4714TIP3    H135633   1.153   1.752  16.609 -1.1916 -0.5243  2.3592
 4714TIP3    H235634   1.072   1.708  16.489  1.2654 -1.7850  1.0965
 4715TIP3   OH235635   1.122   3.722  14.756 -0.3647 -0.3820  0.3767
 4715TIP3    H135636   1.072   3.649  14.793 -1.6224 -0.5077 -1.4217
 4715TIP3    H235637   1.115   3.710  14.661  0.2361  1.5312  0.0431
 4716TIP3   OH235638   5.106   3.849   1.415  0.1962  0.0388 -0.6375
 4716TIP3    H135639   5.197   3.822   1.420  0.5236  1.1255 -0.6301
 4716TIP3    H235640   5.088   3.853   1.321  0.5698  1.1531 -0.6723
 4717TIP3   OH235641   1.882   1.429  13.707 -0.5016 -0.2470  0.0539
 4717TIP3    H135642   1.959   1.375  13.729 -0.3299  0.4881  1.3454
 4717TIP3    H235643   1.881   1.431  13.612  0.9722 -0.4470  0.0078
 4718TIP3   OH235644   1.912   6.195   1.010  0.5167  0.5535 -0.3113
 4718TIP3    H135645   1.898   6.140   0.933 -0.7299 -0.1601  0.4025
 4718TIP3    H235646   1.828   6.239   1.025 -0.1299 -1.3209  2.1595
 4719TIP3   OH235647   4.325   3.334  14.655  0.1730 -0.1309 -0.3270
 4719TIP3    H135648   4.329   3.239  14.653  0.8625 -0.1144 -0.0453
 4719TIP3    H235649   4.232   3.355  14.645  0.0320 -0.8260 -0.4974
 4720TIP3   OH235650   0.572   3.244   0.282 -0.2757  0.1553  0.1156
 4720TIP3    H135651   0.513   3.302   0.331  0.0176  0.1688  0.4609
 4720TIP3    H235652   0.589   3.172   0.342  0.8821  0.6618  0.4308
 4721TIP3   OH235653   4.036   5.348  15.587 -0.3900 -0.3487  0.6246
 4721TIP3    H135654   4.097   5.314  15.522 -0.7012  2.3894 -1.2650
 4721TIP3    H235655   4.056   5.442  15.592 -2.5208  0.1048  2.1103
 4722TIP3   OH235656   3.952   2.846  13.482 -0.3554 -0.1505 -0.0993
 4722TIP3    H135657   3.906   2.827  13.401 -0.0945 -0.9340 -0.0707
 4722TIP3    H235658   3.998   2.928  13.465 -1.6547  0.5857 -0.1630
 4723TIP3   OH235659   0.144   2.046  16.314  0.3081 -0.3731 -0.1267
 4723TIP3    H135660   0.076   2.031  16.249  0.0316  0.4162 -0.0330
 4723TIP3    H235661   0.219   2.078  16.263 -0.3776  1.6444  0.0688
 4724TIP3   OH235662   2.233   5.607   3.523  0.1651  0.3355  0.7126
 4724TIP3    H135663   2.269   5.656   3.596 -0.1102 -0.8339  1.6650
 4724TIP3    H235664   2.302   5.607   3.457  1.2178 -0.2896  1.7736
 4725TIP3   OH235665   1.310   6.266  15.508  0.4830 -0.0254  0.3789
 4725TIP3    H135666   1.321   6.334  15.575  0.8067 -1.0121  1.3489
 4725TIP3    H235667   1.352   6.189  15.545 -0.9859 -1.1237 -0.1719
 4726TIP3   OH235668   6.046   2.296   4.692 -0.0869 -0.4993 -0.1596
 4726TIP3    H135669   5.981   2.225   4.685 -1.7264  1.0415 -1.6917
 4726TIP3    H235670   6.051   2.332   4.603 -0.0449  1.9128  0.7584
 4727TIP3   OH235671   5.754   1.989   5.621  0.4800 -0.0800 -0.3901
 4727TIP3    H135672   5.751   1.970   5.715  1.6306 -1.2768 -0.5572
 4727TIP3    H235673   5.843   1.963   5.595  1.8433  4.4134 -0.9698
 4728TIP3   OH235674   1.171   6.293   5.546 -0.4677 -0.4652  0.1154
 4728TIP3    H135675   1.221   6.307   5.626 -0.3785  1.5879 -0.2404
 4728TIP3    H235676   1.084   6.267   5.576 -0.4705  0.4004  0.9023
 4729TIP3   OH235677   4.918   2.906  16.284  0.6057 -1.2396  0.3542
 4729TIP3    H135678   4.944   2.860  16.205 -0.2597 -1.3372  0.1096
 4729TIP3    H235679   4.975   2.871  16.353  0.3701 -2.2486  0.0583
 4730TIP3   OH235680   5.020   1.149  14.422  0.1213  0.9895  0.0886
 4730TIP3    H135681   5.043   1.225  14.475  0.0003  2.1677 -1.4706
 4730TIP3    H235682   5.084   1.149  14.351 -0.0594 -0.2153 -0.0992
 4731TIP3   OH235683   5.658   4.579  12.915 -0.5278  0.9473  0.6214
 4731TIP3    H135684   5.617   4.617  12.837  0.9359  1.1759 -0.0709
 4731TIP3    H235685   5.730   4.526  12.881  1.9027  3.2119  1.8797
 4732TIP3   OH235686   4.421   6.315   2.133  0.0851 -0.4244  0.0012
 4732TIP3    H135687   4.467   6.322   2.049 -1.0526 -0.4548 -0.6493
 4732TIP3    H235688   4.438   6.225   2.162 -2.3708 -1.6475 -1.9788
 4733TIP3   OH235689   2.575   6.219   3.735  0.2195 -0.1104  0.1475
 4733TIP3    H135690   2.539   6.303   3.708 -0.8586 -0.5174  0.2634
 4733TIP3    H235691   2.647   6.241   3.793  0.5017  0.7388 -0.5049
 4734TIP3   OH235692   6.223   1.733   6.110 -0.3518 -0.0517 -0.3330
 4734TIP3    H135693   6.294   1.730   6.174 -1.3633  1.6657  0.9475
 4734TIP3    H235694   6.153   1.681   6.148 -0.8393  0.7015 -0.1830
 4735TIP3   OH235695   1.934   4.628  15.129  0.5465 -0.2142  0.3875
 4735TIP3    H135696   1.861   4.581  15.090  0.1765  0.0845  0.7049
 4735TIP3    H235697   1.895   4.673  15.204  1.6091 -2.3366  2.3235
 4736TIP3   OH235698   0.721   3.809  10.667 -0.0915 -0.2030  0.1803
 4736TIP3    H135699   0.653   3.874  10.685 -0.0905  0.0150 -0.6123
 4736TIP3    H235700   0.763   3.839  10.587  0.3305 -0.8410  0.1583
 4737TIP3   OH235701   0.079   4.601  11.695  0.3591 -0.3705  0.1529
 4737TIP3    H135702   0.048   4.573  11.609  0.3595  1.0105 -0.3133
 4737TIP3    H235703   0.062   4.526  11.752 -0.2885 -1.0448 -0.8986
 4738TIP3   OH235704   1.283   3.970   0.275  0.1827 -0.3415 -0.2360
 4738TIP3    H135705   1.323   4.054   0.296  1.5846 -0.9182 -0.5062
 4738TIP3    H235706   1.243   3.983   0.189 -0.6814  0.3900  0.2631
 4739TIP3   OH235707   0.985   0.258  13.223 -0.1648 -0.9367 -0.6377
 4739TIP3    H135708   0.943   0.330  13.177  0.9733 -0.0610 -0.3779
 4739TIP3    H235709   1.035   0.212  13.156 -1.8179 -2.2314 -1.0255
 4740TIP3   OH235710   0.297   2.487   0.914 -0.3792  0.0498  0.9280
 4740TIP3    H135711   0.314   2.436   0.834  0.9635  3.8807 -1.5163
 4740TIP3    H235712   0.215   2.532   0.896 -0.0283  1.0031  1.6551
 4741TIP3   OH235713   2.745   3.915  14.202  0.1782 -0.7547  0.6397
 4741TIP3    H135714   2.745   4.010  14.211 -2.3261 -0.6999  0.7457
 4741TIP3    H235715   2.790   3.899  14.119 -0.6623  0.6541 -0.1286
 4742TIP3   OH235716   1.339   6.533   4.902 -0.2237  0.5691 -0.1965
 4742TIP3    H135717   1.381   6.447   4.904 -0.6857  0.3628  1.1242
 4742TIP3    H235718   1.259   6.522   4.953 -0.3216  1.7778 -0.0640
 4743TIP3   OH235719   3.871   4.930  13.585 -0.4030  0.9543  0.4362
 4743TIP3    H135720   3.818   4.852  13.569  0.3513  0.7427 -1.2627
 4743TIP3    H235721   3.851   4.989  13.513  0.0203  1.7845  0.9798
 4744TIP3   OH235722   1.354   4.801  16.501  0.1624  0.0542  0.2450
 4744TIP3    H135723   1.329   4.881  16.455  1.5883  3.0033  4.0578
 4744TIP3    H235724   1.276   4.746  16.498 -0.5098  0.9498 -3.5089
 4745TIP3   OH235725   0.736   1.494  14.140  0.1792 -0.1074 -0.2949
 4745TIP3    H135726   0.801   1.552  14.100 -0.2474 -0.2293 -1.1931
 4745TIP3    H235727   0.701   1.545  14.213  1.0989  0.0576  0.0415
 4746TIP3   OH235728   4.956   0.749  13.803 -0.4947  0.1048  0.1725
 4746TIP3    H135729   5.021   0.748  13.873 -0.9414 -1.1863  0.5969
 4746TIP3    H235730   4.942   0.842  13.784 -0.7489  0.5123  2.1611
 4747TIP3   OH235731   3.908   0.283   1.560  0.3579 -0.3054 -0.4829
 4747TIP3    H135732   3.874   0.208   1.512 -1.7098 -0.1416  0.6068
 4747TIP3    H235733   3.837   0.347   1.557  1.3429  0.8643  0.2528
 4748TIP3   OH235734   1.680   3.870   3.367 -0.2095 -0.4168 -0.2665
 4748TIP3    H135735   1.709   3.937   3.428  1.0367  0.2828 -1.5766
 4748TIP3    H235736   1.680   3.913   3.281 -3.0939 -1.0037 -0.6683
 4749TIP3   OH235737   2.835   4.861   2.325  0.1523 -0.1870  0.6104
 4749TIP3    H135738   2.853   4.948   2.290  0.6125  0.1366  1.5978
 4749TIP3    H235739   2.752   4.870   2.372  1.9451  0.7950  3.9629
 4750TIP3   OH235740   0.337   5.346   2.761  0.4580  0.3488  0.1340
 4750TIP3    H135741   0.357   5.287   2.688  0.5015  0.7717 -0.1981
 4750TIP3    H235742   0.360   5.433   2.728 -0.3157  0.6396  0.3603
 4751TIP3   OH235743   0.357   2.634   5.585  0.3265  0.1003 -0.1455
 4751TIP3    H135744   0.340   2.622   5.492 -2.1633  2.0163 -0.0203
 4751TIP3    H235745   0.300   2.571   5.629  3.6271 -2.9960  0.2256
 4752TIP3   OH235746   6.175   3.954   6.177  0.0679  0.4112 -0.0949
 4752TIP3    H135747   6.261   3.969   6.216 -0.2137  0.0229  0.7199
 4752TIP3    H235748   6.193   3.912   6.093  0.6773  0.0890  0.1895
 4753TIP3   OH235749   3.783   4.342  12.283 -0.4189  0.3024  0.4440
 4753TIP3    H135750   3.804   4.338  12.376 -0.3162  1.6729  0.5060
 4753TIP3    H235751   3.863   4.377  12.242 -0.6272  0.1594 -0.0934
 4754TIP3   OH235752   3.975   5.907  14.173 -0.2490 -0.2136  0.2168
 4754TIP3    H135753   3.925   5.827  14.188  1.0387 -1.3307 -1.1672
 4754TIP3    H235754   4.018   5.894  14.089  1.6199  1.0875  0.8918
 4755TIP3   OH235755   1.371   5.642   5.644 -0.2285 -0.4947 -0.9058
 4755TIP3    H135756   1.354   5.649   5.738 -2.3347  1.8928 -1.3314
 4755TIP3    H235757   1.374   5.548   5.626 -1.3603 -1.0154  1.3029
 4756TIP3   OH235758   6.151   4.920   4.193 -0.0649  0.3630 -0.3394
 4756TIP3    H135759   6.148   4.825   4.198 -2.0536  0.1504 -3.0221
 4756TIP3    H235760   6.230   4.939   4.142 -0.8634 -0.0897 -1.8229
 4757TIP3   OH235761   1.726   6.610  11.916  0.3600 -0.1090 -0.6621
 4757TIP3    H135762   1.782   6.619  11.839 -0.3987 -1.7447 -1.4632
 4757TIP3    H235763   1.757   6.529  11.958  0.0860  0.2131  0.1628
 4758TIP3   OH235764   2.560   5.739  13.002 -0.3916 -0.7698  0.8470
 4758TIP3    H135765   2.652   5.735  12.978 -0.1612  0.2348  1.5120
 4758TIP3    H235766   2.514   5.701  12.927  0.4184  0.6273 -0.4035
 4759TIP3   OH235767   6.367   1.956  13.117 -0.4246 -0.6184 -0.0819
 4759TIP3    H135768   6.427   1.886  13.144  0.9049  0.9098  1.1045
 4759TIP3    H235769   6.312   1.971  13.193 -0.1255  0.1885 -0.0135
 4760TIP3   OH235770   6.138   1.094   6.121 -0.2251 -0.1865 -0.4999
 4760TIP3    H135771   6.064   1.154   6.111  2.2830  3.0986 -0.8437
 4760TIP3    H235772   6.119   1.046   6.202 -1.5726  2.3737  0.8137
 4761TIP3   OH235773   1.025   1.287   1.275  0.1827  0.5212  0.0072
 4761TIP3    H135774   1.083   1.221   1.313  0.1981  1.1032  1.0136
 4761TIP3    H235775   1.079   1.365   1.266 -0.2022  0.8065  0.1441
 4762TIP3   OH235776   5.406   0.402  15.545 -0.3209 -0.1857  0.0875
 4762TIP3    H135777   5.463   0.471  15.510 -0.8784 -0.1538 -0.7884
 4762TIP3    H235778   5.324   0.447  15.563 -0.6731 -0.6035 -0.4423
 4763TIP3   OH235779   5.520   6.222   3.189  0.2116  0.1291 -0.0171
 4763TIP3    H135780   5.584   6.270   3.136  0.4306  0.5231  0.5945
 4763TIP3    H235781   5.524   6.263   3.275  0.0845 -0.7113  0.3986
 4764TIP3   OH235782   5.648   3.440  17.188  0.5013  0.4581  0.0005
 4764TIP3    H135783   5.726   3.385  17.184  1.3554  1.5727  0.8930
 4764TIP3    H235784   5.618   3.445  17.098 -0.1888 -2.2389 -0.0248
 4765TIP3   OH235785   6.215   1.825   3.583 -0.4595  0.1658 -0.2355
 4765TIP3    H135786   6.233   1.731   3.593  1.0935  0.4903  0.2604
 4765TIP3    H235787   6.155   1.830   3.509  0.9789 -1.1031 -1.5506
 4766TIP3   OH235788   5.665   5.374  16.410  0.5321  0.3350 -0.8253
 4766TIP3    H135789   5.714   5.444  16.366  0.0028  2.4343  1.6634
 4766TIP3    H235790   5.577   5.410  16.421  0.7214  0.1661  2.1731
 4767TIP3   OH235791   0.476   5.348  13.009 -0.4368  0.2451  0.2207
 4767TIP3    H135792   0.559   5.359  12.962  0.3716 -0.7977  1.3692
 4767TIP3    H235793   0.448   5.259  12.988 -0.3499 -0.0366  1.2435
 4768TIP3   OH235794   2.861   1.364  16.766 -0.4677 -0.0985  0.0777
 4768TIP3    H135795   2.777   1.331  16.798 -0.3093  0.1750  0.7839
 4768TIP3    H235796   2.916   1.287  16.757 -0.9575 -0.3562 -0.9301
 4769TIP3   OH235797   5.239   6.760   1.872 -0.4686  0.7232  0.5269
 4769TIP3    H135798   5.293   6.683   1.850 -0.6024  0.9258 -0.5799
 4769TIP3    H235799   5.166   6.725   1.922  0.1129  0.2988  1.1017
 4770TIP3   OH235800   2.969   4.530  12.085 -0.6197  0.4652  0.1385
 4770TIP3    H135801   2.894   4.553  12.029 -0.1423  0.2987 -0.5738
 4770TIP3    H235802   3.045   4.541  12.029 -0.2670 -1.5812  0.1537
 4771TIP3   OH235803   1.070   6.069   2.104 -0.0330 -0.2903  0.7389
 4771TIP3    H135804   1.014   6.134   2.061  0.2174 -0.8613 -0.4678
 4771TIP3    H235805   1.075   6.099   2.195 -0.0511  1.2871  0.2389
 4772TIP3   OH235806   0.789   0.611   3.356 -0.1478  0.0688  0.4853
 4772TIP3    H135807   0.791   0.700   3.320  0.9214  0.0524  0.4755
 4772TIP3    H235808   0.866   0.568   3.319 -0.3806 -0.7111  0.8775
 4773TIP3   OH235809   0.131   5.646  11.752  0.0404  0.0437  0.4350
 4773TIP3    H135810   0.142   5.673  11.661  0.1769  0.5440  0.5974
 4773TIP3    H235811   0.220   5.627  11.783 -0.1180 -1.4892  0.0654
 4774TIP3   OH235812   3.350   0.351   4.200 -0.0089 -0.1366  0.2123
 4774TIP3    H135813   3.297   0.423   4.164 -1.4449 -0.0703  2.2268
 4774TIP3    H235814   3.285   0.294   4.242  1.3973 -0.8321  1.5175
 4775TIP3   OH235815   1.224   1.154   6.099  0.5997  0.3013  0.1423
 4775TIP3    H135816   1.239   1.060   6.109  0.4890  0.0202 -2.0496
 4775TIP3    H235817   1.129   1.164   6.096  0.6234  0.4288 -0.1666
 4776TIP3   OH235818   1.772   6.659  12.235 -0.1286  0.2023  0.2789
 4776TIP3    H135819   1.756   6.732  12.175 -0.8186  0.8727  1.2527
 4776TIP3    H235820   1.776   6.582  12.178  3.2265  1.2280 -1.1127
 4777TIP3   OH235821   1.459   5.106  10.309 -0.3221  0.3959  0.1428
 4777TIP3    H135822   1.387   5.057  10.349 -2.4651  0.5236 -3.1067
 4777TIP3    H235823   1.500   5.042  10.250  0.6987  0.9606  0.2378
 4778TIP3   OH235824   4.550   5.319  14.122 -0.1086  0.1280 -0.4444
 4778TIP3    H135825   4.536   5.248  14.185  2.8709 -0.8215 -0.6928
 4778TIP3    H235826   4.516   5.285  14.040 -1.7855  0.4147  0.0813
 4779TIP3   OH235827   6.282   5.818  11.361  1.1949 -0.0704  0.3677
 4779TIP3    H135828   6.296   5.835  11.268 -1.0726 -0.7746 -0.1613
 4779TIP3    H235829   6.325   5.735  11.377  0.3528 -0.6881 -0.4480
 4780TIP3   OH235830   2.045   6.323   3.299  0.0512 -0.2507 -0.1191
 4780TIP3    H135831   2.065   6.414   3.322 -2.2213  0.3293 -0.1984
 4780TIP3    H235832   2.117   6.272   3.337  0.0805  1.3379  2.1785
 4781TIP3   OH235833   2.874   3.025   5.084 -0.7950  0.2466 -0.3375
 4781TIP3    H135834   2.863   2.940   5.041 -1.3513  0.6175 -0.9411
 4781TIP3    H235835   2.956   3.016   5.134 -1.6888 -1.2020  0.9786
 4782TIP3   OH235836   4.014   0.968   1.329  0.4281  0.8497  0.0640
 4782TIP3    H135837   3.947   0.973   1.261 -0.2352 -0.2295  0.6243
 4782TIP3    H235838   3.991   1.038   1.391 -0.3533  0.2925  0.4076
 4783TIP3   OH235839   6.036   5.683   3.765 -0.4220  0.6498 -0.2636
 4783TIP3    H135840   6.058   5.774   3.786 -0.5157  0.8215 -0.8839
 4783TIP3    H235841   6.048   5.677   3.671  1.3896 -0.4973 -0.0044
 4784TIP3   OH235842   0.109   6.110  15.857 -1.0920  0.4449 -0.0293
 4784TIP3    H135843   0.064   6.141  15.778 -2.1455 -0.0558  0.3507
 4784TIP3    H235844   0.148   6.189  15.895 -0.3272  0.6437 -1.1934
 4785TIP3   OH235845   4.347   1.332  11.768  0.1482 -0.8472  0.3232
 4785TIP3    H135846   4.304   1.293  11.693  0.5127 -2.1400  0.7664
 4785TIP3    H235847   4.277   1.346  11.832  0.0625 -1.0386  0.2691
 4786TIP3   OH235848   3.007   5.143  15.091 -0.6705  0.3784  0.0704
 4786TIP3    H135849   2.951   5.198  15.146 -0.2049  1.1673 -0.2271
 4786TIP3    H235850   3.087   5.194  15.081  0.2930 -0.9474  0.8780
 4787TIP3   OH235851   3.712   5.776   5.442  0.0941  0.2507 -0.2309
 4787TIP3    H135852   3.639   5.817   5.396  0.9795 -0.2577 -2.1878
 4787TIP3    H235853   3.766   5.849   5.473 -1.1804  0.6267  1.2092
 4788TIP3   OH235854   4.989   6.556  13.713 -0.9353 -0.2652  0.2962
 4788TIP3    H135855   5.067   6.544  13.659 -0.7985 -3.0071  0.9415
 4788TIP3    H235856   5.020   6.545  13.802 -1.8125  0.2634  0.6766
 4789TIP3   OH235857   1.235   0.785  10.584 -0.1502 -0.3893 -0.3050
 4789TIP3    H135858   1.233   0.874  10.548  0.6174 -0.2358 -0.0008
 4789TIP3    H235859   1.309   0.743  10.540 -0.2979 -0.7682 -0.1946
 4790TIP3   OH235860   1.000   4.808  16.969  0.0662 -0.0898 -0.1834
 4790TIP3    H135861   1.048   4.849  16.897 -1.2049  0.8107 -0.5524
 4790TIP3    H235862   0.965   4.881  17.019 -1.1250 -0.7129 -0.0692
 4791TIP3   OH235863   5.142   3.113   5.111  0.0031 -0.1660  0.0743
 4791TIP3    H135864   5.122   3.022   5.090 -0.3503 -0.3038  0.9704
 4791TIP3    H235865   5.237   3.115   5.121  0.0540 -0.3417 -0.3558
 4792TIP3   OH235866   1.468   0.903  13.224  0.6918  0.7119  0.1632
 4792TIP3    H135867   1.525   0.976  13.248  1.1450  1.5557 -3.0092
 4792TIP3    H235868   1.519   0.851  13.163 -1.4602  0.8408 -1.8951
 4793TIP3   OH235869   3.208   4.277   3.524 -0.0597 -0.4242 -0.0849
 4793TIP3    H135870   3.300   4.303   3.534 -0.2995  0.5007 -0.1957
 4793TIP3    H235871   3.161   4.359   3.512 -0.6527 -0.9749 -2.0043
 4794TIP3   OH235872   6.094   6.514   3.829  0.4256  0.0936 -0.2212
 4794TIP3    H135873   6.097   6.453   3.902 -2.2858  1.3040  1.0088
 4794TIP3    H235874   6.148   6.588   3.857 -1.4764  1.0436  1.1332
 4795TIP3   OH235875   5.991   4.722   3.273 -0.5787 -0.0094 -0.0441
 4795TIP3    H135876   6.029   4.636   3.255 -1.1227 -0.2181 -0.2226
 4795TIP3    H235877   5.962   4.716   3.364 -2.8439 -0.8875 -0.7687
 4796TIP3   OH235878   5.711   1.434  14.430  0.2338  0.5204 -0.3491
 4796TIP3    H135879   5.642   1.501  14.431 -1.3394 -1.0370  1.0018
 4796TIP3    H235880   5.783   1.476  14.383 -1.4688  2.3649 -1.5058
 4797TIP3   OH235881   5.751   4.307   3.679  0.4233 -0.1873 -0.8235
 4797TIP3    H135882   5.733   4.368   3.607  0.9077 -0.8360 -1.5036
 4797TIP3    H235883   5.805   4.357   3.739 -1.2102  0.8533 -0.1582
 4798TIP3   OH235884   3.332   4.990   3.347 -0.0241  0.5321 -0.4713
 4798TIP3    H135885   3.240   4.979   3.368  0.2924  0.2299  0.8508
 4798TIP3    H235886   3.342   4.954   3.259 -0.6999 -1.7643  0.3317
 4799TIP3   OH235887   5.362   5.405  16.418 -0.4309 -0.4660  0.5874
 4799TIP3    H135888   5.285   5.460  16.410  0.1461  0.3577  0.5434
 4799TIP3    H235889   5.329   5.321  16.450 -1.3845 -0.2540  0.1837
 4800TIP3   OH235890   0.052   1.901   3.832  0.5850 -0.0698  0.0403
 4800TIP3    H135891   0.066   1.815   3.793 -0.1406  1.0424 -3.0121
 4800TIP3    H235892   0.104   1.961   3.778 -1.9791  1.8483 -0.5245
 4801TIP3   OH235893   2.801   6.637  14.075 -0.0534  0.0486  0.1417
 4801TIP3    H135894   2.875   6.597  14.029  1.2526  1.0551  1.2746
 4801TIP3    H235895   2.725   6.612  14.024  0.8185 -2.7356  0.0444
 4802TIP3   OH235896   0.193   4.076  10.783  0.0154 -0.5324 -0.2893
 4802TIP3    H135897   0.146   4.157  10.805  1.0617  0.6616 -2.2059
 4802TIP3    H235898   0.124   4.010  10.775 -1.2858  0.9396 -2.0273
 4803TIP3   OH235899   6.515   4.189   2.301  0.2967 -0.5025  0.0576
 4803TIP3    H135900   6.564   4.174   2.220  0.0900  1.2138 -0.4333
 4803TIP3    H235901   6.576   4.238   2.356  0.4077 -1.5943  0.9438
 4804TIP3   OH235902   5.445   2.353  13.293  0.4921  0.7155  0.2337
 4804TIP3    H135903   5.428   2.308  13.376 -0.2205 -1.8546 -1.1821
 4804TIP3    H235904   5.532   2.324  13.267 -0.3346 -0.7053 -1.1370
 4805TIP3   OH235905   3.816   1.924   3.623 -0.1878  0.5630  0.6012
 4805TIP3    H135906   3.907   1.946   3.642  0.5068 -1.1389 -0.4804
 4805TIP3    H235907   3.780   1.895   3.707  0.9741 -0.9598  0.6079
 4806TIP3   OH235908   1.033   2.828   3.295 -0.1948  0.0046  0.2265
 4806TIP3    H135909   1.088   2.773   3.351 -0.4384  0.2415  0.6972
 4806TIP3    H235910   0.983   2.882   3.355 -3.0077 -2.1095 -0.0063
 4807TIP3   OH235911   5.026   0.791  11.885 -0.4478  0.1000  0.1115
 4807TIP3    H135912   4.979   0.869  11.853  0.9232  0.9806  0.1577
 4807TIP3    H235913   5.117   0.820  11.892  0.0491 -1.4681  0.3398
 4808TIP3   OH235914   4.895   1.511  15.642 -0.2285  0.2254 -0.6711
 4808TIP3    H135915   4.977   1.481  15.680 -0.0371  0.8593 -0.5646
 4808TIP3    H235916   4.918   1.535  15.552  0.1253  2.1036 -0.1227
 4809TIP3   OH235917   0.377   5.324  13.492  0.4138  0.3286  0.5830
 4809TIP3    H135918   0.295   5.360  13.526  0.7777  0.5175  1.2769
 4809TIP3    H235919   0.436   5.325  13.567  1.0868  0.2972  0.0581
 4810TIP3   OH235920   4.560   6.053   2.626 -0.1464  0.0878  0.1431
 4810TIP3    H135921   4.603   5.989   2.569 -0.4568  0.4938 -0.5488
 4810TIP3    H235922   4.473   6.063   2.589 -0.3038  0.4615  0.6110
 4811TIP3   OH235923   3.937   2.432  15.168  0.4838  0.0422 -0.3416
 4811TIP3    H135924   4.024   2.439  15.208 -0.8222  1.6599  2.5433
 4811TIP3    H235925   3.900   2.520  15.179 -1.3915 -0.5186 -1.8546
 4812TIP3   OH235926   0.157   3.430   3.507 -0.2964 -0.3874 -0.3573
 4812TIP3    H135927   0.167   3.506   3.564 -2.3588 -1.8518  2.2184
 4812TIP3    H235928   0.231   3.373   3.530 -0.0339 -0.1448 -0.5965
 4813TIP3   OH235929   3.974   5.980   1.864 -0.3353 -0.0378  0.3234
 4813TIP3    H135930   3.930   5.896   1.874 -0.9712  0.3294  0.6408
 4813TIP3    H235931   3.960   6.003   1.772 -2.2916  0.8705  0.7920
 4814TIP3   OH235932   2.465   2.915  16.966 -0.6258  0.2591  0.0072
 4814TIP3    H135933   2.499   2.943  17.051  0.9039 -2.6027  0.4654
 4814TIP3    H235934   2.534   2.860  16.929 -2.7665 -1.7094 -1.3540
 4815TIP3   OH235935   6.157   2.024   4.800  0.1211 -0.1345 -0.3674
 4815TIP3    H135936   6.155   2.089   4.730  0.1262  2.7445  2.0720
 4815TIP3    H235937   6.249   1.999   4.807  0.0217 -0.9561 -1.7538
 4816TIP3   OH235938   5.673   0.231   0.856 -0.0700  0.3541 -0.2138
 4816TIP3    H135939   5.703   0.159   0.801 -0.6453 -0.9098  1.0823
 4816TIP3    H235940   5.696   0.310   0.807  2.9553 -0.5889 -0.4867
 4817TIP3   OH235941   4.889   6.680   2.713  0.5233 -0.4428  0.1355
 4817TIP3    H135942   4.805   6.705   2.751  0.8213  0.2547  0.3539
 4817TIP3    H235943   4.896   6.732   2.633  1.2394  0.3523  0.6970
 4818TIP3   OH235944   1.525   3.238   1.374  0.0022 -0.2122 -0.5127
 4818TIP3    H135945   1.546   3.217   1.465  0.0417  0.8013 -0.2836
 4818TIP3    H235946   1.508   3.332   1.374 -1.0220 -0.3763 -1.3564
 4819TIP3   OH235947   2.819   6.663  15.740  0.2900 -0.9484 -0.3285
 4819TIP3    H135948   2.830   6.597  15.672  1.7743 -0.6940 -0.3733
 4819TIP3    H235949   2.845   6.619  15.821 -2.3961 -1.5538  0.2997
 4820TIP3   OH235950   0.917   3.190  12.828 -0.1801  0.3174 -0.0069
 4820TIP3    H135951   0.876   3.120  12.881  0.0272 -0.9346 -1.4235
 4820TIP3    H235952   0.843   3.245  12.802 -0.5464 -0.1484  0.0158
 4821TIP3   OH235953   0.058   1.515  11.156 -0.1267  0.3117 -0.1647
 4821TIP3    H135954   0.001   1.449  11.116 -3.1527  1.4362  1.9442
 4821TIP3    H235955   0.035   1.596  11.111 -1.2946  1.0216  1.6399
 4822TIP3   OH235956   6.711   2.673   3.068  0.2660  0.1556  0.0140
 4822TIP3    H135957   6.625   2.710   3.047 -0.2109 -0.9457 -0.0563
 4822TIP3    H235958   6.693   2.608   3.136  0.7934 -1.2123 -1.0989
 4823TIP3   OH235959   4.649   1.782  12.764 -0.1686 -0.4970  0.3142
 4823TIP3    H135960   4.726   1.730  12.744  0.2834  1.0377 -2.4634
 4823TIP3    H235961   4.579   1.746  12.709 -0.4368  0.3448  0.0721
 4824TIP3   OH235962   3.334   6.502   1.932  0.4154 -0.3642  0.6118
 4824TIP3    H135963   3.392   6.577   1.924 -0.5474  0.3636  0.2508
 4824TIP3    H235964   3.327   6.487   2.027 -1.4857  1.7520  0.9087
 4825TIP3   OH235965   4.125   3.389   2.677  0.3287  0.9042 -0.4162
 4825TIP3    H135966   4.060   3.459   2.670 -1.6429 -0.8007 -0.1432
 4825TIP3    H235967   4.104   3.345   2.759 -0.2623 -1.6278 -1.8358
 4826TIP3   OH235968   4.324   4.500  14.987 -0.1239 -0.2316  0.4138
 4826TIP3    H135969   4.252   4.491  15.049  1.1906 -1.4442  1.8546
 4826TIP3    H235970   4.303   4.437  14.917 -1.0577  0.3361  0.1586
 4827TIP3   OH235971   4.733   2.549  10.890 -0.4510  0.0672 -0.1585
 4827TIP3    H135972   4.804   2.547  10.954 -0.7070 -1.7558  0.1151
 4827TIP3    H235973   4.778   2.563  10.806  0.4823 -2.6932 -0.2074
 4828TIP3   OH235974   0.749   3.596   4.676 -0.1114 -0.2942  0.2940
 4828TIP3    H135975   0.763   3.542   4.754  1.2917  1.0258  1.0049
 4828TIP3    H235976   0.677   3.553   4.630 -0.8822 -1.2037  2.2324
 4829TIP3   OH235977   4.787   6.527   2.043 -0.9570  1.1360 -0.4045
 4829TIP3    H135978   4.762   6.504   1.953  0.0543 -1.1977 -0.1546
 4829TIP3    H235979   4.708   6.567   2.079 -2.3186 -0.4213 -1.4973
 4830TIP3   OH235980   0.901   0.315   1.553 -0.3691  1.0454 -0.2097
 4830TIP3    H135981   0.943   0.345   1.473 -1.3576  0.1366 -1.1075
 4830TIP3    H235982   0.814   0.356   1.551 -1.0307 -0.2996 -0.4985
 4831TIP3   OH235983   3.969   4.272  14.306  0.0439 -0.3873 -0.0773
 4831TIP3    H135984   3.880   4.307  14.316 -0.2021 -0.6041 -1.2876
 4831TIP3    H235985   3.988   4.231  14.390 -1.0975 -0.5238  0.1343
 4832TIP3   OH235986   6.043   0.005   0.619 -0.1331  0.0533 -0.1934
 4832TIP3    H135987   6.074  -0.066   0.563 -3.3905  0.2753 -2.6014
 4832TIP3    H235988   6.097   0.080   0.596  1.7561 -0.9674  0.6401
 4833TIP3   OH235989   0.321   1.495   3.643 -0.2701 -0.3718  0.0530
 4833TIP3    H135990   0.329   1.440   3.565 -1.9924  0.4570 -0.7525
 4833TIP3    H235991   0.235   1.535   3.636  0.9716  2.6697  0.4792
 4834TIP3   OH235992   1.518   0.133  12.512 -0.5169 -0.5643  0.2627
 4834TIP3    H135993   1.614   0.126  12.514 -0.3651  1.2115  2.4557
 4834TIP3    H235994   1.489   0.043  12.499  1.4209 -0.9934 -1.7803
 4835TIP3   OH235995   3.557   3.345  13.681  0.2010  0.3603  0.6211
 4835TIP3    H135996   3.554   3.346  13.777 -0.5733 -0.5387  0.6276
 4835TIP3    H235997   3.627   3.406  13.658  1.0957 -0.1731  1.8019
 4836TIP3   OH235998   4.448   5.712   5.617 -0.5279  0.3551  0.1214
 4836TIP3    H135999   4.424   5.638   5.561  1.9113  0.3969 -1.0901
 4836TIP3    H236000   4.520   5.755   5.571  1.0497  0.9002  2.8912
 4837TIP3   OH236001   3.154   4.034   0.473  1.0403  0.0111  0.0622
 4837TIP3    H136002   3.244   4.016   0.499  1.2144  0.7748  0.0146
 4837TIP3    H236003   3.149   4.129   0.466  0.1357  0.0055  0.4031
 4838TIP3   OH236004   6.269   4.679  15.929 -0.3174 -0.3647  0.2743
 4838TIP3    H136005   6.211   4.748  15.960 -0.0316 -0.1014  0.2307
 4838TIP3    H236006   6.278   4.619  16.003 -1.1883 -0.7766  0.0611
 4839TIP3   OH236007   3.004   4.114   4.395 -0.0340  0.5655 -0.1215
 4839TIP3    H136008   2.915   4.088   4.373  0.2774 -1.1156  0.4861
 4839TIP3    H236009   3.014   4.200   4.355 -1.4166  0.1376 -1.4857
 4840TIP3   OH236010   4.674   5.938   2.851 -0.2754 -0.1140 -0.5218
 4840TIP3    H136011   4.638   5.973   2.769 -1.0622 -0.8438 -0.5067
 4840TIP3    H236012   4.760   5.904   2.826 -0.5972 -0.5307 -1.1088
 4841TIP3   OH236013   2.828   5.067   6.644 -0.4382 -0.1388  0.3123
 4841TIP3    H136014   2.870   5.010   6.579  1.9827 -0.8807  2.3808
 4841TIP3    H236015   2.812   5.010   6.719  0.7939  1.5484  1.9370
 4842TIP3   OH236016   6.486   5.780   4.743 -0.3168 -0.3712 -0.0722
 4842TIP3    H136017   6.428   5.808   4.672 -0.3476 -0.7252 -0.1917
 4842TIP3    H236018   6.552   5.849   4.749 -0.6580 -0.0446 -0.0434
 4843TIP3   OH236019   0.954   0.349   2.636  0.6441  0.0781 -0.2165
 4843TIP3    H136020   0.871   0.328   2.593  1.3028 -1.5335 -0.7695
 4843TIP3    H236021   0.993   0.418   2.582 -0.1306  0.5595 -0.1785
 4844TIP3   OH236022   2.495   0.642  12.979  0.6535  0.2128  0.4738
 4844TIP3    H136023   2.477   0.732  13.007  0.2408  1.2318 -2.6664
 4844TIP3    H236024   2.452   0.634  12.894  2.7230 -2.1609 -0.4746
 4845TIP3   OH236025   3.671   4.521  11.642  0.0324  0.4435  0.0804
 4845TIP3    H136026   3.656   4.432  11.673  0.5073 -0.5246 -2.2747
 4845TIP3    H236027   3.751   4.548  11.687 -0.0420 -0.3594  0.7221
 4846TIP3   OH236028   2.401   1.734  16.015 -0.4796  0.7079 -0.3527
 4846TIP3    H136029   2.394   1.645  15.982 -0.3739  0.2982  0.7090
 4846TIP3    H236030   2.417   1.787  15.936  1.7194 -0.4659 -0.7966
 4847TIP3   OH236031   5.561   6.610   1.149  0.0442 -0.0869  0.1746
 4847TIP3    H136032   5.568   6.517   1.127 -0.0227 -0.0274 -0.0932
 4847TIP3    H236033   5.607   6.655   1.078  0.7473  0.0397  0.6962
 4848TIP3   OH236034   4.143   5.646   3.589 -0.0319  0.1534  0.0517
 4848TIP3    H136035   4.185   5.663   3.504  0.6928  2.0233  0.7325
 4848TIP3    H236036   4.211   5.664   3.653 -1.5189  2.3321  1.1477
 4849TIP3   OH236037   5.242   1.392  13.408 -0.1514 -0.4056 -0.1535
 4849TIP3    H136038   5.223   1.300  13.391  0.9630 -0.6355 -0.1973
 4849TIP3    H236039   5.315   1.413  13.349  0.1690  0.2737  0.4691
 4850TIP3   OH236040   1.509   4.376   5.455  0.5700 -0.0689  0.1745
 4850TIP3    H136041   1.602   4.356   5.443  0.6982  0.8164 -0.4215
 4850TIP3    H236042   1.473   4.374   5.366  0.3029  0.9122  0.2514
 4851TIP3   OH236043   2.624   2.526  11.567  0.4843  0.1731  0.0493
 4851TIP3    H136044   2.601   2.477  11.489  0.8900  0.1180 -0.0387
 4851TIP3    H236045   2.704   2.484  11.599  1.2456  1.2104 -0.4228
 4852TIP3   OH236046   5.201   4.271  15.346 -0.1771  0.3055  0.2051
 4852TIP3    H136047   5.293   4.260  15.370 -0.0310  1.0763  0.0196
 4852TIP3    H236048   5.202   4.343  15.282 -0.7334 -0.6496 -0.9139
 4853TIP3   OH236049   0.415   5.905  12.384 -0.4021 -0.4536  0.4421
 4853TIP3    H136050   0.335   5.861  12.414 -1.9246  1.9659  0.1813
 4853TIP3    H236051   0.454   5.941  12.464  0.0454 -0.9628  0.4652
 4854TIP3   OH236052   4.552   4.187   2.027 -0.1355  0.0433  0.7327
 4854TIP3    H136053   4.575   4.125   1.957 -0.9361  0.9830 -0.4009
 4854TIP3    H236054   4.469   4.155   2.061 -0.8812  0.8366 -0.3015
 4855TIP3   OH236055   2.337   4.377  10.630  0.2605 -0.8774 -0.4988
 4855TIP3    H136056   2.359   4.284  10.641  1.2455 -0.4377  1.7346
 4855TIP3    H236057   2.242   4.378  10.619  0.0928 -2.0740  0.6677
 4856TIP3   OH236058   4.942   6.479   3.058 -0.1470  0.3524 -0.5509
 4856TIP3    H136059   4.970   6.405   3.004 -1.0984  0.6876 -1.5326
 4856TIP3    H236060   5.002   6.550   3.034  0.8907 -0.1269  0.5336
 4857TIP3   OH236061   5.495   4.185  16.966  0.0060 -0.0262 -0.3885
 4857TIP3    H136062   5.508   4.257  17.028  1.3471 -0.2385 -0.4024
 4857TIP3    H236063   5.521   4.220  16.881  0.3021 -0.4057 -0.4571
 4858TIP3   OH236064   4.707   0.612  13.953 -0.2382  0.2056  0.2056
 4858TIP3    H136065   4.780   0.644  13.900 -0.4442  2.2508  1.0763
 4858TIP3    H236066   4.722   0.648  14.040 -1.1844 -1.1199  0.9649
 4859TIP3   OH236067   5.333   3.394  10.889  0.2440 -0.1782  0.4235
 4859TIP3    H136068   5.260   3.348  10.847 -0.1638 -0.7724  1.7168
 4859TIP3    H236069   5.373   3.445  10.819 -0.8291 -0.5855 -0.5210
 4860TIP3   OH236070   0.474   2.964   2.530  0.1755  0.5468  0.6776
 4860TIP3    H136071   0.464   2.929   2.441 -4.1735  0.9964  0.8039
 4860TIP3    H236072   0.516   3.049   2.517 -0.5683  0.7028 -0.9828
 4861TIP3   OH236073   4.435   5.175  16.549 -0.3458  0.3560 -0.0660
 4861TIP3    H136074   4.443   5.082  16.526 -0.9808  0.4228 -0.5733
 4861TIP3    H236075   4.344   5.185  16.574 -0.4220  0.9748 -0.5837
 4862TIP3   OH236076   2.841   0.491  14.477 -0.7615 -0.3535 -0.0083
 4862TIP3    H136077   2.878   0.405  14.462 -1.6655 -0.5455 -1.3517
 4862TIP3    H236078   2.752   0.473  14.509  0.0781  0.0921  2.8388
 4863TIP3   OH236079   4.348   2.645  13.860 -0.5460 -0.0566  0.5266
 4863TIP3    H136080   4.278   2.698  13.823  0.2050  0.2805 -0.4503
 4863TIP3    H236081   4.422   2.705  13.868 -0.2841 -0.4664  1.3191
 4864TIP3   OH236082   3.550   3.805   0.790  0.1526  0.1030  0.4684
 4864TIP3    H136083   3.545   3.710   0.795  1.0234  0.0648  0.7436
 4864TIP3    H236084   3.515   3.835   0.874 -1.2474  0.0841 -0.0823
 4865TIP3   OH236085   2.599   4.137   0.565 -0.3772  0.1379 -0.3710
 4865TIP3    H136086   2.508   4.165   0.561 -0.5381 -0.2737  0.2677
 4865TIP3    H236087   2.611   4.105   0.655  0.8011  1.5683  0.0349
 4866TIP3   OH236088   2.941   4.223  10.906 -0.3866 -0.1473 -0.3063
 4866TIP3    H136089   2.881   4.205  10.978 -0.3763 -1.6873 -0.6324
 4866TIP3    H236090   2.995   4.296  10.937 -0.4281 -0.7249  1.2333
 4867TIP3   OH236091   5.808   4.422  12.751 -0.1876 -0.5506 -0.0540
 4867TIP3    H136092   5.798   4.455  12.661  0.0130  1.2625  0.5465
 4867TIP3    H236093   5.802   4.327  12.742 -0.1483 -0.4211 -1.9920
 4868TIP3   OH236094   0.142   0.317  14.105 -0.4886 -0.1364  0.9382
 4868TIP3    H136095   0.089   0.292  14.180 -0.3917 -0.9620  0.7430
 4868TIP3    H236096   0.122   0.409  14.091 -1.3704 -0.2648  1.2712
 4869TIP3   OH236097   2.356   3.447   3.964 -0.4218 -0.2590 -0.6360
 4869TIP3    H136098   2.319   3.447   3.876  0.9392 -1.1653 -1.2410
 4869TIP3    H236099   2.355   3.355   3.991  0.7231 -0.2110 -0.3960
 4870TIP3   OH236100   0.486   6.322   3.891 -0.0164 -0.2267  0.2710
 4870TIP3    H136101   0.537   6.241   3.887  1.0970  0.4698 -0.2797
 4870TIP3    H236102   0.451   6.325   3.980  0.7733 -0.8144  0.6102
 4871TIP3   OH236103   0.467   2.000   0.794  0.1617 -0.1608  0.1547
 4871TIP3    H136104   0.503   2.022   0.881 -0.5799  3.2049 -0.2299
 4871TIP3    H236105   0.543   2.003   0.736  0.4482 -1.0732  0.4645
 4872TIP3   OH236106   2.961   5.332  10.766 -0.5850  0.0242 -0.2323
 4872TIP3    H136107   3.037   5.290  10.807 -1.4451 -1.0246  0.3455
 4872TIP3    H236108   2.962   5.422  10.798  0.9021  0.2821 -0.9278
 4873TIP3   OH236109   4.756   5.302  11.440  0.4009  0.1234  0.0564
 4873TIP3    H136110   4.824   5.278  11.503  0.8386 -0.5340 -0.6477
 4873TIP3    H236111   4.769   5.241  11.367 -1.1429 -0.2129  0.0410
 4874TIP3   OH236112   4.574   0.555  15.013  0.4821  0.4590 -1.1510
 4874TIP3    H136113   4.662   0.592  15.026  0.9974 -0.7565 -1.0799
 4874TIP3    H236114   4.586   0.461  15.023 -1.2147  0.4009  1.0142
 4875TIP3   OH236115   3.137   4.229  11.278 -0.2676  0.7508  0.1279
 4875TIP3    H136116   3.174   4.142  11.293 -0.4162  0.6507 -0.0853
 4875TIP3    H236117   3.158   4.278  11.357  2.7625  1.5535 -1.0283
 4876TIP3   OH236118   1.060   0.961   1.689 -0.0576 -0.2389 -0.0875
 4876TIP3    H136119   1.023   0.953   1.778 -1.8535 -1.0713 -0.8469
 4876TIP3    H236120   1.152   0.938   1.699 -0.6314 -2.2113  1.2849
 4877TIP3   OH236121   3.700   0.867  13.623  0.6539  0.1747  0.6805
 4877TIP3    H136122   3.795   0.854  13.628  0.8185  1.3240  0.7156
 4877TIP3    H236123   3.682   0.938  13.685 -0.1479  0.3766  0.2320
 4878TIP3   OH236124   2.155   5.044   4.725 -0.2857  0.4376  0.4308
 4878TIP3    H136125   2.137   4.973   4.787  0.8908 -0.8147 -0.5815
 4878TIP3    H236126   2.251   5.047   4.719 -0.3382  1.6770 -0.0635
 4879TIP3   OH236127   3.243   5.285  15.066 -0.0126  0.0341  0.2472
 4879TIP3    H136128   3.281   5.368  15.038  0.0932  0.4930  1.6614
 4879TIP3    H236129   3.310   5.220  15.048  0.7808  0.5871  1.1365
 4880TIP3   OH236130   1.680   0.302  13.788 -1.2247  0.0413 -0.0910
 4880TIP3    H136131   1.690   0.233  13.723 -0.3696  1.2872 -1.3339
 4880TIP3    H236132   1.706   0.383  13.742 -0.8171  0.9922  1.7203
 4881TIP3   OH236133   4.696   5.839   4.947 -0.0940  0.0734  0.2290
 4881TIP3    H136134   4.777   5.832   4.997  0.7011 -0.2176 -1.0566
 4881TIP3    H236135   4.718   5.897   4.874 -0.6086 -1.1794 -0.9542
 4882TIP3   OH236136   3.196   5.522   0.531 -0.2586 -0.1372  0.2349
 4882TIP3    H136137   3.204   5.442   0.479 -1.0864 -0.1214  0.0675
 4882TIP3    H236138   3.286   5.554   0.539 -0.0212 -0.5922 -0.4723
 4883TIP3   OH236139   4.567   3.379   5.646 -0.3524  0.0803  0.5648
 4883TIP3    H136140   4.499   3.312   5.659 -1.0689  0.4308 -1.1099
 4883TIP3    H236141   4.554   3.440   5.719  0.5103 -1.7221  2.2902
 4884TIP3   OH236142   1.963   2.874   5.769  0.1956  0.6647  0.5210
 4884TIP3    H136143   2.030   2.835   5.826  0.7823  0.7147 -0.1146
 4884TIP3    H236144   1.914   2.799   5.735  0.8330  0.5241 -0.1041
 4885TIP3   OH236145   6.799   0.185  15.771  0.4479 -0.8853 -0.0164
 4885TIP3    H136146   6.859   0.112  15.760 -0.8710 -2.5353  2.8427
 4885TIP3    H236147   6.717   0.146  15.803 -0.4933  1.7561  1.1413
 4886TIP3   OH236148   2.766   1.389   5.068 -0.1311 -0.6207 -0.5857
 4886TIP3    H136149   2.806   1.434   4.994  0.8797  0.0098  0.3305
 4886TIP3    H236150   2.837   1.338   5.107 -0.3913 -0.1155  0.5818
 4887TIP3   OH236151   0.077   4.915   4.514  0.0321  0.0234 -0.4359
 4887TIP3    H136152  -0.016   4.934   4.502  0.1586 -0.5670 -3.0468
 4887TIP3    H236153   0.080   4.821   4.532  0.1078  0.0964 -0.0654
 4888TIP3   OH236154   1.394   0.387   4.233 -0.5954 -0.5144  0.2515
 4888TIP3    H136155   1.487   0.409   4.225 -0.6453 -0.2860  0.2831
 4888TIP3    H236156   1.366   0.431   4.314 -0.8540 -0.1429 -0.0351
 4889TIP3   OH236157   6.594   3.036   6.353  0.5202  0.8647 -0.2302
 4889TIP3    H136158   6.653   2.961   6.351  1.9420  1.9422 -0.3069
 4889TIP3    H236159   6.578   3.051   6.446  0.2584  0.4862 -0.2142
 4890TIP3   OH236160   5.285   1.636  14.135 -0.6013 -0.4110 -0.1142
 4890TIP3    H136161   5.288   1.689  14.055 -0.9840 -1.8026 -1.0842
 4890TIP3    H236162   5.220   1.681  14.190  0.3207  1.0661 -0.1819
 4891TIP3   OH236163   4.477   0.027  16.507  0.7279 -0.4387 -0.2714
 4891TIP3    H136164   4.448   0.056  16.420  0.5744 -0.3445 -0.1907
 4891TIP3    H236165   4.555   0.079  16.525  0.2400  0.1973  0.0303
 4892TIP3   OH236166   1.069   0.060  17.235  0.4345  0.0439  0.6475
 4892TIP3    H136167   1.049   0.023  17.321 -1.6640  0.6239  0.4598
 4892TIP3    H236168   0.997   0.121  17.218  1.0506  0.2706 -1.3392
 4893TIP3   OH236169   4.309   0.741  12.337  0.5320  0.0627 -0.1180
 4893TIP3    H136170   4.228   0.717  12.292 -0.4659  0.4984  1.3469
 4893TIP3    H236171   4.346   0.658  12.367 -0.8094 -0.0008  1.4945
 4894TIP3   OH236172   4.724   6.437  13.095  0.3378  0.1027 -0.6410
 4894TIP3    H136173   4.661   6.437  13.166  1.1084 -2.3771  0.1432
 4894TIP3    H236174   4.759   6.527  13.094 -1.8106  1.0135  0.0889
 4895TIP3   OH236175   2.087   6.552  10.909  0.3647  0.0098 -0.5014
 4895TIP3    H136176   2.097   6.624  10.971  2.4585  0.1856 -0.9659
 4895TIP3    H236177   2.071   6.595  10.825 -2.2933 -0.2245 -0.1886
 4896TIP3   OH236178   1.569   5.178  11.445  0.5116 -1.0286 -0.5065
 4896TIP3    H136179   1.500   5.203  11.506  1.7408  2.2568 -0.2363
 4896TIP3    H236180   1.647   5.167  11.500  1.2920  0.4720 -1.2301
 4897TIP3   OH236181   2.764   6.480  16.339 -0.3895  0.2308 -0.0127
 4897TIP3    H136182   2.758   6.517  16.251  0.4982  0.7508  0.1326
 4897TIP3    H236183   2.771   6.386  16.326 -0.5071  0.2862 -0.4848
 4898TIP3   OH236184   3.404   6.630   2.525 -0.1267  0.0533  0.0104
 4898TIP3    H136185   3.413   6.536   2.511 -0.3813 -0.0010  0.2141
 4898TIP3    H236186   3.456   6.649   2.603  0.2275  0.1442 -0.2444
 4899TIP3   OH236187   1.297   4.843  13.024 -0.0876  0.1714  0.0625
 4899TIP3    H136188   1.273   4.928  13.059  1.2859  0.6730 -0.1481
 4899TIP3    H236189   1.215   4.793  13.023 -0.5532  0.8039  2.0590
 4900TIP3   OH236190   2.594   4.040  10.903  0.6282 -0.5657  0.0170
 4900TIP3    H136191   2.541   3.984  10.846  0.6905  0.4500 -1.0848
 4900TIP3    H236192   2.613   4.117  10.849  3.6602 -1.0898  0.1483
 4901TIP3   OH236193   0.399   2.201   4.006  0.6903 -0.6941  0.3271
 4901TIP3    H136194   0.315   2.154   4.003  0.6402 -0.5673 -0.5105
 4901TIP3    H236195   0.395   2.262   3.932  1.9407 -1.3993 -0.3531
 4902TIP3   OH236196   4.614   6.476  13.928  0.4243  0.2144  0.2940
 4902TIP3    H136197   4.593   6.424  13.851 -3.2933 -0.7496  1.7210
 4902TIP3    H236198   4.602   6.567  13.900 -0.7633 -0.1175 -0.3385
 4903TIP3   OH236199   3.239   2.736   0.353 -0.0811 -0.1145 -0.0545
 4903TIP3    H136200   3.313   2.736   0.293  0.4909 -0.0620  0.6437
 4903TIP3    H236201   3.271   2.693   0.432 -0.8027 -0.1241  0.2466
 4904TIP3   OH236202   2.116   6.075  11.233 -0.5460 -0.2099  0.3244
 4904TIP3    H136203   2.175   6.151  11.233 -0.7789 -0.0013 -0.6995
 4904TIP3    H236204   2.127   6.035  11.319 -0.6521  1.1707  1.0008
 4905TIP3   OH236205   2.690   2.261   5.453 -0.4146  0.3784 -0.0396
 4905TIP3    H136206   2.644   2.335   5.415  0.3077  0.4121 -0.8934
 4905TIP3    H236207   2.735   2.220   5.379 -0.4606 -0.6601  0.4881
 4906TIP3   OH236208   2.400   5.060  14.175 -0.2238 -0.2093 -1.2482
 4906TIP3    H136209   2.478   5.055  14.120  0.8230  0.5966  0.0866
 4906TIP3    H236210   2.403   5.148  14.212 -1.2165 -0.5268 -0.3591
 4907TIP3   OH236211   0.654   2.492  14.840 -0.1137 -0.2410  0.2033
 4907TIP3    H136212   0.573   2.469  14.795  1.3264 -0.8820 -2.2441
 4907TIP3    H236213   0.721   2.487  14.773  1.9230  0.7235  2.0365
 4908TIP3   OH236214   2.336   0.855   1.367 -0.2554 -0.6883  0.1104
 4908TIP3    H136215   2.391   0.892   1.299 -0.5146 -0.6519 -0.0822
 4908TIP3    H236216   2.247   0.881   1.342 -0.1760  1.3533  1.7190
 4909TIP3   OH236217   3.908   4.704  16.689  0.1887 -0.0781 -0.0703
 4909TIP3    H136218   3.857   4.634  16.729 -0.3010  0.4489  0.2503
 4909TIP3    H236219   3.877   4.708  16.598  2.0751 -2.0105 -0.8805
 4910TIP3   OH236220   4.484   5.716   5.115 -0.2211 -0.3518 -0.5641
 4910TIP3    H136221   4.458   5.807   5.102  0.5899 -0.0082  0.1572
 4910TIP3    H236222   4.563   5.706   5.061 -1.2073 -1.1074 -1.9412
 4911TIP3   OH236223   6.195   3.535   5.771  0.1311  0.2920 -0.4425
 4911TIP3    H136224   6.274   3.511   5.818  0.2706  2.4840  0.5268
 4911TIP3    H236225   6.129   3.472   5.801  1.0212 -0.3461  0.2129
 4912TIP3   OH236226   0.088   4.956   1.874 -0.4966 -0.1321 -0.5589
 4912TIP3    H136227   0.095   5.044   1.837  0.2842  0.2905  0.5455
 4912TIP3    H236228   0.165   4.909   1.839  2.0598  1.1706  2.7372
 4913TIP3   OH236229   2.996   5.771  13.539  0.2636 -0.4589 -0.1405
 4913TIP3    H136230   3.091   5.782  13.534  0.2532  0.2516  0.9939
 4913TIP3    H236231   2.976   5.706  13.471  1.1594  1.6413 -2.5959
 4914TIP3   OH236232   0.477   1.199   1.283  0.0588  0.7578 -0.2955
 4914TIP3    H136233   0.513   1.229   1.366  2.5405 -0.6477 -0.7678
 4914TIP3    H236234   0.392   1.161   1.306  0.7084  0.3596  1.6028
 4915TIP3   OH236235   1.311   0.372   2.773  0.6140  0.3302  0.1057
 4915TIP3    H136236   1.296   0.291   2.724  0.4757  0.0265  0.6493
 4915TIP3    H236237   1.235   0.426   2.754 -0.1740 -0.3798  1.1780
 4916TIP3   OH236238   2.022   2.061  13.483 -0.0556  0.4701  0.9509
 4916TIP3    H136239   1.984   1.977  13.510  0.2270 -0.6811 -1.8745
 4916TIP3    H236240   2.116   2.047  13.484 -0.0295  0.3895 -0.4448
 4917TIP3   OH236241   1.481   2.904  11.648  0.4668  0.2513  0.2662
 4917TIP3    H136242   1.536   2.928  11.723  1.3442 -0.5397 -0.1095
 4917TIP3    H236243   1.511   2.817  11.623 -0.9230 -0.1726 -0.0033
 4918TIP3   OH236244   3.058   5.887  14.150  0.3677  0.6663  0.7077
 4918TIP3    H136245   3.016   5.950  14.209  0.3751  0.8727  0.4950
 4918TIP3    H236246   3.005   5.890  14.070  0.3219  0.3434  0.7255
 4919TIP3   OH236247   5.902   4.691  15.199  0.3153 -0.1460 -0.1705
 4919TIP3    H136248   5.908   4.596  15.198 -0.1757 -0.1869 -1.4163
 4919TIP3    H236249   5.975   4.720  15.144 -0.1802  0.1292 -0.7040
 4920TIP3   OH236250   0.657   2.482   0.889 -0.4103  0.0499 -0.6972
 4920TIP3    H136251   0.752   2.481   0.898 -0.4666  0.3298 -0.0319
 4920TIP3    H236252   0.637   2.401   0.841  0.0616 -0.6224  0.2082
 4921TIP3   OH236253   1.982   6.447  10.624 -0.0175 -0.4775 -0.0910
 4921TIP3    H136254   2.014   6.537  10.628 -1.9071  0.1903  1.1975
 4921TIP3    H236255   1.993   6.422  10.532  1.9247  0.4947 -0.1697
 4922TIP3   OH236256   1.681   2.677   3.964 -0.2685  0.2664 -0.0935
 4922TIP3    H136257   1.728   2.705   4.043 -0.5619  0.0590  0.1522
 4922TIP3    H236258   1.589   2.688   3.985 -0.3608 -0.1286 -0.2817
 4923TIP3   OH236259   0.642   3.402   1.330 -0.4428  0.2352  0.3259
 4923TIP3    H136260   0.693   3.403   1.249  0.2861  3.1995  0.6796
 4923TIP3    H236261   0.551   3.393   1.302 -0.2275  1.4596 -0.9044
 4924TIP3   OH236262   3.062   5.492  11.460 -0.1179 -0.3383  0.2068
 4924TIP3    H136263   3.098   5.464  11.376  0.2295 -1.5475  0.7335
 4924TIP3    H236264   2.983   5.540  11.437  1.6121  2.1248 -0.9679
 4925TIP3   OH236265   0.402   6.154   1.247 -0.3533  0.5121 -0.0952
 4925TIP3    H136266   0.410   6.113   1.161 -2.6246  1.5757 -0.9063
 4925TIP3    H236267   0.434   6.243   1.235  0.9388  0.1818  0.6598
 4926TIP3   OH236268   1.467   0.990  17.084  0.2570  0.2472  0.1524
 4926TIP3    H136269   1.462   0.896  17.066 -0.3491  0.4688 -0.9061
 4926TIP3    H236270   1.477   1.030  16.998 -0.4920  1.2173  0.5014
 4927TIP3   OH236271   4.292   1.916   2.308 -0.3519  0.0358 -0.2794
 4927TIP3    H136272   4.352   1.914   2.383 -0.8895  3.6897  0.4264
 4927TIP3    H236273   4.348   1.918   2.231  0.2299 -1.9600  0.0243
 4928TIP3   OH236274   4.298   1.687  16.932  0.2813 -0.6414  0.0408
 4928TIP3    H136275   4.255   1.670  16.849  0.7932 -0.6758 -0.2215
 4928TIP3    H236276   4.363   1.616  16.940  0.7988 -0.1685  0.0724
 4929TIP3   OH236277   0.921   1.646  12.925  0.8388 -0.7379 -0.2911
 4929TIP3    H136278   0.833   1.628  12.894  0.7440 -0.1280 -0.3793
 4929TIP3    H236279   0.940   1.574  12.985  0.9927 -1.8928 -1.6664
 4930TIP3   OH236280   4.984   4.940  16.536 -0.1538  0.0013  0.8625
 4930TIP3    H136281   5.073   4.932  16.571 -0.8122 -0.7666  2.4521
 4930TIP3    H236282   4.957   4.850  16.519 -0.0261  0.3176 -1.3296
 4931TIP3   OH236283   1.314   0.258   3.434  0.2273  0.3568  0.3537
 4931TIP3    H136284   1.344   0.346   3.411  0.2698  0.5493  1.1055
 4931TIP3    H236285   1.261   0.230   3.360  1.7491  0.2587 -0.7270
 4932TIP3   OH236286   0.708   3.029  13.942 -0.3668 -0.3020 -0.1662
 4932TIP3    H136287   0.754   3.112  13.951  0.0144 -0.6129  0.8694
 4932TIP3    H236288   0.701   2.995  14.031 -1.6827 -0.7663 -0.4182
 4933TIP3   OH236289   6.298   4.187  11.198 -0.0472 -0.4085  0.5163
 4933TIP3    H136290   6.318   4.249  11.128  0.3398  0.9330  1.7637
 4933TIP3    H236291   6.318   4.101  11.161  0.1516  0.2597 -0.9967
 4934TIP3   OH236292   5.111   4.863   2.231  0.2005 -0.3627 -0.2065
 4934TIP3    H136293   5.171   4.930   2.264  1.1929 -0.4633 -1.7064
 4934TIP3    H236294   5.030   4.910   2.213  0.3384  0.0890  0.3273
 4935TIP3   OH236295   3.951   6.234   2.017 -0.7420  0.3111  0.3231
 4935TIP3    H136296   3.912   6.295   1.954  0.8979  1.2796  0.2126
 4935TIP3    H236297   3.925   6.147   1.985 -1.0701  0.8455 -0.9142
 4936TIP3   OH236298   0.598   6.044  16.523  0.0679 -0.4527  0.1995
 4936TIP3    H136299   0.688   6.074  16.534 -0.3234  0.7182  0.3549
 4936TIP3    H236300   0.587   5.975  16.589  0.0596  1.2468  2.0712
 4937TIP3   OH236301   2.603   4.522   4.875  0.3204  0.5818 -0.0106
 4937TIP3    H136302   2.666   4.559   4.813 -0.4965  1.9175 -0.0862
 4937TIP3    H236303   2.656   4.467   4.933  1.4098  0.9520 -0.6244
 4938TIP3   OH236304   6.622   0.839  14.987  0.0885  0.0796  0.0338
 4938TIP3    H136305   6.535   0.877  14.980 -0.1833 -0.7257 -1.3181
 4938TIP3    H236306   6.658   0.845  14.899  0.1547 -2.4424 -0.1689
 4939TIP3   OH236307   6.467   6.498  17.156 -0.1654  0.0591 -0.3580
 4939TIP3    H136308   6.478   6.475  17.249 -1.3831  0.7634 -0.0193
 4939TIP3    H236309   6.472   6.594  17.155  0.3551  0.0301 -1.1068
 4940TIP3   OH236310   3.826   2.881   2.423  0.9868  0.6784  0.1326
 4940TIP3    H136311   3.752   2.941   2.439  0.3733 -0.1808  0.6048
 4940TIP3    H236312   3.842   2.887   2.329  0.4775  1.0635  0.0638
 4941TIP3   OH236313   4.126   4.752  11.425  0.1655 -0.1413 -0.2866
 4941TIP3    H136314   4.090   4.667  11.451 -0.9483  0.5306  0.4370
 4941TIP3    H236315   4.176   4.781  11.501 -0.2336  0.2636 -0.1730
 4942TIP3   OH236316   6.141   4.653   1.559  0.7348 -0.6876  0.1058
 4942TIP3    H136317   6.147   4.566   1.522  0.5762 -0.6287 -0.0570
 4942TIP3    H236318   6.048   4.666   1.577  0.9507 -1.3195  1.9594
 4943TIP3   OH236319   0.979   2.720  11.480  0.2498  0.0592  0.1144
 4943TIP3    H136320   0.914   2.655  11.453  0.0269  1.1613 -2.2403
 4943TIP3    H236321   1.025   2.679  11.553 -0.8098 -2.1432 -0.3770
 4944TIP3   OH236322   4.953   1.536   4.781  0.4150 -0.4732 -0.3109
 4944TIP3    H136323   4.993   1.605   4.728 -1.7182  3.0020  2.1404
 4944TIP3    H236324   5.014   1.524   4.854 -0.2613  0.7372  0.5083
 4945TIP3   OH236325   4.436   5.469  14.490  0.2251  0.4415 -0.0550
 4945TIP3    H136326   4.373   5.398  14.478  1.9732 -1.3629  0.9691
 4945TIP3    H236327   4.444   5.479  14.585 -2.4757  4.4625  0.0355
 4946TIP3   OH236328   5.656   2.684   4.340 -0.0232  0.0988 -0.5038
 4946TIP3    H136329   5.721   2.690   4.410 -0.5241 -3.5968  0.4988
 4946TIP3    H236330   5.703   2.646   4.267 -0.0378  1.8213 -1.4464
 4947TIP3   OH236331   5.564   3.895  14.189 -0.0631  0.3730 -0.1220
 4947TIP3    H136332   5.546   3.952  14.264 -0.1827  0.7663 -0.4489
 4947TIP3    H236333   5.477   3.872  14.156  0.0045  0.9194 -0.6836
 4948TIP3   OH236334   6.756   4.797  11.781 -1.0988 -0.4387  0.6935
 4948TIP3    H136335   6.683   4.769  11.726 -1.5537  0.4012  0.8655
 4948TIP3    H236336   6.827   4.736  11.759 -1.8481 -1.2813  0.5467
 4949TIP3   OH236337   2.013   0.270   1.261  0.2745  0.0277 -0.0208
 4949TIP3    H136338   1.959   0.342   1.227  1.2886  0.5272 -0.5978
 4949TIP3    H236339   1.959   0.192   1.247 -0.2691  0.5045 -0.6648
 4950TIP3   OH236340   1.918   3.735  11.183 -0.0235 -0.8943 -0.5642
 4950TIP3    H136341   1.855   3.806  11.185 -0.4700 -1.1865 -2.2331
 4950TIP3    H236342   2.003   3.777  11.194 -0.2782 -0.0879 -1.5822
 4951TIP3   OH236343   4.392   3.137   3.208  0.6144  0.2142  0.2877
 4951TIP3    H136344   4.436   3.197   3.148  0.3460  1.0868  0.9361
 4951TIP3    H236345   4.327   3.091   3.154  2.0101 -0.7990 -0.5924
 4952TIP3   OH236346   1.870   6.821  15.758 -0.3983  0.5325  0.2826
 4952TIP3    H136347   1.926   6.750  15.728  0.3257  1.7995 -1.5205
 4952TIP3    H236348   1.793   6.817  15.701 -0.1587  1.4134 -0.1304
 4953TIP3   OH236349   2.558   2.230  14.937  0.0942 -0.5124  0.1459
 4953TIP3    H136350   2.607   2.284  15.000  1.0697  1.2791 -1.9988
 4953TIP3    H236351   2.481   2.282  14.916  0.2823 -0.6055 -0.8340
 4954TIP3   OH236352   1.482   2.193  13.369 -0.1683 -0.6391 -0.1046
 4954TIP3    H136353   1.397   2.233  13.355 -1.1240 -1.9111  1.6455
 4954TIP3    H236354   1.544   2.266  13.364 -1.5806  0.6649  0.5973
 4955TIP3   OH236355   5.235   0.330   2.230 -0.0118  0.3623 -0.1586
 4955TIP3    H136356   5.223   0.423   2.209 -1.1474  0.2758  0.0589
 4955TIP3    H236357   5.184   0.316   2.310 -0.9163 -0.7348 -0.9015
 4956TIP3   OH236358   6.396   3.362   1.142  0.0144  0.4731 -0.1568
 4956TIP3    H136359   6.485   3.357   1.177  0.1856  3.1953  0.0546
 4956TIP3    H236360   6.403   3.425   1.070 -1.5050 -0.2818 -0.9998
 4957TIP3   OH236361   2.757   2.135   1.284 -0.3642  0.0892 -0.5405
 4957TIP3    H136362   2.808   2.191   1.225  1.6175  0.0602  1.0765
 4957TIP3    H236363   2.817   2.067   1.312 -1.6875 -0.7391  0.4112
 4958TIP3   OH236364   4.661   1.790   3.376  0.4398  0.2662 -0.5367
 4958TIP3    H136365   4.624   1.823   3.458 -0.0978  0.5707 -0.8994
 4958TIP3    H236366   4.593   1.731   3.342 -1.0940  3.1032 -2.7303
 4959TIP3   OH236367   0.928   2.701  12.253 -0.4548 -0.5187 -0.3432
 4959TIP3    H136368   0.965   2.629  12.203  1.2256  0.2128 -0.2143
 4959TIP3    H236369   0.897   2.661  12.334  2.5556 -0.8656  0.7775
 4960TIP3   OH236370   4.845   5.110   5.075 -0.4523  0.6774  0.5367
 4960TIP3    H136371   4.755   5.111   5.107 -0.9687 -1.2059 -0.6737
 4960TIP3    H236372   4.882   5.193   5.104 -2.7494  1.7586  0.5965
 4961TIP3   OH236373   5.908   2.108   0.178 -0.1784  0.4150  0.1018
 4961TIP3    H136374   5.980   2.169   0.162  2.1503 -2.0690  0.4964
 4961TIP3    H236375   5.912   2.046   0.106 -1.3140 -0.3484  0.6644
 4962TIP3   OH236376   2.303   4.390  11.265  0.1295 -0.1380  0.3120
 4962TIP3    H136377   2.378   4.335  11.290  0.8104  0.9498  0.7512
 4962TIP3    H236378   2.340   4.455  11.206 -0.0425  1.5671  1.9846
 4963TIP3   OH236379   0.136   5.069  15.286  0.1195  0.0268 -0.4051
 4963TIP3    H136380   0.200   5.002  15.311 -0.9233 -0.4754  1.0422
 4963TIP3    H236381   0.053   5.022  15.278 -0.4211  0.9647 -0.4658
 4964TIP3   OH236382   0.661   2.575   3.077  0.1648 -0.2636  0.2652
 4964TIP3    H136383   0.663   2.544   2.987 -1.2046  1.1062 -0.2680
 4964TIP3    H236384   0.570   2.567   3.103  0.3341  0.4608  1.1252
 4965TIP3   OH236385   1.603   3.119  13.795 -0.4989 -1.0090 -0.7649
 4965TIP3    H136386   1.518   3.085  13.767 -2.8217  1.1608  2.7864
 4965TIP3    H236387   1.620   3.192  13.735 -1.4885 -1.0715 -1.1404
 4966TIP3   OH236388   0.191   4.805   2.926 -0.6456  0.5000  0.1907
 4966TIP3    H136389   0.176   4.892   2.888 -1.0916  0.8148  1.0720
 4966TIP3    H236390   0.274   4.812   2.972  2.1001 -1.0022 -3.9534
 4967TIP3   OH236391   5.729   2.098   2.334  0.2957 -0.3078  0.4990
 4967TIP3    H136392   5.782   2.157   2.280 -0.1377 -1.1032 -0.8288
 4967TIP3    H236393   5.684   2.157   2.395  1.1714  0.5652  0.3378
 4968TIP3   OH236394   6.769   1.876  16.772  0.1784  0.4652  0.1894
 4968TIP3    H136395   6.738   1.809  16.711  0.0397  0.6318  0.0745
 4968TIP3    H236396   6.780   1.954  16.717  0.7223  0.4286  0.2435
 4969TIP3   OH236397   4.617   1.615  15.739 -0.0848 -0.6492 -0.0566
 4969TIP3    H136398   4.642   1.640  15.828 -0.7428 -0.0529 -0.0310
 4969TIP3    H236399   4.690   1.562  15.708 -0.0898 -1.3274  1.0312
 4970TIP3   OH236400   5.204   2.273   4.781 -0.3233  0.9100 -0.2158
 4970TIP3    H136401   5.116   2.237   4.790 -0.9834  2.4446 -0.2329
 4970TIP3    H236402   5.195   2.342   4.715  0.2363  2.9928  1.7368
 4971TIP3   OH236403   2.317   6.780   1.338  0.0779 -0.0277 -0.3956
 4971TIP3    H136404   2.245   6.723   1.365 -0.5338  0.7846 -0.2775
 4971TIP3    H236405   2.367   6.727   1.275 -0.6173 -0.5992 -0.4822
 4972TIP3   OH236406   0.811   2.145   1.801 -0.3506 -0.9044  0.8446
 4972TIP3    H136407   0.878   2.081   1.823 -0.1169 -0.7153  0.6858
 4972TIP3    H236408   0.859   2.220   1.767 -0.7060 -1.1963 -0.3416
 4973TIP3   OH236409   0.502   3.690   2.604  0.1408 -0.2097  0.3346
 4973TIP3    H136410   0.516   3.734   2.688  0.1577 -0.6461  0.5684
 4973TIP3    H236411   0.585   3.697   2.559  0.1653 -0.0651  0.4034
 4974TIP3   OH236412   5.639   1.277   5.955 -0.3100 -0.1955  0.1040
 4974TIP3    H136413   5.606   1.355   5.910  0.0590  0.4725  0.9520
 4974TIP3    H236414   5.574   1.210   5.937 -1.2136  0.6089  0.2731
 4975TIP3   OH236415   1.795   4.336  14.460  0.6793  0.0350  0.0343
 4975TIP3    H136416   1.752   4.356  14.377  1.6056 -1.0882 -0.7565
 4975TIP3    H236417   1.724   4.334  14.524 -0.4873 -1.7813 -1.2310
 4976TIP3   OH236418   4.260   3.763   1.748 -0.2089 -0.4717 -0.3038
 4976TIP3    H136419   4.260   3.857   1.769  0.9649 -0.5289  0.0228
 4976TIP3    H236420   4.311   3.757   1.667 -0.3290 -0.8294 -0.3535
 4977TIP3   OH236421   0.400   4.971   6.589 -0.8059  0.0509  0.1591
 4977TIP3    H136422   0.315   4.973   6.634 -0.9172  2.3690 -0.0316
 4977TIP3    H236423   0.406   5.057   6.547  0.4180 -1.0941 -2.1636
 4978TIP3   OH236424   2.500   5.496  12.260  0.2342  0.0413 -0.0739
 4978TIP3    H136425   2.460   5.555  12.197  0.4043  0.4717  0.2123
 4978TIP3    H236426   2.591   5.525  12.265  0.3819 -0.4071 -0.1164
 4979TIP3   OH236427   3.773   2.638  12.357  0.4291 -0.0257 -0.5659
 4979TIP3    H136428   3.737   2.581  12.424  0.3076  0.6082 -0.0791
 4979TIP3    H236429   3.858   2.600  12.335  0.2758 -0.4790 -0.3725
 4980TIP3   OH236430   4.916   4.795  16.087 -0.3812  0.4003 -0.3207
 4980TIP3    H136431   4.954   4.883  16.083 -0.9629  0.6759 -0.0416
 4980TIP3    H236432   4.940   4.763  16.174  1.6602 -0.5924 -1.1970
 4981TIP3   OH236433   1.193   0.693  14.316  0.2073  0.4225 -0.0588
 4981TIP3    H136434   1.234   0.773  14.284  1.1144 -0.4060 -1.0381
 4981TIP3    H236435   1.265   0.641  14.351 -0.4863  0.3820  1.3919
 4982TIP3   OH236436   1.058   1.150  14.698  0.0366  0.3859  0.0481
 4982TIP3    H136437   1.040   1.068  14.651 -1.8319  0.3965  0.6391
 4982TIP3    H236438   1.153   1.151  14.709  0.1500 -1.5232 -0.2904
 4983TIP3   OH236439   4.371   5.830   3.683 -0.2630 -0.0347  0.0674
 4983TIP3    H136440   4.324   5.856   3.603 -0.6993  0.4549  0.4720
 4983TIP3    H236441   4.434   5.901   3.697  0.2000 -0.3946 -0.1390
 4984TIP3   OH236442   1.908   5.107  15.839  0.2379 -0.3677 -0.3765
 4984TIP3    H136443   1.872   5.089  15.926  1.3539  1.2815  0.4812
 4984TIP3    H236444   1.869   5.191  15.814  0.1975 -0.6575 -1.3236
 4985TIP3   OH236445   6.193   3.688  14.515 -0.1770 -0.7779 -0.3987
 4985TIP3    H136446   6.256   3.734  14.460  1.9285 -0.3203  2.2063
 4985TIP3    H236447   6.237   3.606  14.538 -1.8683 -1.9124 -0.9738
 4986TIP3   OH236448   3.749   2.374  16.741 -0.4883  0.2452  0.1565
 4986TIP3    H136449   3.762   2.296  16.687 -0.7003  0.7015 -0.5661
 4986TIP3    H236450   3.703   2.341  16.819 -0.0128 -0.4488  0.1569
 4987TIP3   OH236451   0.999   1.599   5.232  0.5009  0.1904 -0.5172
 4987TIP3    H136452   1.012   1.504   5.226  2.3872  0.3200  0.5016
 4987TIP3    H236453   1.087   1.633   5.246 -0.0969  2.1492 -1.3003
 4988TIP3   OH236454   6.719   1.001   4.974  0.2325  0.3630 -0.5868
 4988TIP3    H136455   6.768   0.919   4.978 -0.3347 -0.0086 -1.0847
 4988TIP3    H236456   6.767   1.054   4.910  0.0223  0.0155 -1.0436
 4989TIP3   OH236457   0.181   0.350   5.430 -0.6702 -0.0853  0.6439
 4989TIP3    H136458   0.212   0.261   5.447 -1.6544 -0.5831 -0.0733
 4989TIP3    H236459   0.257   0.406   5.448  0.5342 -1.2243 -0.6333
 4990TIP3   OH236460   3.541   5.793  13.780 -0.1475 -0.0323 -0.0791
 4990TIP3    H136461   3.634   5.792  13.801 -0.6715 -1.7348  2.7195
 4990TIP3    H236462   3.527   5.717  13.724 -0.1040 -0.9005  1.0600
 4991TIP3   OH236463   3.232   0.490  13.650 -0.2569  0.8417  0.1207
 4991TIP3    H136464   3.143   0.518  13.628  0.3568  3.0755  0.1788
 4991TIP3    H236465   3.225   0.461  13.741 -0.8810  1.3171  0.2382
 4992TIP3   OH236466   0.449   5.177  11.047  0.1107 -0.7879 -0.4918
 4992TIP3    H136467   0.355   5.161  11.047  0.0457 -0.3940 -0.7410
 4992TIP3    H236468   0.463   5.244  10.981  0.0220  2.2478  2.3002
 4993TIP3   OH236469   6.012   6.106  13.778 -0.1345  0.6204 -0.3401
 4993TIP3    H136470   5.999   6.189  13.824 -1.5366 -0.2786  0.9830
 4993TIP3    H236471   5.946   6.047  13.815  1.2380 -1.2845 -0.7562
 4994TIP3   OH236472   6.770   1.711   4.190  0.7866  0.1900 -0.7984
 4994TIP3    H136473   6.718   1.751   4.260  1.0643 -0.4631 -0.1946
 4994TIP3    H236474   6.708   1.697   4.119 -0.0936 -1.3242  0.2113
 4995TIP3   OH236475   5.126   1.383  14.124  0.0291  0.0122 -0.0766
 4995TIP3    H136476   5.158   1.474  14.125 -1.4815  0.5630  0.0331
 4995TIP3    H236477   5.194   1.334  14.171  0.1342  1.3578  1.2701
 4996TIP3   OH236478   5.109   2.178   2.412 -0.2647 -0.6290 -0.3780
 4996TIP3    H136479   5.159   2.247   2.369 -0.9081 -0.4579 -0.8709
 4996TIP3    H236480   5.043   2.151   2.347 -0.2753 -1.4340 -0.0545
 4997TIP3   OH236481   3.941   4.920  11.289  0.5340  0.0488 -0.4126
 4997TIP3    H136482   3.996   4.876  11.354  0.2226 -0.1167 -0.2579
 4997TIP3    H236483   3.997   4.928  11.212  0.4467 -1.0683 -0.6127
 4998TIP3   OH236484   4.752   3.375   2.861  0.0028  0.4268  0.1378
 4998TIP3    H136485   4.813   3.418   2.801  0.1891 -0.2758 -0.1868
 4998TIP3    H236486   4.774   3.411   2.947  1.2599 -0.2033  0.1158
 4999TIP3   OH236487   0.466   6.560  14.961 -0.1477 -0.0961  0.3768
 4999TIP3    H136488   0.515   6.639  14.984  1.0857 -0.7633  0.0919
 4999TIP3    H236489   0.531   6.490  14.962 -1.0074 -0.9297 -0.4659
 5000TIP3   OH236490   3.869   5.126  15.534  0.1501 -0.5485  0.3235
 5000TIP3    H136491   3.777   5.149  15.532  0.4253  0.6649 -2.1553
 5000TIP3    H236492   3.914   5.207  15.559  0.7047 -0.1371 -1.8301
 5001TIP3   OH236493   0.284   2.989   5.260 -0.1897  0.0635 -0.0667
 5001TIP3    H136494   0.252   3.056   5.320  0.1868 -0.6260  0.9238
 5001TIP3    H236495   0.365   2.958   5.299  0.2100 -0.2019 -1.0828
 5002TIP3   OH236496   0.799   3.391  11.365  0.1057 -0.3646 -0.2754
 5002TIP3    H136497   0.709   3.396  11.331 -0.3669 -0.1955  0.9242
 5002TIP3    H236498   0.792   3.331  11.440  1.3091 -1.5730 -1.0930
 5003TIP3   OH236499   5.915   6.337   6.020  0.2078  0.6199  0.0544
 5003TIP3    H136500   5.995   6.363   5.975  0.0270  0.8451 -0.1342
 5003TIP3    H236501   5.866   6.286   5.955  0.3421  0.2101  0.2694
 5004TIP3   OH236502   1.246   6.091  17.236  0.8118  0.0037 -0.0027
 5004TIP3    H136503   1.276   6.125  17.151  0.0441  0.2060 -0.2019
 5004TIP3    H236504   1.312   6.025  17.260 -0.5261 -2.3724 -2.2681
 5005TIP3   OH236505   6.724   6.794   6.167  0.1723  0.7914 -0.4338
 5005TIP3    H136506   6.818   6.804   6.152  0.2637 -0.6245 -0.9698
 5005TIP3    H236507   6.697   6.878   6.203  2.1178  0.3936  2.2658
 5006TIP3   OH236508   6.046   0.264  16.014  0.4110 -0.4054 -0.3220
 5006TIP3    H136509   5.969   0.282  16.068  0.7085 -2.6294  0.9849
 5006TIP3    H236510   6.012   0.260  15.925 -1.3012 -2.4024  0.3147
 5007TIP3   OH236511   6.244   3.275  14.313  0.8889  0.4086 -0.7940
 5007TIP3    H136512   6.243   3.291  14.218 -1.4408  2.1194 -0.5571
 5007TIP3    H236513   6.284   3.189  14.322 -1.5790 -1.2039 -3.5787
 5008TIP3   OH236514   5.120   6.587   1.083 -0.2976  0.3552 -0.0650
 5008TIP3    H136515   5.150   6.497   1.091  0.9822  0.8663  1.3225
 5008TIP3    H236516   5.030   6.586   1.118 -0.6266 -0.5139 -0.8928
 5009TIP3   OH236517   4.828   5.374   1.766 -0.4842  0.1508 -0.0499
 5009TIP3    H136518   4.819   5.450   1.824 -0.6126  0.8441 -0.9435
 5009TIP3    H236519   4.764   5.311   1.798 -2.0805  1.3576 -0.6978
 5010TIP3   OH236520   3.630   5.936   2.612 -0.2902 -0.2977 -0.0011
 5010TIP3    H136521   3.697   5.998   2.642 -0.7779 -0.2084  0.9604
 5010TIP3    H236522   3.623   5.952   2.518  1.3283 -0.6161 -0.2013
 5011TIP3   OH236523   3.158   5.093  13.098  0.0173 -0.0076  0.4525
 5011TIP3    H136524   3.250   5.069  13.100  0.4915  1.6752  0.2619
 5011TIP3    H236525   3.130   5.090  13.190  0.1135 -0.9793  0.4592
 5012TIP3   OH236526   4.602   2.481   1.371  0.5480 -0.3326 -0.0232
 5012TIP3    H136527   4.630   2.393   1.345  0.0342 -1.4283  2.7258
 5012TIP3    H236528   4.552   2.467   1.452 -2.4579  2.1736 -1.2332
 5013TIP3   OH236529   3.150   0.663   1.290 -0.2545 -0.4156 -0.1854
 5013TIP3    H136530   3.090   0.737   1.294 -0.2847 -0.4810  0.6044
 5013TIP3    H236531   3.184   0.665   1.200 -0.9992 -0.0400 -0.4673
 5014TIP3   OH236532   1.816   3.297   0.629 -0.2490 -0.0393  0.2230
 5014TIP3    H136533   1.842   3.280   0.538 -0.8541  0.5628 -0.0758
 5014TIP3    H236534   1.841   3.389   0.644  0.6439 -0.3898  0.9567
 5015TIP3   OH236535   1.368   6.438   0.097 -0.1316 -0.3159 -0.0771
 5015TIP3    H136536   1.349   6.527   0.127 -1.6851 -0.4241 -0.6493
 5015TIP3    H236537   1.357   6.442   0.002  0.2038 -1.0333 -0.1552
 5016TIP3   OH236538   2.495   2.619   6.519 -0.0605 -0.7785 -0.1398
 5016TIP3    H136539   2.445   2.588   6.595 -1.0067 -0.3362 -0.5659
 5016TIP3    H236540   2.523   2.539   6.475 -0.3605 -1.0376  0.1274
 5017TIP3   OH236541   0.830   0.531  14.647 -0.3129 -0.3913 -0.4008
 5017TIP3    H136542   0.783   0.449  14.663  0.4580 -0.8686 -0.5824
 5017TIP3    H236543   0.796   0.562  14.562 -2.1707  0.5969  0.6240
 5018TIP3   OH236544   3.099   6.479   1.025 -0.5632 -0.0332  0.2705
 5018TIP3    H136545   3.059   6.437   0.949  1.4318  0.8421 -1.3561
 5018TIP3    H236546   3.077   6.572   1.015  2.0881  0.5712 -0.9667
 5019TIP3   OH236547   3.484   0.051   3.352  0.4240  0.5317 -0.3139
 5019TIP3    H136548   3.416   0.056   3.285  0.5320  1.4788 -0.3617
 5019TIP3    H236549   3.492  -0.043   3.371 -1.8937  0.4894  0.7130
 5020TIP3   OH236550   4.134   2.441  10.346 -0.0252  0.0403  0.0960
 5020TIP3    H136551   4.183   2.364  10.376 -2.5812 -1.6654  0.2319
 5020TIP3    H236552   4.052   2.439  10.396 -0.9648  1.8028 -1.2369
 5021TIP3   OH236553   4.066   4.315   2.254 -0.4319 -0.0600  0.1053
 5021TIP3    H136554   4.024   4.253   2.195 -1.4864  1.5935 -0.9512
 5021TIP3    H236555   4.041   4.286   2.342 -1.1374 -0.9462 -0.3819
 5022TIP3   OH236556   6.713   1.381  12.589 -0.2941  0.1386  0.5118
 5022TIP3    H136557   6.749   1.292  12.585  1.4996  0.8691 -1.6239
 5022TIP3    H236558   6.633   1.377  12.536  1.1523  0.2823 -1.8261
 5023TIP3   OH236559   0.373   0.772   1.429 -0.3447  0.0677  0.3303
 5023TIP3    H136560   0.315   0.696   1.426 -0.0532 -0.1567  0.3145
 5023TIP3    H236561   0.352   0.815   1.512  0.6029 -0.9320  1.1237
 5024TIP3   OH236562   6.259   5.825  16.485 -0.2825  0.3179 -0.0332
 5024TIP3    H136563   6.292   5.899  16.536 -1.2553  1.0977 -0.5091
 5024TIP3    H236564   6.337   5.773  16.464  0.2200  0.3536  1.6319
 5025TIP3   OH236565   1.074   4.174  12.072  0.4185 -0.2911 -0.4676
 5025TIP3    H136566   1.102   4.105  12.134  1.7372 -1.2731 -2.0636
 5025TIP3    H236567   1.087   4.135  11.986  1.3737  2.0221 -1.4438
 5026TIP3   OH236568   0.383   2.498   1.725 -0.2870  0.4735  0.2753
 5026TIP3    H136569   0.306   2.542   1.690 -0.3293 -0.2969 -0.6620
 5026TIP3    H236570   0.395   2.422   1.667 -0.7161 -1.2288  2.3019
 5027TIP3   OH236571   3.119   1.745  13.440  0.2610 -0.1092 -0.1313
 5027TIP3    H136572   3.034   1.731  13.481 -0.8164  0.6722 -1.9679
 5027TIP3    H236573   3.175   1.778  13.511 -0.4437 -2.1737  1.4898
 5028TIP3   OH236574   6.232   2.082  13.334  0.2569 -0.3374  0.2611
 5028TIP3    H136575   6.201   2.014  13.393  1.3209 -1.0570  0.0136
 5028TIP3    H236576   6.268   2.150  13.391 -0.6771 -0.0322  0.5013
 5029TIP3   OH236577   0.818   0.714   5.022 -0.4544  0.8041 -0.3390
 5029TIP3    H136578   0.742   0.750   5.068 -0.3158  0.4637  0.1633
 5029TIP3    H236579   0.800   0.732   4.930  0.1214  3.1434 -0.0567
 5030TIP3   OH236580   6.138   0.255  12.183 -0.6405 -0.0981  0.0832
 5030TIP3    H136581   6.174   0.290  12.265  0.6343  0.3559 -0.6393
 5030TIP3    H236582   6.186   0.174  12.168 -0.1850  0.2937 -0.6744
 5031TIP3   OH236583   6.113   4.670  12.318 -0.1683 -0.2584  0.4326
 5031TIP3    H136584   6.104   4.664  12.223  0.1355 -0.7748  0.4283
 5031TIP3    H236585   6.070   4.752  12.342  0.2179  0.1415 -0.2118
 5032TIP3   OH236586   2.377   0.813  16.262  0.2217  0.0756 -0.1811
 5032TIP3    H136587   2.406   0.751  16.328 -0.8190  0.5189  0.7262
 5032TIP3    H236588   2.429   0.892  16.278 -1.9761  1.2269  2.0956
 5033TIP3   OH236589   0.033   1.175   5.403  0.5295 -0.1809 -0.9964
 5033TIP3    H136590   0.115   1.180   5.451  0.2500 -0.0927 -0.5228
 5033TIP3    H236591  -0.026   1.126   5.460  0.1617  0.0155 -1.1989
 5034TIP3   OH236592   1.116   5.178  15.679 -0.7123  0.1614 -0.0343
 5034TIP3    H136593   1.148   5.256  15.724  0.2383 -0.1431 -0.1569
 5034TIP3    H236594   1.045   5.145  15.735 -0.4911  0.5865  0.5025
 5035TIP3   OH236595   1.588   5.836  13.814  0.7295 -0.0597 -0.0536
 5035TIP3    H136596   1.668   5.783  13.810 -0.0759 -1.2730 -0.7990
 5035TIP3    H236597   1.591   5.891  13.736  1.1145  0.3336  0.2325
 5036TIP3   OH236598   4.526   5.722   4.711  0.3353 -0.2041  0.3294
 5036TIP3    H136599   4.562   5.808   4.732 -0.8418  0.3353  0.2741
 5036TIP3    H236600   4.495   5.688   4.795 -1.3521  0.4920  0.0272
 5037TIP3   OH236601   4.234   5.063   5.307  0.2200  0.0871  0.1507
 5037TIP3    H136602   4.206   5.082   5.217 -0.0472 -0.3225  0.1428
 5037TIP3    H236603   4.274   4.977   5.302  2.0369  0.8955  0.0564
 5038TIP3   OH236604   5.178   4.006   0.082 -0.0414 -0.1678 -0.2725
 5038TIP3    H136605   5.226   3.954   0.147  1.0964  0.0208 -0.9303
 5038TIP3    H236606   5.180   3.953   0.003 -1.5926 -0.4804 -0.1326
 5039TIP3   OH236607   1.079   6.499  10.448  0.1897  0.1703  0.1661
 5039TIP3    H136608   1.074   6.572  10.387 -0.0795  0.9115  1.0651
 5039TIP3    H236609   1.095   6.423  10.393 -0.3853  0.7766 -0.8575
 5040TIP3   OH236610   2.435   0.613   1.467  0.0677 -0.3992  0.5890
 5040TIP3    H136611   2.413   0.702   1.437 -1.0669 -0.5780  0.8556
 5040TIP3    H236612   2.475   0.572   1.391  0.7355  0.3868  0.5012
 5041TIP3   OH236613   6.520   5.649  16.511  0.3339 -0.2402 -0.3259
 5041TIP3    H136614   6.545   5.717  16.575  0.2685 -0.0958 -0.4520
 5041TIP3    H236615   6.541   5.567  16.555 -0.8986 -0.1919  0.3903
 5042TIP3   OH236616   4.117   1.322   5.700 -0.4484 -0.0678  0.0251
 5042TIP3    H136617   4.108   1.256   5.769 -0.7290  0.4313  0.4709
 5042TIP3    H236618   4.036   1.373   5.706 -0.6000 -0.1907 -0.8535
 5043TIP3   OH236619   0.290   6.286  12.387  0.3398  0.4249 -0.1386
 5043TIP3    H136620   0.380   6.254  12.388 -0.5405 -2.8467  4.5369
 5043TIP3    H236621   0.247   6.234  12.319  1.9725  3.1367 -3.5972
 5044TIP3   OH236622   1.269   1.871   3.671  0.4071 -0.2734 -0.4229
 5044TIP3    H136623   1.235   1.781   3.670  1.0958 -0.5431  0.0053
 5044TIP3    H236624   1.221   1.915   3.600  1.1302 -1.3869 -1.6524
 5045TIP3   OH236625   2.556   4.863   2.678  0.1858  0.3816  0.5841
 5045TIP3    H136626   2.512   4.832   2.757 -0.2630 -0.4449  0.0189
 5045TIP3    H236627   2.533   4.956   2.672 -1.5559 -0.0355  0.2702
 5046TIP3   OH236628   4.851   1.841  10.691  0.3818 -0.2276 -0.1467
 5046TIP3    H136629   4.869   1.935  10.695 -0.5015 -0.0959  1.3539
 5046TIP3    H236630   4.755   1.835  10.689  0.4175 -1.1144  0.3765
 5047TIP3   OH236631   0.136   4.364   4.002 -0.3281 -0.4275  0.3593
 5047TIP3    H136632   0.156   4.372   4.095 -0.7442 -1.3609  0.5446
 5047TIP3    H236633   0.130   4.269   3.987  1.0901 -0.3557 -0.9091
 5048TIP3   OH236634   0.505   4.733   3.348  0.2076 -0.5330  0.2787
 5048TIP3    H136635   0.473   4.649   3.381 -1.9879  0.3554  0.5587
 5048TIP3    H236636   0.518   4.786   3.427 -0.3661  0.0314  0.0002
 5049TIP3   OH236637   6.032   2.902  14.950  0.1262 -0.0238  0.1594
 5049TIP3    H136638   6.128   2.901  14.949  0.1281  0.1946 -0.1146
 5049TIP3    H236639   6.009   2.864  15.035  0.5033  2.0350  1.2818
 5050TIP3   OH236640   3.255   6.066  14.713 -0.0205 -0.1428  0.2803
 5050TIP3    H136641   3.309   6.145  14.706 -0.2736  0.0086  0.0372
 5050TIP3    H236642   3.255   6.046  14.806  1.1399 -0.6223  0.1916
 5051TIP3   OH236643   6.711   0.035   4.488  0.2111 -0.0049  0.0551
 5051TIP3    H136644   6.799   0.001   4.504  1.1507  1.5492 -1.5270
 5051TIP3    H236645   6.659  -0.044   4.471  0.7289 -1.1385  3.1337
 5052TIP3   OH236646   0.914   6.496  12.968  0.1649 -0.3713  0.0234
 5052TIP3    H136647   0.982   6.545  12.921  0.6970  0.8011  1.8790
 5052TIP3    H236648   0.839   6.556  12.972  0.1333 -0.4413  0.6340
 5053TIP3   OH236649   5.713   4.848   2.415  0.0704 -0.2207  0.3594
 5053TIP3    H136650   5.669   4.851   2.330 -0.8812 -2.3403  0.7031
 5053TIP3    H236651   5.657   4.900   2.472 -0.1637 -0.1173  0.0403
 5054TIP3   OH236652   3.793   1.069   3.144 -0.1812  0.1042  1.1784
 5054TIP3    H136653   3.882   1.065   3.111 -0.3531 -0.9109  0.7861
 5054TIP3    H236654   3.753   0.987   3.116 -1.3746  0.7259  0.9748
 5055TIP3   OH236655   5.629   5.371  12.680 -0.0732  0.5789  0.2034
 5055TIP3    H136656   5.711   5.339  12.719  1.0929  1.5685 -1.3376
 5055TIP3    H236657   5.621   5.322  12.598 -0.0659  1.7785 -0.5266
 5056TIP3   OH236658   3.693   3.963   6.087 -0.6100  0.2895  0.0889
 5056TIP3    H136659   3.602   3.949   6.115 -0.8540  1.7138  0.0899
 5056TIP3    H236660   3.690   3.954   5.992 -1.0453  1.6903 -0.0479
 5057TIP3   OH236661   4.398   0.508  12.026  0.1544  0.6900  0.1912
 5057TIP3    H136662   4.305   0.497  12.008  0.2319  1.6606 -0.9794
 5057TIP3    H236663   4.442   0.460  11.956  0.5806 -0.9912  1.5521
 5058TIP3   OH236664   4.298   4.671   1.969  0.0218 -0.7556 -0.4654
 5058TIP3    H136665   4.261   4.631   2.048 -0.9997 -1.0645 -1.0780
 5058TIP3    H236666   4.263   4.619   1.897  0.3744 -0.0480 -1.1626
 5059TIP3   OH236667   1.033   6.674  12.728 -0.0280  0.4593  0.2899
 5059TIP3    H136668   1.005   6.760  12.758  1.9060  1.1991  0.0834
 5059TIP3    H236669   1.049   6.685  12.634  2.1470  0.4602  0.6129
 5060TIP3   OH236670   1.014   6.683   5.928 -0.1083  0.0935 -0.1616
 5060TIP3    H136671   1.048   6.658   6.013 -0.3720 -0.9612 -0.3525
 5060TIP3    H236672   1.070   6.638   5.865 -0.1295  0.5842 -0.5366
 5061TIP3   OH236673   6.655   4.055  14.952 -0.2207  0.8213 -0.6740
 5061TIP3    H136674   6.612   4.140  14.963 -1.9394  0.1896 -2.1326
 5061TIP3    H236675   6.616   4.018  14.873  0.9695 -1.0615 -0.4375
 5062TIP3   OH236676   4.359   6.454  13.019  0.0154 -0.1111 -0.3185
 5062TIP3    H136677   4.279   6.501  13.039 -0.2465 -0.9218  0.6634
 5062TIP3    H236678   4.426   6.521  13.012 -0.6270  0.5182 -0.5048
 5063TIP3   OH236679   3.985   3.845  11.173 -0.3112 -0.4085 -0.3863
 5063TIP3    H136680   4.018   3.920  11.222 -0.5247 -0.4076 -0.2430
 5063TIP3    H236681   3.985   3.874  11.082 -1.1181  0.0370 -0.2520
 5064TIP3   OH236682   4.448   6.757  12.497  0.5705  0.5111  0.0880
 5064TIP3    H136683   4.494   6.677  12.472 -0.4051  0.1586 -0.6596
 5064TIP3    H236684   4.386   6.729  12.564  0.5980  0.7399  0.2086
 5065TIP3   OH236685   5.466   4.890  13.115  1.0871 -0.1117  0.3693
 5065TIP3    H136686   5.537   4.948  13.088  0.5660  0.5243  0.3372
 5065TIP3    H236687   5.403   4.893  13.043  0.6648 -0.0494  0.7351
 5066TIP3   OH236688   2.314   2.651  16.468  0.1201  0.4150  0.0892
 5066TIP3    H136689   2.334   2.608  16.551  0.1832 -0.4169 -0.3514
 5066TIP3    H236690   2.328   2.745  16.486 -3.5573  0.7652  2.1595
 5067TIP3   OH236691   2.380   5.324  13.389 -0.8199  0.4404 -0.2497
 5067TIP3    H136692   2.433   5.373  13.325  1.0719 -0.5917  0.4476
 5067TIP3    H236693   2.404   5.363  13.473  0.5638 -1.4665  0.2976
 5068TIP3   OH236694   0.387   5.634  13.699  0.3777  0.1089 -0.0154
 5068TIP3    H136695   0.371   5.606  13.609  1.0880  0.1219 -0.1498
 5068TIP3    H236696   0.307   5.680  13.724  0.6128  1.1342 -1.0493
 5069TIP3   OH236697   4.748   4.780  15.399  0.0466 -0.3811 -0.3544
 5069TIP3    H136698   4.719   4.869  15.420 -0.3318 -0.1173 -1.8074
 5069TIP3    H236699   4.772   4.785  15.306 -0.8966 -2.0025 -0.7260
 5070TIP3   OH236700   3.370   4.231  14.735 -0.0018  0.1222 -0.3852
 5070TIP3    H136701   3.289   4.200  14.775 -0.3455  0.7287 -0.5930
 5070TIP3    H236702   3.387   4.315  14.778  0.0708  0.3852 -0.9122
 5071TIP3   OH236703   6.562   5.171  15.652  0.2188 -0.0767  0.3331
 5071TIP3    H136704   6.623   5.218  15.595  0.6982  0.4874  1.2850
 5071TIP3    H236705   6.503   5.125  15.592  0.1304  1.2404 -0.6365
 5072TIP3   OH236706   3.947   0.858  14.356 -0.5450 -0.7592  0.5814
 5072TIP3    H136707   3.929   0.807  14.277  1.3081  0.7826 -0.9468
 5072TIP3    H236708   4.042   0.850  14.368 -0.3028  1.6133  0.7159
 5073TIP3   OH236709   3.849   5.465   0.003 -0.0338  0.1642 -0.0959
 5073TIP3    H136710   3.923   5.524   0.012 -0.1439  0.2519  0.2820
 5073TIP3    H236711   3.852   5.412   0.083  1.0690 -1.5045 -1.1832
 5074TIP3   OH236712   2.168   4.143  12.907  0.4267  0.2054 -0.4489
 5074TIP3    H136713   2.178   4.103  12.821 -1.2496  1.7145 -1.4438
 5074TIP3    H236714   2.106   4.215  12.892 -0.0648  0.4011  2.0634
 5075TIP3   OH236715   0.722   1.201  14.952 -0.0886  0.0412  0.3801
 5075TIP3    H136716   0.711   1.199  15.046  1.8908 -1.0840  0.6557
 5075TIP3    H236717   0.659   1.137  14.918  1.3707 -2.0233  1.2996
 5076TIP3   OH236718   0.495   6.742   5.571  0.0082  0.2637  0.2312
 5076TIP3    H136719   0.575   6.708   5.611 -0.1836  1.4990  1.7722
 5076TIP3    H236720   0.457   6.667   5.525  1.3098 -0.7021  0.6749
 5077TIP3   OH236721   5.697   5.105  15.824  0.0718 -0.0927  0.0735
 5077TIP3    H136722   5.754   5.055  15.765  1.1301 -0.3856  1.3030
 5077TIP3    H236723   5.609   5.085  15.793  0.5207  2.5699 -3.7074
 5078TIP3   OH236724   3.038   3.686   5.640  0.1451 -0.0316  0.1129
 5078TIP3    H136725   3.016   3.602   5.600  0.2161 -0.2916  0.6124
 5078TIP3    H236726   3.073   3.738   5.569 -0.2336 -0.3044 -0.2767
 5079TIP3   OH236727   4.390   1.830  11.817  0.7003 -0.3105  0.0896
 5079TIP3    H136728   4.402   1.922  11.840 -2.7321 -0.0413  1.4284
 5079TIP3    H236729   4.413   1.783  11.897 -2.3697 -0.0882  1.2470
 5080TIP3   OH236730   6.708   5.983  16.009  0.4241  0.5356 -0.2364
 5080TIP3    H136731   6.734   5.897  16.042  0.9140  0.1880 -1.4964
 5080TIP3    H236732   6.790   6.025  15.985  0.0146 -0.1511 -3.2373
 5081TIP3   OH236733   0.996   1.448   2.408 -0.4571  0.0419  0.3647
 5081TIP3    H136734   0.972   1.394   2.483 -1.7361  1.2915  0.9277
 5081TIP3    H236735   1.089   1.434   2.395 -0.1184  0.1053  2.4773
 5082TIP3   OH236736   1.969   1.545   1.163 -0.2470  0.2804  0.0459
 5082TIP3    H136737   2.064   1.549   1.152 -0.5129  0.7535 -2.9679
 5082TIP3    H236738   1.955   1.557   1.257  2.8045 -3.2664  1.1906
 5083TIP3   OH236739   2.884   5.674  12.044 -0.4215  0.5145 -0.8795
 5083TIP3    H136740   2.945   5.745  12.066 -0.7123  0.3653  0.4316
 5083TIP3    H236741   2.867   5.687  11.950  1.9967  0.2639 -1.4171
 5084TIP3   OH236742   1.249   4.712  12.439 -0.3601 -0.2557 -0.1502
 5084TIP3    H136743   1.242   4.732  12.346  0.1778  1.8314  0.2022
 5084TIP3    H236744   1.333   4.668  12.448 -0.1566  0.0468 -0.5670
 5085TIP3   OH236745   1.914   3.710  15.405  0.0214 -0.0474  0.1709
 5085TIP3    H136746   2.010   3.706  15.398 -0.0733  0.4698 -2.0699
 5085TIP3    H236747   1.884   3.625  15.375 -0.2690  0.4183 -0.8906
 5086TIP3   OH236748   5.980   6.201   4.454 -0.2979  0.0351 -0.3808
 5086TIP3    H136749   5.918   6.248   4.510  0.2511  0.9787 -0.5674
 5086TIP3    H236750   5.986   6.253   4.374 -0.8472 -1.1438 -1.2425
 5087TIP3   OH236751   2.913   2.997  16.314  0.4529 -0.6188 -0.6076
 5087TIP3    H136752   2.927   2.966  16.403 -2.3994  0.0144  0.1690
 5087TIP3    H236753   2.966   2.939  16.260  1.5113 -1.6331  1.3875
 5088TIP3   OH236754   6.437   5.252   6.116  0.3336  1.1994  0.2820
 5088TIP3    H136755   6.440   5.291   6.029 -0.0297  0.9814  0.1695
 5088TIP3    H236756   6.346   5.225   6.127  0.5705  0.4332  0.3808
 5089TIP3   OH236757   5.961   0.669   1.036  0.2086  0.0701 -0.3625
 5089TIP3    H136758   5.924   0.580   1.032 -1.5302  0.7759 -0.9957
 5089TIP3    H236759   5.893   0.721   1.079  0.5525  1.3917 -1.3658
 5090TIP3   OH236760   2.299   1.037   4.894  0.1592  0.3025  0.3318
 5090TIP3    H136761   2.385   1.037   4.935  0.1359  1.2925  0.3961
 5090TIP3    H236762   2.238   1.032   4.968  0.1499 -2.1465  0.2319
 5091TIP3   OH236763   6.054   5.945   4.400 -0.0711 -0.0241  0.2217
 5091TIP3    H136764   6.025   5.897   4.478 -0.6384 -0.6245 -0.3517
 5091TIP3    H236765   6.031   6.036   4.419 -0.4261 -0.1986  0.6573
 5092TIP3   OH236766   1.525   4.247  15.242 -0.3251 -0.3371  0.0593
 5092TIP3    H136767   1.442   4.199  15.243  0.3501 -1.5845 -0.8270
 5092TIP3    H236768   1.581   4.199  15.304  0.3549 -0.7139 -0.8264
 5093TIP3   OH236769   1.464   3.324  11.329  0.6783  0.3437 -0.2402
 5093TIP3    H136770   1.534   3.387  11.345  1.6440 -0.3544 -1.4838
 5093TIP3    H236771   1.453   3.278  11.412  0.9431  1.1905  0.2746
 5094TIP3   OH236772   0.642   4.705   0.612  0.6172  0.2459 -0.5859
 5094TIP3    H136773   0.588   4.745   0.681 -0.7054  1.0593 -2.0150
 5094TIP3    H236774   0.717   4.669   0.659  0.2211  1.5295  1.1851
 5095TIP3   OH236775   3.573   3.014   2.081  0.3260 -0.4274 -0.2269
 5095TIP3    H136776   3.507   3.063   2.130  0.9508 -1.9630  2.3486
 5095TIP3    H236777   3.529   2.989   1.999 -1.3915  0.7805  0.2770
 5096TIP3   OH236778   1.188   0.955   5.698  0.3239  0.6847  0.0641
 5096TIP3    H136779   1.207   0.918   5.612 -1.0187  0.1376 -0.0260
 5096TIP3    H236780   1.182   0.879   5.756  1.1351  1.0421  0.6427
 5097TIP3   OH236781   1.385   4.522  10.841 -0.2055 -0.5462  0.4562
 5097TIP3    H136782   1.355   4.517  10.751  0.6771  0.4883  0.0840
 5097TIP3    H236783   1.311   4.492  10.893 -0.7154 -1.1740 -0.6113
 5098TIP3   OH236784   0.359   1.816  16.250  0.3927  0.0260 -0.0163
 5098TIP3    H136785   0.418   1.889  16.269  0.1867 -0.2304  1.8095
 5098TIP3    H236786   0.285   1.856  16.205  1.3013  0.5618 -1.0962
 5099TIP3   OH236787   6.722   4.797  14.178  0.1863  0.3007 -0.2333
 5099TIP3    H136788   6.742   4.870  14.119  0.2010 -0.8335 -1.6773
 5099TIP3    H236789   6.627   4.797  14.183  0.1392 -0.1724 -1.0204
 5100TIP3   OH236790   3.190   4.349  11.540 -0.0262  0.3045  0.1135
 5100TIP3    H136791   3.227   4.348  11.628 -0.0769 -3.2394  0.2469
 5100TIP3    H236792   3.167   4.440  11.525  2.9388  1.6147  2.4551
 5101TIP3   OH236793   0.849   3.917  14.774 -0.1355  0.3495  0.0129
 5101TIP3    H136794   0.852   3.863  14.695 -1.0378  1.1886 -0.6327
 5101TIP3    H236795   0.801   3.865  14.838  2.9130 -1.4851  1.0047
 5102TIP3   OH236796   4.695   2.481  10.494  0.2633  0.3463  0.9458
 5102TIP3    H136797   4.745   2.550  10.537 -0.5248  0.6488  1.4005
 5102TIP3    H236798   4.732   2.476  10.406  0.8933  0.7618  1.1799
 5103TIP3   OH236799   4.267   3.475   4.675 -0.2087 -0.5039  0.0761
 5103TIP3    H136800   4.239   3.565   4.689 -1.1430 -0.9735  1.4724
 5103TIP3    H236801   4.308   3.475   4.589 -2.2166  0.7701 -0.9376
 5104TIP3   OH236802   5.907   3.906   0.725  0.2737 -0.1155  0.2396
 5104TIP3    H136803   5.959   3.919   0.646  0.0797 -0.4350  0.0574
 5104TIP3    H236804   5.816   3.907   0.694  0.2336 -2.2557  0.1374
 5105TIP3   OH236805   4.364   4.045  16.295 -0.0829  0.1255 -0.0785
 5105TIP3    H136806   4.279   4.019  16.330 -0.8812  3.4721  0.8837
 5105TIP3    H236807   4.417   4.066  16.372  2.2033 -3.1210 -0.5859
 5106TIP3   OH236808   5.770   5.013   1.504  0.2520  0.1024  0.8315
 5106TIP3    H136809   5.686   5.054   1.526 -0.1979 -0.8699  0.9923
 5106TIP3    H236810   5.752   4.919   1.506  0.9592 -0.1000 -0.6711
 5107TIP3   OH236811   2.044   3.114  13.698  0.0828 -0.0617  0.3170
 5107TIP3    H136812   1.967   3.063  13.724  0.8228 -0.0357  2.9067
 5107TIP3    H236813   2.008   3.186  13.646 -1.7321  0.1440  1.7269
 5108TIP3   OH236814   2.990   0.039   4.041 -0.4022  1.1400  0.0302
 5108TIP3    H136815   3.070   0.022   3.992  0.2798  1.2002  1.0854
 5108TIP3    H236816   2.953   0.117   4.001 -0.2815  0.7529 -0.8679
 5109TIP3   OH236817   3.604   4.767   2.992 -0.2515  0.3824 -0.3809
 5109TIP3    H136818   3.605   4.689   3.048  0.2588  0.6252 -0.0469
 5109TIP3    H236819   3.659   4.830   3.038 -0.6658  0.9437 -0.6489
 5110TIP3   OH236820   1.280   1.223   0.395  0.0545 -0.1649  0.3627
 5110TIP3    H136821   1.251   1.177   0.474 -0.7261  2.0819  1.4994
 5110TIP3    H236822   1.376   1.217   0.398  0.0077 -0.7500  1.0663
 5111TIP3   OH236823   6.122   2.409   4.917  0.1470  0.5786  0.6795
 5111TIP3    H136824   6.107   2.348   4.845 -0.1417  1.3766  0.0423
 5111TIP3    H236825   6.038   2.454   4.928  0.1812  0.4501  1.5396
 5112TIP3   OH236826   4.876   0.405  10.533  0.1120 -0.1332  0.2217
 5112TIP3    H136827   4.855   0.390  10.625 -0.9820 -0.8177 -0.1248
 5112TIP3    H236828   4.846   0.494  10.516  1.2010  0.3527  0.7626
 5113TIP3   OH236829   4.102   3.037   6.432  0.1818 -0.1998  0.0467
 5113TIP3    H136830   4.085   3.129   6.412 -0.2250 -0.1961  0.3919
 5113TIP3    H236831   4.194   3.034   6.458  0.4654 -0.0536 -0.8903
 5114TIP3   OH236832   2.782   4.628  12.955  0.4744 -0.3030 -0.3685
 5114TIP3    H136833   2.756   4.566  12.886  1.1690 -0.6608 -0.3148
 5114TIP3    H236834   2.735   4.597  13.033 -0.6938  0.3863 -0.7695
 5115TIP3   OH236835   2.993   3.563   0.062  0.0004  0.1414  0.3359
 5115TIP3    H136836   2.942   3.607  -0.006  0.1774  1.2460  0.9025
 5115TIP3    H236837   3.079   3.603   0.057  0.5446 -1.0158  0.0545
 5116TIP3   OH236838   1.876   6.698  14.351 -0.1981 -0.3586 -0.9494
 5116TIP3    H136839   1.873   6.777  14.405 -0.9290  0.3587 -1.9985
 5116TIP3    H236840   1.968   6.688  14.327 -0.1533  0.3751 -1.0928
 5117TIP3   OH236841   4.605   2.672   2.902 -0.0398 -0.4261  0.3126
 5117TIP3    H136842   4.579   2.764   2.911 -0.6759 -0.5935  0.2244
 5117TIP3    H236843   4.543   2.636   2.839  1.1761 -0.5339 -0.8592
 5118TIP3   OH236844   4.308   0.323   5.143  0.7153 -0.5916 -0.3887
 5118TIP3    H136845   4.234   0.265   5.123  0.2967  0.0413 -0.7100
 5118TIP3    H236846   4.385   0.276   5.110  0.0948  0.2910 -3.4439
 5119TIP3   OH236847   4.640   6.145   5.839  0.3448  0.2015  0.4486
 5119TIP3    H136848   4.657   6.162   5.746 -0.1655 -0.3457  0.2482
 5119TIP3    H236849   4.651   6.230   5.881  0.4955  0.4738 -0.1271
 5120TIP3   OH236850   4.589   4.443  17.090 -0.3207 -0.7217 -0.5177
 5120TIP3    H136851   4.499   4.459  17.062 -0.0835  1.5344 -0.1825
 5120TIP3    H236852   4.641   4.454  17.010 -0.2929 -1.6849 -0.6418
 5121TIP3   OH236853   6.128   2.955   0.960 -0.1037  0.1610 -0.5912
 5121TIP3    H136854   6.123   3.041   1.001 -1.6374  0.3229 -1.0656
 5121TIP3    H236855   6.071   2.962   0.883  0.3317 -1.0578 -1.0480
 5122TIP3   OH236856   2.901   2.826   2.522 -0.4656 -0.4471 -0.0226
 5122TIP3    H136857   2.895   2.754   2.584 -2.2219  2.1358  3.1482
 5122TIP3    H236858   2.992   2.825   2.492 -0.2662 -3.4615  0.4451
 5123TIP3   OH236859   4.851   1.996   1.912  1.0209  0.2891  0.6135
 5123TIP3    H136860   4.788   2.034   1.973  0.4368  2.3445 -1.1271
 5123TIP3    H236861   4.803   1.990   1.829  2.5618  0.1827 -0.3110
 5124TIP3   OH236862   2.245   5.848  10.989  0.3111 -0.1298  0.9746
 5124TIP3    H136863   2.336   5.861  11.017  1.3278  0.1584 -2.0978
 5124TIP3    H236864   2.200   5.928  11.014  1.4995  0.7109  0.5099
 5125TIP3   OH236865   6.697   5.703   3.869  0.6518  0.5412 -0.0248
 5125TIP3    H136866   6.636   5.743   3.806  0.2116  0.2799  0.2326
 5125TIP3    H236867   6.765   5.769   3.880  2.1165 -0.3606 -2.6999
 5126TIP3   OH236868   6.592   0.385  11.817 -0.1116  0.3894 -0.2189
 5126TIP3    H136869   6.524   0.329  11.854 -2.0576  2.3568 -0.6387
 5126TIP3    H236870   6.625   0.336  11.741  1.5136 -2.1393  1.9485
 5127TIP3   OH236871   4.768   6.334   1.094 -0.0561 -0.3555  0.4407
 5127TIP3    H136872   4.790   6.355   1.003 -1.2227  0.6189  0.3451
 5127TIP3    H236873   4.843   6.364   1.144 -0.9411  2.8503  0.1347
 5128TIP3   OH236874   5.595   6.672   5.861  0.7186  0.0085 -0.2432
 5128TIP3    H136875   5.661   6.654   5.794  1.3787  1.7211 -0.1099
 5128TIP3    H236876   5.623   6.620   5.937  1.4742  0.1058 -0.4478
 5129TIP3   OH236877   2.694   1.762  16.999 -0.4003 -0.0695  0.0945
 5129TIP3    H136878   2.734   1.771  16.913 -1.6412  0.8770 -0.4242
 5129TIP3    H236879   2.614   1.711  16.983 -1.0358  0.7617  0.5357
 5130TIP3   OH236880   0.971   3.806  16.821 -0.5959 -0.8347 -0.0257
 5130TIP3    H136881   0.996   3.735  16.762  0.4199 -0.2211 -0.3656
 5130TIP3    H236882   1.041   3.808  16.887 -0.7906 -0.3678  0.1728
 5131TIP3   OH236883   2.342   1.548  16.308  0.0756  0.0628 -0.5350
 5131TIP3    H136884   2.355   1.492  16.385 -1.4822 -1.4619 -1.2971
 5131TIP3    H236885   2.279   1.614  16.338  0.9477  0.6601  0.0177
 5132TIP3   OH236886   5.455   5.033   4.809  0.3978  0.4290 -0.1099
 5132TIP3    H136887   5.387   4.981   4.852 -0.4921  2.4178  1.0057
 5132TIP3    H236888   5.527   5.035   4.873  0.5601  0.3409 -0.2857
 5133TIP3   OH236889   4.839   1.133  16.037 -0.1551  0.4832  0.1173
 5133TIP3    H136890   4.821   1.227  16.033 -1.6950  0.1761 -1.0053
 5133TIP3    H236891   4.931   1.126  16.014  0.1100  1.7491  0.6739
 5134TIP3   OH236892   2.147   1.044  15.719  0.0703  0.8690 -0.0187
 5134TIP3    H136893   2.145   1.099  15.797  2.0419  0.6956  0.1988
 5134TIP3    H236894   2.084   0.974  15.737 -0.5961  1.6480  0.7628
 5135TIP3   OH236895   5.791   5.689   4.279 -0.0508  0.2622 -0.8853
 5135TIP3    H136896   5.831   5.724   4.200 -0.8862  1.8409 -0.6460
 5135TIP3    H236897   5.719   5.749   4.299  0.5232  0.3015  1.4234
 5136TIP3   OH236898   6.561   1.980  14.184  0.8234  0.2496 -0.1122
 5136TIP3    H136899   6.532   1.893  14.156  2.0817  0.0251 -0.7987
 5136TIP3    H236900   6.560   2.032  14.103 -0.5275  1.0832  0.3969
 5137TIP3   OH236901   4.480   5.531  12.012  0.3407  0.4455  0.2559
 5137TIP3    H136902   4.555   5.575  11.973 -1.0963  2.0089 -0.8610
 5137TIP3    H236903   4.408   5.545  11.950 -1.0037 -0.6137  1.4949
 5138TIP3   OH236904   1.424   0.005   1.570  0.4147 -0.5124  0.0301
 5138TIP3    H136905   1.347  -0.052   1.572 -0.3229  0.3815 -1.1809
 5138TIP3    H236906   1.498  -0.055   1.567 -0.3775 -1.5176 -2.6483
 5139TIP3   OH236907   3.567   5.983   0.576 -0.4556 -0.1908 -0.0805
 5139TIP3    H136908   3.483   5.971   0.620  0.1067  2.3571  1.9250
 5139TIP3    H236909   3.561   6.071   0.537  1.4095  0.2501  0.5243
 5140TIP3   OH236910   1.891   0.728  12.459 -0.4390  0.3686 -0.5137
 5140TIP3    H136911   1.895   0.715  12.554  0.4339  3.0645 -0.0858
 5140TIP3    H236912   1.962   0.673  12.425  0.9708  1.3350  0.7161
 5141TIP3   OH236913   1.651   1.967  12.288  0.0591  0.2992  0.0114
 5141TIP3    H136914   1.604   1.907  12.347  0.2454 -1.6077 -1.6715
 5141TIP3    H236915   1.615   2.053  12.307 -0.5705 -0.3848  2.2081
 5142TIP3   OH236916   4.959   5.744  12.868  1.0844 -0.0072 -0.3026
 5142TIP3    H136917   5.043   5.779  12.897  0.7605  0.2566  0.3432
 5142TIP3    H236918   4.979   5.698  12.786  2.0891 -1.0287  0.4847
 5143TIP3   OH236919   5.609   4.178  11.094 -0.2457 -0.2325 -0.0102
 5143TIP3    H136920   5.688   4.227  11.069 -0.5634  0.5955  0.5587
 5143TIP3    H236921   5.586   4.128  11.015  1.5763 -1.5246  0.2122
 5144TIP3   OH236922   6.079   1.082   4.331  0.0265  0.2333  0.0173
 5144TIP3    H136923   6.033   1.160   4.362  0.8194  0.3878  0.8593
 5144TIP3    H236924   6.170   1.096   4.358  0.4352 -0.3796 -0.9923
 5145TIP3   OH236925   3.087   6.537   1.790 -0.6737 -0.3431  0.2473
 5145TIP3    H136926   3.091   6.617   1.738  0.5329 -0.1117  0.6571
 5145TIP3    H236927   3.166   6.540   1.844 -0.7973 -1.6349  0.5312
 5146TIP3   OH236928   2.236   2.564  15.936  0.7066 -0.0702  0.6057
 5146TIP3    H136929   2.212   2.623  15.864 -0.3197 -0.1834  0.8340
 5146TIP3    H236930   2.173   2.586  16.005  2.3382  0.7906  1.8866
 5147TIP3   OH236931   2.909   6.731   3.758  0.3817  0.5408  0.1043
 5147TIP3    H136932   2.883   6.757   3.669  0.8347 -1.0885 -0.5414
 5147TIP3    H236933   2.831   6.745   3.811 -0.1922  0.6516 -0.7489
 5148TIP3   OH236934   3.019   2.979   6.067  0.1379 -0.2038  0.7909
 5148TIP3    H136935   3.004   2.887   6.043 -0.0287  0.4245 -1.7010
 5148TIP3    H236936   3.113   2.983   6.087  0.3531 -0.7084 -0.0879
 5149TIP3   OH236937   5.697   3.377  13.236  0.1679 -0.2565 -0.1893
 5149TIP3    H136938   5.694   3.466  13.271  0.6989  0.7326 -2.4608
 5149TIP3    H236939   5.779   3.340  13.269  0.2540  0.3319  0.2511
 5150TIP3   OH236940   5.173   0.845   1.792 -0.0395  0.3865 -0.2187
 5150TIP3    H136941   5.229   0.869   1.717 -0.9727 -2.7896 -2.1448
 5150TIP3    H236942   5.085   0.872   1.765 -0.0846  1.3525  0.8374
 5151TIP3   OH236943   4.301   2.772   1.189 -0.1041  0.3433 -0.2569
 5151TIP3    H136944   4.389   2.807   1.206 -1.0153  1.9206  1.5642
 5151TIP3    H236945   4.311   2.678   1.202  1.3222  0.4827 -0.0978
 5152TIP3   OH236946   1.354   0.824   1.442  0.1624 -0.1836  0.0903
 5152TIP3    H136947   1.292   0.764   1.402 -0.7678  1.4848 -1.0808
 5152TIP3    H236948   1.392   0.872   1.368 -0.2181  1.6813  1.0471
 5153TIP3   OH236949   1.422   3.532   1.769 -0.0306  0.1360  0.2327
 5153TIP3    H136950   1.513   3.556   1.752  0.1491 -1.4983 -1.4050
 5153TIP3    H236951   1.371   3.581   1.705  0.1744 -2.1763 -1.8626
 5154TIP3   OH236952   6.379   3.786   0.055  0.3167 -0.2844 -0.0800
 5154TIP3    H136953   6.466   3.795   0.014  0.2380 -0.9426 -0.4114
 5154TIP3    H236954   6.351   3.876   0.073  1.5656 -0.0931  1.0988
 5155TIP3   OH236955   1.064   3.874   3.332  0.3155  0.3653 -0.0230
 5155TIP3    H136956   1.045   3.780   3.332  0.0336  0.3862 -1.4244
 5155TIP3    H236957   1.151   3.881   3.371  2.1018 -0.9552 -3.3201
 5156TIP3   OH236958   1.430   4.296  12.961  0.0639  0.0181  0.1844
 5156TIP3    H136959   1.454   4.313  13.052 -0.1648  1.0714  0.0565
 5156TIP3    H236960   1.467   4.210  12.942 -0.3861 -0.4844  1.4546
 5157TIP3   OH236961   1.795   5.289   5.024 -0.4174 -0.5320  0.0324
 5157TIP3    H136962   1.832   5.228   5.089 -0.1624 -0.3079  0.0995
 5157TIP3    H236963   1.744   5.233   4.965 -0.5623 -0.7530  0.3628
 5158TIP3   OH236964   0.221   3.825   2.561 -0.1721 -0.7530 -0.3309
 5158TIP3    H136965   0.281   3.764   2.605 -0.4478 -0.8032 -0.0194
 5158TIP3    H236966   0.154   3.769   2.521  0.1732 -0.7196 -0.9760
 5159TIP3   OH236967   5.211   2.845   3.689 -0.1401 -0.3226  0.8480
 5159TIP3    H136968   5.285   2.840   3.629 -0.4006 -0.3136  0.5223
 5159TIP3    H236969   5.139   2.878   3.635 -1.5050 -4.0841  0.1079
 5160TIP3   OH236970   4.768   1.356   0.613 -0.1193 -0.3437 -0.3762
 5160TIP3    H136971   4.842   1.382   0.558 -0.5668  2.7528  0.2911
 5160TIP3    H236972   4.692   1.365   0.556 -0.2577 -0.6417 -0.2403
 5161TIP3   OH236973   5.526   1.360   2.593 -0.0438  0.2594  0.6390
 5161TIP3    H136974   5.538   1.453   2.611  0.8411 -0.0947  2.0132
 5161TIP3    H236975   5.518   1.355   2.498 -0.0075  1.7229  0.5362
 5162TIP3   OH236976   6.126   3.204  13.787 -0.0904 -0.6379  0.3036
 5162TIP3    H136977   6.070   3.282  13.795  0.5129  0.0901 -1.7756
 5162TIP3    H236978   6.086   3.154  13.715  0.1855 -1.6766  0.8561
 5163TIP3   OH236979   3.350   6.376  16.318  0.3906 -0.0336  0.0925
 5163TIP3    H136980   3.387   6.464  16.310 -0.2307  0.3410  1.0893
 5163TIP3    H236981   3.280   6.374  16.253  0.5809  0.1093 -0.1181
 5164TIP3   OH236982   0.186   6.624   4.252 -0.3325 -0.3447 -0.0282
 5164TIP3    H136983   0.158   6.608   4.162  0.4716 -0.7314 -0.2176
 5164TIP3    H236984   0.249   6.696   4.246  0.3960 -0.9546  0.1011
 5165TIP3   OH236985   2.810   5.532  16.044 -0.7594 -0.1569  0.1573
 5165TIP3    H136986   2.813   5.582  15.963  1.0776 -1.3343 -0.5676
 5165TIP3    H236987   2.763   5.588  16.106 -0.1811  1.7358 -1.0494
 5166TIP3   OH236988   1.432   0.158  16.140 -0.1993  0.0716 -0.0596
 5166TIP3    H136989   1.397   0.212  16.069  0.0678 -0.2926 -0.4810
 5166TIP3    H236990   1.527   0.164  16.130 -0.1284  0.9753  1.0147
 5167TIP3   OH236991   4.926   6.289  16.596 -0.1524  0.0056  0.1721
 5167TIP3    H136992   4.912   6.207  16.644 -2.5617 -0.6238 -1.4484
 5167TIP3    H236993   4.852   6.344  16.620  1.3008  1.6719  1.0243
 5168TIP3   OH236994   3.365   5.757  11.846 -0.0788  0.1472  0.0859
 5168TIP3    H136995   3.387   5.816  11.918  0.6635 -0.4534  0.3676
 5168TIP3    H236996   3.315   5.686  11.887 -1.0075  0.5847 -0.2588
 5169TIP3   OH236997   5.679   3.445   0.320  0.4359  0.2376  0.1327
 5169TIP3    H136998   5.762   3.397   0.323  0.0145 -0.5787 -0.6939
 5169TIP3    H236999   5.617   3.383   0.280 -0.4705  0.9817  0.3489
 5170TIP3   OH237000   5.026   1.364   5.502 -0.2611  0.3969 -0.4371
 5170TIP3    H137001   5.004   1.417   5.579  0.9616  1.9187 -1.0906
 5170TIP3    H237002   4.972   1.401   5.432 -0.0285  0.2105 -0.7134
 5171TIP3   OH237003   3.080   0.471   4.377  0.6084 -0.4514  0.1576
 5171TIP3    H137004   3.065   0.389   4.424  0.2996 -0.4977 -0.0142
 5171TIP3    H237005   3.073   0.448   4.285 -1.3630  0.0778  0.1109
 5172TIP3   OH237006   0.574   3.481   5.578 -0.0237  0.0339 -0.2294
 5172TIP3    H137007   0.566   3.485   5.483  0.3599  1.7742 -0.2271
 5172TIP3    H237008   0.509   3.416   5.605  1.2155 -1.9797 -1.8017
 5173TIP3   OH237009   4.419   6.709   5.280  0.0177 -0.5280 -0.3811
 5173TIP3    H137010   4.369   6.712   5.198  0.3474 -0.4665 -0.5859
 5173TIP3    H237011   4.461   6.795   5.285  0.9766 -0.9574 -0.7788
 5174TIP3   OH237012   5.777   2.094   6.849  0.2550  0.1927 -0.0671
 5174TIP3    H137013   5.733   2.021   6.806  1.3878 -1.4305  1.3801
 5174TIP3    H237014   5.867   2.091   6.815  0.7878 -0.2520  1.3113
 5175TIP3   OH237015   5.537   1.933  12.350  1.0557 -0.0171 -0.1348
 5175TIP3    H137016   5.455   1.887  12.370  0.0862  1.9007  0.5098
 5175TIP3    H237017   5.570   1.888  12.272 -0.4433 -1.0460 -0.2328
 5176TIP3   OH237018   6.108   3.471  11.571 -0.3608 -0.7720  0.2587
 5176TIP3    H137019   6.144   3.448  11.656  0.0081 -1.2381 -0.0165
 5176TIP3    H237020   6.078   3.562  11.580 -0.8820 -1.0145  1.0577
 5177TIP3   OH237021   3.461   0.505  11.393 -0.1277 -0.1482  0.1919
 5177TIP3    H137022   3.511   0.497  11.312 -0.3122  0.2208  0.0426
 5177TIP3    H237023   3.479   0.594  11.424  2.5274 -1.2562  2.2512
 5178TIP3   OH237024   6.491   6.364   0.425 -0.5982 -0.1628  0.3461
 5178TIP3    H137025   6.576   6.375   0.467 -1.2555  2.9215  1.1256
 5178TIP3    H237026   6.511   6.353   0.333  0.6743  0.1456  0.5633
 5179TIP3   OH237027   3.206   1.907  15.463 -0.2621  0.6697  0.0383
 5179TIP3    H137028   3.241   1.990  15.496 -0.4131  1.0377 -0.6982
 5179TIP3    H237029   3.112   1.912  15.480 -0.0749 -0.0191  1.3825
 5180TIP3   OH237030   6.300   0.900   0.238 -0.1976  0.1463 -0.2798
 5180TIP3    H137031   6.382   0.868   0.275  0.6928 -0.0368 -2.2967
 5180TIP3    H237032   6.241   0.907   0.313  0.8857 -2.0740  0.8653
 5181TIP3   OH237033   5.545   5.903   5.627 -0.0698  0.0105 -0.4488
 5181TIP3    H137034   5.492   5.915   5.706  0.6155  0.6860 -0.0759
 5181TIP3    H237035   5.516   5.972   5.568  1.4037  1.3766  0.3363
 5182TIP3   OH237036   1.265   2.642   0.485  0.1263 -0.6255 -0.3776
 5182TIP3    H137037   1.311   2.676   0.562 -0.2697  0.6751 -0.6904
 5182TIP3    H237038   1.281   2.548   0.488  1.7673 -0.3672  0.1990
 5183TIP3   OH237039   5.877   1.942  15.051  0.2593 -0.5630 -0.1391
 5183TIP3    H137040   5.907   1.872  14.993 -0.0297 -0.8330  0.0330
 5183TIP3    H237041   5.792   1.912  15.083  0.1555 -0.1571 -0.0193
 5184TIP3   OH237042   3.699   1.404   0.454 -0.0328 -0.2684  0.7927
 5184TIP3    H137043   3.605   1.399   0.433 -0.2054  2.6540  0.4283
 5184TIP3    H237044   3.740   1.433   0.372  0.9129  0.3147  1.4540
 5185TIP3   OH237045   5.763   5.692   3.828  0.3834  0.4830  0.1651
 5185TIP3    H137046   5.856   5.669   3.829  0.3027  0.1470  0.2528
 5185TIP3    H237047   5.761   5.786   3.845  0.5495 -0.0190  3.8435
 5186TIP3   OH237048   6.026   1.510   2.124 -0.1026 -0.3163 -0.1841
 5186TIP3    H137049   6.054   1.602   2.130  1.7569 -0.6444 -2.3429
 5186TIP3    H237050   5.951   1.512   2.064 -0.1948 -0.1796 -0.0650
 5187TIP3   OH237051   5.445   2.827   4.328  0.6579  0.1293 -0.0008
 5187TIP3    H137052   5.380   2.761   4.354  1.0143 -0.0318  0.5018
 5187TIP3    H237053   5.528   2.779   4.327  1.2217  0.9521  2.1585
 5188TIP3   OH237054   3.751   2.597   2.029  0.0810  0.7450  0.1117
 5188TIP3    H137055   3.820   2.632   1.973 -0.1421  0.2674 -0.4686
 5188TIP3    H237056   3.670   2.632   1.993 -0.1232 -0.1310 -0.3169
 5189TIP3   OH237057   2.112   2.408   2.257 -0.0068 -0.2132 -0.2109
 5189TIP3    H137058   2.130   2.314   2.250  1.7638 -0.0179  1.0836
 5189TIP3    H237059   2.036   2.413   2.314  0.6179 -0.8491  0.7152
 5190TIP3   OH237060   1.340   3.975  11.753  0.7346  0.0262  0.0483
 5190TIP3    H137061   1.372   4.009  11.669 -1.3107 -2.0087 -1.6763
 5190TIP3    H237062   1.330   3.881  11.739  1.0099 -0.5085  2.8597
 5191TIP3   OH237063   1.982   5.816   0.984 -0.3093  0.2363  0.1815
 5191TIP3    H137064   1.984   5.759   0.907  1.8530  1.8666 -1.0845
 5191TIP3    H237065   2.003   5.759   1.058  3.7664 -0.4702 -1.2583
 5192TIP3   OH237066   4.296   1.760   5.999 -0.6332 -0.3310  0.0495
 5192TIP3    H137067   4.282   1.853   5.977 -0.9902  0.0473  1.7610
 5192TIP3    H237068   4.297   1.716   5.914  1.8974  1.5151 -0.9927
 5193TIP3   OH237069   0.198   2.827  16.602  0.5499  0.2179  0.1222
 5193TIP3    H137070   0.190   2.897  16.667 -1.1264 -0.2584  0.4839
 5193TIP3    H237071   0.180   2.747  16.652  1.9108 -0.4453 -0.3950
 5194TIP3   OH237072   0.990   5.087  17.044  0.7367  0.1272  0.0625
 5194TIP3    H137073   1.048   5.149  17.088  0.9072 -1.4817  2.2522
 5194TIP3    H237074   0.903   5.110  17.076  0.8426 -0.9504  1.1857
 5195TIP3   OH237075   0.434   1.495   6.388  0.3824 -0.3236 -0.3795
 5195TIP3    H137076   0.456   1.587   6.400  0.7723 -0.3381 -0.9246
 5195TIP3    H237077   0.494   1.465   6.320  0.8174 -1.1839  0.3457
 5196TIP3   OH237078   3.084   5.112  14.452  0.0350  0.0771  0.0432
 5196TIP3    H137079   3.145   5.094  14.523  1.5603  0.3568 -1.1388
 5196TIP3    H237080   3.040   5.028  14.436 -0.1963 -0.0248  1.1789
 5197TIP3   OH237081   0.537   6.092  14.903 -0.4186 -0.2057  0.2239
 5197TIP3    H137082   0.518   6.083  14.810  0.0716 -0.3372  0.1328
 5197TIP3    H237083   0.564   6.005  14.932  0.3848  0.0402  0.2569
 5198TIP3   OH237084   1.625   4.608   6.190  0.0278 -0.5908  0.6432
 5198TIP3    H137085   1.667   4.636   6.109  2.1764 -1.0094  1.5326
 5198TIP3    H237086   1.537   4.581   6.164 -0.1268  1.3819 -1.1559
 5199TIP3   OH237087   1.966   0.094   5.741  0.1546 -0.7344  0.4995
 5199TIP3    H137088   1.987   0.095   5.648  1.4940 -0.9209  0.7841
 5199TIP3    H237089   1.964   0.186   5.766 -0.7896 -0.6576  0.1731
 5200TIP3   OH237090   2.719   2.206  16.529 -0.1997  0.0228  0.4502
 5200TIP3    H137091   2.634   2.243  16.506 -0.4394  0.2185  1.5897
 5200TIP3    H237092   2.711   2.184  16.622  1.4555  1.3554  0.9603
 5201TIP3   OH237093   2.391   4.783  13.270 -0.3129 -0.6358  0.6292
 5201TIP3    H137094   2.393   4.841  13.346 -0.6628  0.7299 -0.3523
 5201TIP3    H237095   2.325   4.822  13.212  0.9767 -0.7746 -1.0142
 5202TIP3   OH237096   2.015   5.701  10.934 -0.4528 -0.1492  0.3072
 5202TIP3    H137097   2.105   5.714  10.963 -0.2760 -1.1725  0.2721
 5202TIP3    H237098   1.965   5.766  10.982  0.2356  0.0813  0.7328
 5203TIP3   OH237099   3.748   4.861  16.868  0.2956  0.3833  0.5641
 5203TIP3    H137100   3.825   4.832  16.819  0.3893 -1.4298  1.7144
 5203TIP3    H237101   3.766   4.836  16.958 -2.0266 -0.9334  0.7228
 5204TIP3   OH237102   4.799   6.089   4.057  0.1644  0.4451  0.7892
 5204TIP3    H137103   4.861   6.034   4.009 -1.1689  0.3848 -0.9539
 5204TIP3    H237104   4.852   6.161   4.091  1.1512  0.7084 -1.1493
 5205TIP3   OH237105   3.535   0.781   3.773 -0.6357  0.2787  0.0411
 5205TIP3    H137106   3.463   0.817   3.825 -0.7014  1.3127 -0.7267
 5205TIP3    H237107   3.582   0.859   3.741 -0.6309 -0.3124 -1.4821
 5206TIP3   OH237108   5.519   5.840  17.243 -0.6745 -0.0825 -0.4262
 5206TIP3    H137109   5.440   5.857  17.294 -1.6764  0.1694 -2.0214
 5206TIP3    H237110   5.542   5.925  17.206  1.0707  0.1121  0.9481
 5207TIP3   OH237111   4.335   4.536   6.033  0.0773  0.6971  0.3718
 5207TIP3    H137112   4.317   4.629   6.043  0.8131  0.9836 -0.7379
 5207TIP3    H237113   4.257   4.501   5.990 -1.9594 -0.0432  4.2431
 5208TIP3   OH237114   6.680   3.478  11.380 -0.0825 -0.7950 -0.3476
 5208TIP3    H137115   6.600   3.425  11.379 -1.1036  0.6266  0.6125
 5208TIP3    H237116   6.747   3.420  11.416 -0.2891 -2.4556 -2.4610
 5209TIP3   OH237117   1.241   1.203  11.911 -0.2600  0.0368  0.3231
 5209TIP3    H137118   1.337   1.211  11.915  0.0282 -1.9840 -0.9283
 5209TIP3    H237119   1.226   1.143  11.837 -2.5235  0.6810  0.2136
 5210TIP3   OH237120   0.371   6.311  16.224 -0.7321 -0.5155  0.4205
 5210TIP3    H137121   0.318   6.319  16.304 -1.9046 -1.6287 -0.2012
 5210TIP3    H237122   0.408   6.222  16.229 -0.1385 -0.2886  0.1144
 5211TIP3   OH237123   5.975   2.732  15.820 -0.0339  0.6115  0.1135
 5211TIP3    H137124   6.063   2.701  15.798  0.1447  1.5427 -0.5616
 5211TIP3    H237125   5.988   2.822  15.852 -0.6798  0.5520  0.5737
 5212TIP3   OH237126   5.960   2.680  11.512 -0.5479 -0.0541  0.5796
 5212TIP3    H137127   5.887   2.691  11.451  1.3370 -1.2527 -2.0997
 5212TIP3    H237128   6.036   2.668  11.455  1.6382  0.3617  3.2329
 5213TIP3   OH237129   2.408   2.263  16.794  0.5767  0.1429 -0.3004
 5213TIP3    H137130   2.465   2.209  16.739  1.2054  1.3071 -0.8363
 5213TIP3    H237131   2.327   2.271  16.744  1.3392  1.6494 -1.3715
 5214TIP3   OH237132   4.441   5.423  16.437 -0.5101 -0.1695 -0.2299
 5214TIP3    H137133   4.409   5.407  16.348 -2.1646 -0.6534  0.4075
 5214TIP3    H237134   4.452   5.335  16.474  0.7788  0.0150 -0.1414
 5215TIP3   OH237135   3.367   2.303   0.328 -0.1742 -0.0250 -0.3398
 5215TIP3    H137136   3.278   2.334   0.345  0.3709  1.7553 -0.6386
 5215TIP3    H237137   3.356   2.237   0.260 -1.4779 -1.4435  1.1304
 5216TIP3   OH237138   0.298   4.972  15.572  0.0538 -0.0708  0.2644
 5216TIP3    H137139   0.253   5.020  15.641  1.1873  0.0547  0.9460
 5216TIP3    H237140   0.375   5.025  15.551 -0.5297  0.1593 -1.4905
 5217TIP3   OH237141   2.743   4.320  15.911  0.1761  0.1178 -0.0441
 5217TIP3    H137142   2.670   4.304  15.852  0.5537 -0.3715 -0.3843
 5217TIP3    H237143   2.813   4.353  15.854  0.5555 -0.3972  0.1199
 5218TIP3   OH237144   2.372   3.953   0.727 -0.3425 -0.0534 -0.1262
 5218TIP3    H137145   2.344   3.862   0.713 -1.8736  0.2156  0.8687
 5218TIP3    H237146   2.407   3.954   0.816  0.8525  0.0859 -0.5897
 5219TIP3   OH237147   0.454   4.836  13.148 -0.6817 -0.1846  0.2165
 5219TIP3    H137148   0.516   4.900  13.183 -0.6052 -0.8243  1.2867
 5219TIP3    H237149   0.395   4.887  13.093 -0.8507  0.8676  1.3519
 5220TIP3   OH237150   3.576   1.461  14.141 -0.1763 -0.1625 -0.2658
 5220TIP3    H137151   3.603   1.542  14.184  0.0115 -0.7151  0.6781
 5220TIP3    H237152   3.557   1.401  14.212 -2.7033 -0.2104 -0.8935
 5221TIP3   OH237153   1.518   1.122   3.732 -0.5039 -0.0619  0.8669
 5221TIP3    H137154   1.598   1.080   3.702 -0.0696  0.2835  1.5065
 5221TIP3    H237155   1.547   1.204   3.773 -1.3975  1.3956 -1.2145
 5222TIP3   OH237156   2.699   3.673   0.550 -0.2068 -0.2471  0.0497
 5222TIP3    H137157   2.650   3.747   0.514  0.5204 -0.3554 -1.1983
 5222TIP3    H237158   2.641   3.635   0.616 -0.5512  1.5101  0.8259
 5223TIP3   OH237159   6.346   2.463   5.449  0.3193  0.0390 -0.1828
 5223TIP3    H137160   6.412   2.395   5.435  0.9528  0.2247  1.6506
 5223TIP3    H237161   6.282   2.449   5.379  1.4484 -1.1886 -1.0112
 5224TIP3   OH237162   4.182   1.329   1.204 -0.5981 -0.0641 -0.1181
 5224TIP3    H137163   4.197   1.320   1.299 -1.0130  2.7812  0.2931
 5224TIP3    H237164   4.160   1.240   1.176  1.1668 -1.3399  2.1167
 5225TIP3   OH237165   6.114   2.127   5.785 -0.0097 -0.1585  0.1480
 5225TIP3    H137166   6.210   2.126   5.790  0.1460  2.1077 -0.8223
 5225TIP3    H237167   6.092   2.050   5.732  1.4016  0.0322 -0.7869
 5226TIP3   OH237168   3.142   5.880   2.720 -0.0783  0.0696  0.0224
 5226TIP3    H137169   3.054   5.859   2.749 -0.2969 -0.7341 -1.1473
 5226TIP3    H237170   3.191   5.897   2.800 -1.7247  2.4403  0.6533
 5227TIP3   OH237171   1.018   0.748  12.242  0.1287 -0.5744  0.0040
 5227TIP3    H137172   1.027   0.828  12.189  0.0095 -0.5510  0.0177
 5227TIP3    H237173   1.093   0.749  12.300 -0.2017 -0.1413  0.4392
 5228TIP3   OH237174   4.140   6.240   2.223 -0.0586 -0.5630 -0.0130
 5228TIP3    H137175   4.096   6.290   2.155 -0.6293 -1.3537 -0.2320
 5228TIP3    H237176   4.213   6.297   2.251 -2.1629  1.5589  1.5815
 5229TIP3   OH237177   6.557   5.428   5.446  0.2008 -0.5585  0.5166
 5229TIP3    H137178   6.491   5.494   5.467  0.2483 -0.7815  1.4233
 5229TIP3    H237179   6.606   5.465   5.373 -0.2806  0.0521  0.4936
 5230TIP3   OH237180   4.491   6.577   1.903 -0.2270 -0.4606 -0.2204
 5230TIP3    H137181   4.562   6.526   1.863 -0.3882  0.1088 -1.2844
 5230TIP3    H237182   4.411   6.537   1.868 -0.3858 -0.2150 -0.1375
 5231TIP3   OH237183   1.621   2.194  15.434  0.2994 -0.2799  0.0189
 5231TIP3    H137184   1.658   2.245  15.506  0.4944 -2.3127  1.4402
 5231TIP3    H237185   1.526   2.197  15.450  0.2373  0.3930 -0.4471
 5232TIP3   OH237186   2.927   0.228   5.748 -0.2456  0.0709  0.1737
 5232TIP3    H137187   2.921   0.323   5.758 -1.5689  0.1946 -1.3877
 5232TIP3    H237188   2.954   0.196   5.834  1.9936  1.9751  0.2745
 5233TIP3   OH237189   6.537   5.870  13.750 -0.2515 -0.5921  0.0726
 5233TIP3    H137190   6.566   5.833  13.833 -0.2004 -1.3424 -0.2698
 5233TIP3    H237191   6.463   5.926  13.773  1.8677  2.0166  1.0762
 5234TIP3   OH237192   6.460   2.879   4.668 -0.7654  0.6934 -0.0823
 5234TIP3    H137193   6.514   2.913   4.739  1.1903 -1.2213 -0.5544
 5234TIP3    H237194   6.387   2.836   4.711 -0.8475  1.5324  0.6551
 5235TIP3   OH237195   2.256   2.958   3.384  1.0518  0.1165  0.3044
 5235TIP3    H137196   2.215   2.919   3.462  0.4737 -0.4643 -0.2855
 5235TIP3    H237197   2.350   2.954   3.402  0.9502 -0.6340  0.6802
 5236TIP3   OH237198   1.565   6.386   3.296  0.6314  0.8960  0.2619
 5236TIP3    H137199   1.504   6.418   3.362  0.8715  0.0475  0.9097
 5236TIP3    H237200   1.511   6.370   3.219  0.4115  2.2725  0.0911
 5237TIP3   OH237201   6.768   1.002   6.180 -0.0076  0.1310 -0.0415
 5237TIP3    H137202   6.795   0.920   6.138 -1.8176 -0.1728 -0.6766
 5237TIP3    H237203   6.705   0.975   6.247 -0.9954  1.0382 -0.5888
 5238TIP3   OH237204   4.655   5.207   0.762 -0.5294  0.4599 -0.3133
 5238TIP3    H137205   4.693   5.133   0.808  0.9219  0.0810 -2.0204
 5238TIP3    H237206   4.633   5.173   0.675 -1.8227  1.5170 -0.4397
 5239TIP3   OH237207   2.973   0.642   4.903 -0.2852  0.2435  0.9837
 5239TIP3    H137208   3.008   0.625   4.816 -2.4251 -1.2146  0.3393
 5239TIP3    H237209   3.048   0.674   4.953  1.2518  0.0243 -1.0641
 5240TIP3   OH237210   1.299   1.791   1.935 -0.0973  0.3926  0.6495
 5240TIP3    H137211   1.373   1.805   1.994  0.4936  1.2248 -0.2660
 5240TIP3    H237212   1.253   1.714   1.972  0.2206  0.9051  2.1972
 5241TIP3   OH237213   1.390   2.022   1.072 -0.2618 -0.0064  0.9292
 5241TIP3    H137214   1.486   2.022   1.075 -0.1853 -0.8325 -0.5291
 5241TIP3    H237215   1.368   2.099   1.020 -0.3367 -0.2977  0.5220
 5242TIP3   OH237216   4.080   3.454   3.555 -0.3308  0.3069 -0.4495
 5242TIP3    H137217   4.142   3.490   3.619  0.5822 -2.0994  0.1314
 5242TIP3    H237218   4.135   3.413   3.489 -1.2752 -1.2918 -0.2906
 5243TIP3   OH237219   4.814   6.222  16.324 -1.1113  0.5212  0.3333
 5243TIP3    H137220   4.840   6.258  16.409  1.2813  1.3424 -0.6448
 5243TIP3    H237221   4.752   6.285  16.289  2.5368  3.7296 -1.0756
 5244TIP3   OH237222   2.692   1.648  11.926 -0.4020 -0.7068 -0.3113
 5244TIP3    H137223   2.751   1.583  11.964  0.4257 -1.0049 -1.9993
 5244TIP3    H237224   2.686   1.716  11.992  1.2532 -1.0205  0.2212
 5245TIP3   OH237225   4.380   5.177   0.065 -0.3071 -0.4988 -0.3360
 5245TIP3    H137226   4.460   5.166   0.014 -0.6184 -0.7530 -0.7699
 5245TIP3    H237227   4.408   5.225   0.143 -0.3203  2.6647 -2.1088
 5246TIP3   OH237228   5.811   1.735   5.817 -0.0070  0.5696 -0.0067
 5246TIP3    H137229   5.854   1.654   5.845 -0.8621  0.2700  0.4702
 5246TIP3    H237230   5.776   1.714   5.731 -0.6377  0.2719  0.3171
 5247TIP3   OH237231   5.857   2.351   2.620 -0.5522  0.1226 -0.9520
 5247TIP3    H137232   5.887   2.390   2.538  0.3656 -1.0331 -1.2012
 5247TIP3    H237233   5.916   2.386   2.686  0.3797 -0.9132 -1.2003
 5248TIP3   OH237234   6.647   3.082   5.583 -0.7762  0.2028  0.4230
 5248TIP3    H137235   6.728   3.030   5.594 -1.9880 -1.7307  0.7505
 5248TIP3    H237236   6.587   3.047   5.648 -2.2823  0.7621 -0.6019
 5249TIP3   OH237237   1.540   6.560   2.795  0.0022 -0.3279 -0.7058
 5249TIP3    H137238   1.536   6.519   2.709 -2.3266  0.5410 -1.0667
 5249TIP3    H237239   1.536   6.654   2.777 -1.7091 -0.1580  0.3510
 5250TIP3   OH237240   6.251   6.138  15.583 -0.0549  0.0873  0.0441
 5250TIP3    H137241   6.324   6.153  15.643 -1.1087  0.8234  1.2061
 5250TIP3    H237242   6.192   6.080  15.632 -0.6578  0.2207 -0.5139
 5251TIP3   OH237243   6.122   0.364  15.489  0.0023  0.0169  0.1614
 5251TIP3    H137244   6.094   0.274  15.501 -2.7842  1.0201  2.1494
 5251TIP3    H237245   6.100   0.385  15.398  1.4374 -1.4559 -0.5782
 5252TIP3   OH237246   4.108   4.751   5.342 -0.2786 -0.3407 -0.0115
 5252TIP3    H137247   4.095   4.795   5.258 -0.6292  0.5513  0.5017
 5252TIP3    H237248   4.025   4.762   5.388  0.8584  1.9322  1.7154
 5253TIP3   OH237249   2.817   2.721   3.505 -0.3852 -0.0624  0.4791
 5253TIP3    H137250   2.740   2.678   3.542  0.0444 -1.0099  0.3289
 5253TIP3    H237251   2.813   2.811   3.537 -0.8743 -0.4367  1.5263
 5254TIP3   OH237252   4.249   4.933   4.007 -0.5491  0.2058  0.5662
 5254TIP3    H137253   4.327   4.981   3.980  0.1433 -1.2887 -0.2183
 5254TIP3    H237254   4.195   4.929   3.927 -1.1864  0.7750  0.9631
 5255TIP3   OH237255   5.862   1.081  13.216  0.3777  0.0492  0.0516
 5255TIP3    H137256   5.813   1.002  13.237  2.2233 -1.0677  0.4446
 5255TIP3    H237257   5.881   1.121  13.301 -0.2423  0.7461 -0.1256
 5256TIP3   OH237258   2.913   2.916   6.716 -0.0415  0.7524 -0.1334
 5256TIP3    H137259   2.892   2.829   6.748 -0.7128  0.7987 -0.4347
 5256TIP3    H237260   2.965   2.901   6.637  0.2222  0.6290  0.0646
 5257TIP3   OH237261   3.529   4.770  10.975  0.3406  0.3632  0.7801
 5257TIP3    H137262   3.586   4.805  11.043  0.4021  0.3535  0.7339
 5257TIP3    H237263   3.588   4.755  10.900  0.6085 -1.1773  1.2506
 5258TIP3   OH237264   4.223   2.587   0.078 -0.7425 -0.5962  0.2018
 5258TIP3    H137265   4.184   2.648   0.016  1.0609  0.6971  0.2888
 5258TIP3    H237266   4.275   2.528   0.024  0.9514  0.6241  0.4578
 5259TIP3   OH237267   2.265   6.438  12.930  0.7281  0.2871 -0.0753
 5259TIP3    H137268   2.260   6.488  13.012  1.2904  0.1285  0.0643
 5259TIP3    H237269   2.311   6.358  12.955 -1.3180 -0.9194 -0.0065
 5260TIP3   OH237270   2.202   5.132  16.651 -0.0910 -0.0323  0.6259
 5260TIP3    H137271   2.268   5.120  16.719  0.2236 -0.6900  0.2145
 5260TIP3    H237272   2.159   5.215  16.673  3.1990  2.3143 -1.0145
 5261TIP3   OH237273   5.777   4.100  14.154 -0.3439  0.1746 -0.1957
 5261TIP3    H137274   5.801   4.068  14.241 -1.1685  1.1489  0.4125
 5261TIP3    H237275   5.693   4.059  14.136 -0.5008  0.5151 -0.2373
 5262TIP3   OH237276   1.934   4.409   0.696  0.2369  0.4971  0.2776
 5262TIP3    H137277   1.887   4.408   0.779  1.8895  0.7140  1.2532
 5262TIP3    H237278   1.942   4.502   0.673  1.4007  0.5650  0.8673
 5263TIP3   OH237279   1.216   0.119   6.159  0.5439  0.1255 -0.3975
 5263TIP3    H137280   1.141   0.087   6.209 -0.1695 -0.7296 -1.9629
 5263TIP3    H237281   1.291   0.104   6.217 -0.3421  0.0011  0.7638
 5264TIP3   OH237282   3.161   4.828  11.236  0.3040  0.2118  0.7626
 5264TIP3    H137283   3.187   4.834  11.144  1.8240  0.2377  1.1724
 5264TIP3    H237284   3.065   4.831  11.233  0.3337  1.5371 -0.7223
 5265TIP3   OH237285   0.598   3.803   2.155  0.0510 -0.4423 -0.3495
 5265TIP3    H137286   0.576   3.878   2.210 -0.4194 -0.6275 -0.2779
 5265TIP3    H237287   0.671   3.834   2.101  0.6185 -0.3004  0.4656
 5266TIP3   OH237288   6.345   4.518  12.589  0.3720  0.5847 -0.2743
 5266TIP3    H137289   6.251   4.501  12.590  0.5128 -0.1894  0.5193
 5266TIP3    H237290   6.383   4.443  12.543  0.6493  0.6349 -0.1302
 5267TIP3   OH237291   4.840   1.740   5.682  0.0783 -0.8471  0.2452
 5267TIP3    H137292   4.781   1.780   5.747 -0.7375 -0.5178 -0.6726
 5267TIP3    H237293   4.788   1.669   5.643 -0.0085 -0.0781 -1.0997
 5268TIP3   OH237294   4.270   4.950  14.441  0.0550  0.3862  0.6168
 5268TIP3    H137295   4.361   4.945  14.410 -0.8726  0.9743 -2.5012
 5268TIP3    H237296   4.262   5.040  14.475  0.3184  0.7426 -0.2470
 5269TIP3   OH237297   4.147   5.533   3.204 -0.1780  0.3912 -0.0221
 5269TIP3    H137298   4.227   5.578   3.175 -0.3864  1.0478  0.4062
 5269TIP3    H237299   4.078   5.599   3.197 -0.7765 -0.2987 -0.7968
 5270TIP3   OH237300   3.526   3.777  11.880  0.3576  0.2922  0.2525
 5270TIP3    H137301   3.439   3.769  11.839  0.2363  1.4255  0.2691
 5270TIP3    H237302   3.508   3.801  11.971  0.6621 -1.1863  0.7463
 5271TIP3   OH237303   5.365   4.604   0.388 -1.0533  0.8278 -0.1860
 5271TIP3    H137304   5.364   4.541   0.316 -0.4457  0.5130  0.0806
 5271TIP3    H237305   5.348   4.552   0.466  1.0869  0.7023  0.2419
 5272TIP3   OH237306   5.764   3.982  10.579  0.2547  0.9043 -0.2716
 5272TIP3    H137307   5.802   4.030  10.505 -0.0883  1.6148  0.0085
 5272TIP3    H237308   5.840   3.952  10.629  0.4951  0.3496 -0.9458
 5273TIP3   OH237309   1.513   5.093  16.340  0.3264  0.2309 -0.3805
 5273TIP3    H137310   1.417   5.096  16.333  0.1636  0.0778  1.1980
 5273TIP3    H237311   1.542   5.054  16.258 -0.8887  1.1806 -1.2939
 5274TIP3   OH237312   2.843   4.595   4.760 -0.4650  0.1339 -0.4508
 5274TIP3    H137313   2.833   4.520   4.701  1.1628  0.5216 -1.2430
 5274TIP3    H237314   2.842   4.671   4.703  0.6933  0.5433  0.0600
 5275TIP3   OH237315   0.839   5.660  11.650 -0.0827 -0.3006  0.3024
 5275TIP3    H137316   0.812   5.723  11.584  0.3315 -1.1782 -0.7436
 5275TIP3    H237317   0.924   5.627  11.618 -0.0419 -0.9840  1.0947
 5276TIP3   OH237318   5.296   1.958  13.145  0.1628 -0.3375 -0.0962
 5276TIP3    H137319   5.288   2.033  13.205  0.8418 -1.2181  1.1256
 5276TIP3    H237320   5.223   1.969  13.085  0.6769  1.7422 -0.4416
 5277TIP3   OH237321   5.676   0.843  15.308  0.2066  0.5563  0.5113
 5277TIP3    H137322   5.750   0.808  15.257 -0.2988 -0.9437  0.7472
 5277TIP3    H237323   5.714   0.914  15.359  1.2771  0.4560 -0.1073
 5278TIP3   OH237324   2.304   3.890  13.561 -0.3011  0.1791 -0.1908
 5278TIP3    H137325   2.279   3.934  13.479  0.2148 -1.3326 -1.2022
 5278TIP3    H237326   2.400   3.884  13.556 -0.3110 -0.4564  0.2411
 5279TIP3   OH237327   6.350   6.378  16.011 -0.4376 -0.6077  0.2182
 5279TIP3    H137328   6.308   6.305  15.966  1.3016 -2.0040  0.7069
 5279TIP3    H237329   6.437   6.384  15.970 -0.4249  0.9820  0.4242
 5280TIP3   OH237330   2.789   4.207   1.060 -0.1534  0.2137 -0.2801
 5280TIP3    H137331   2.883   4.202   1.043 -0.0728  2.0979 -0.6522
 5280TIP3    H237332   2.769   4.129   1.112  1.7344  0.1208  0.3748
 5281TIP3   OH237333   2.972   1.106   3.304 -0.3521 -0.2474 -0.4168
 5281TIP3    H137334   2.891   1.096   3.354  1.0551 -0.2847  2.0292
 5281TIP3    H237335   3.014   1.020   3.310 -0.1599 -0.2743 -1.7845
 5282TIP3   OH237336   3.114   2.230  16.389 -0.1844 -0.2333 -0.1779
 5282TIP3    H137337   3.163   2.219  16.308 -2.1246 -0.4680 -1.3809
 5282TIP3    H237338   3.134   2.151  16.440  0.1055 -0.6761 -0.9613
 5283TIP3   OH237339   4.340   0.908  12.973 -0.0052 -0.2543 -0.7823
 5283TIP3    H137340   4.432   0.924  12.951 -0.1739 -2.7862 -4.0611
 5283TIP3    H237341   4.299   0.994  12.968  2.2536  1.1320  1.8443
 5284TIP3   OH237342   1.445   6.165   2.394 -0.4078  0.2123  0.0715
 5284TIP3    H137343   1.474   6.183   2.305  2.5242  1.3617  1.1672
 5284TIP3    H237344   1.495   6.087   2.421 -3.2320 -1.8305 -0.0801
 5285TIP3   OH237345   0.650   3.121   4.169  0.0558 -0.0554 -0.1286
 5285TIP3    H137346   0.661   3.197   4.112 -1.5780 -1.1753 -2.0616
 5285TIP3    H237347   0.601   3.155   4.244 -1.6071  0.6632 -1.4639
 5286TIP3   OH237348   0.934   6.441   0.721 -0.0361  0.4170 -0.1008
 5286TIP3    H137349   0.856   6.444   0.664  0.9881 -0.3988 -1.6172
 5286TIP3    H237350   1.007   6.456   0.662  1.1384 -1.2516  0.8559
 5287TIP3   OH237351   6.108   3.418  16.925 -0.5833  0.0874  0.3623
 5287TIP3    H137352   6.192   3.463  16.916 -1.0050  0.6681 -0.9310
 5287TIP3    H237353   6.060   3.470  16.990 -1.0860  1.6144 -1.1527
 5288TIP3   OH237354   3.991   0.704  10.858 -0.0381 -0.8046 -0.0930
 5288TIP3    H137355   3.989   0.740  10.769 -2.0201 -0.3174  0.0944
 5288TIP3    H237356   3.948   0.619  10.850  0.2699 -0.9941  0.2995
 5289TIP3   OH237357   2.163   2.995   0.733  0.3594 -0.6591 -0.1087
 5289TIP3    H137358   2.202   3.029   0.653 -1.1693 -0.9740 -1.0306
 5289TIP3    H237359   2.074   2.970   0.707  0.8524 -3.8671  0.8513
 5290TIP3   OH237360   3.964   0.725   3.543 -0.3398 -0.1837  0.0840
 5290TIP3    H137361   3.957   0.722   3.639 -1.1858  0.6616  0.0714
 5290TIP3    H237362   3.958   0.634   3.515 -0.6124 -0.3959  0.8115
 5291TIP3   OH237363   0.200   4.461  11.998  0.1157 -0.7817  0.1506
 5291TIP3    H137364   0.163   4.487  12.082 -0.3531  1.8007 -0.7823
 5291TIP3    H237365   0.124   4.448  11.941  0.4432 -2.2121 -0.0187
 5292TIP3   OH237366   0.595   3.914   4.840  0.1031 -0.8864 -0.3140
 5292TIP3    H137367   0.500   3.904   4.842 -0.0033  0.1231  1.5798
 5292TIP3    H237368   0.611   3.982   4.775 -0.5384 -0.4285  0.0018
 5293TIP3   OH237369   1.242   2.570   4.558 -0.5494  0.3817  0.1071
 5293TIP3    H137370   1.154   2.585   4.525 -0.6036  0.0100  0.0698
 5293TIP3    H237371   1.228   2.533   4.646 -0.4191  0.8858  0.3409
 5294TIP3   OH237372   4.883   0.689   1.404  0.2553 -0.7033 -0.2936
 5294TIP3    H137373   4.831   0.731   1.473 -0.4903 -0.4126 -1.0128
 5294TIP3    H237374   4.872   0.595   1.420 -2.5865 -0.7468 -1.8615
 5295TIP3   OH237375   1.741   1.165  13.691  0.1100  0.2976 -0.3732
 5295TIP3    H137376   1.817   1.190  13.744  1.4342 -1.6507 -1.2080
 5295TIP3    H237377   1.758   1.205  13.605 -0.7340  1.3141 -0.0860
 5296TIP3   OH237378   3.975   0.056   4.233 -0.0545  0.6043 -0.2179
 5296TIP3    H137379   3.984   0.145   4.267  0.2777  0.9526 -1.1718
 5296TIP3    H237380   3.955   0.068   4.140  0.2781 -0.3241 -0.4183
 5297TIP3   OH237381   1.347   6.643   2.060  0.1353  0.4395 -0.0697
 5297TIP3    H137382   1.301   6.564   2.032  1.4625  0.2918 -2.0305
 5297TIP3    H237383   1.427   6.611   2.102 -0.6123  0.7353  1.6719
 5298TIP3   OH237384   6.100   5.759  12.385 -0.3714 -0.1047  0.4856
 5298TIP3    H137385   6.083   5.666  12.374  2.1394 -0.3560 -2.8780
 5298TIP3    H237386   6.163   5.764  12.457 -0.6559 -0.9861  0.8002
 5299TIP3   OH237387   4.409   0.508  11.314 -0.2485 -0.1976 -0.7863
 5299TIP3    H137388   4.454   0.537  11.394 -0.7724 -0.5556 -0.3462
 5299TIP3    H237389   4.317   0.527  11.331 -0.7498 -2.8337 -0.1093
 5300TIP3   OH237390   6.392   3.090   5.745  0.0567 -0.1160 -0.1004
 5300TIP3    H137391   6.331   3.016   5.747  0.4535 -0.4378  0.6033
 5300TIP3    H237392   6.355   3.149   5.680 -0.9272 -0.3710  0.1971
 5301TIP3   OH237393   1.789   6.399  14.343  0.2144  0.4087  0.1895
 5301TIP3    H137394   1.770   6.492  14.345  1.3594  0.6641 -0.0432
 5301TIP3    H237395   1.713   6.360  14.300 -0.2997  1.2225  0.3426
 5302TIP3   OH237396   6.689   1.464  13.598  0.1350  0.0585  0.0625
 5302TIP3    H137397   6.621   1.439  13.535 -1.0129 -0.0145  1.2928
 5302TIP3    H237398   6.648   1.454  13.684  1.2333  1.4246  0.7954
 5303TIP3   OH237399   1.935   5.062   6.342  0.1235  0.0925  0.0319
 5303TIP3    H137400   2.003   5.027   6.283 -0.0999 -1.3265  0.5916
 5303TIP3    H237401   1.984   5.114   6.406  0.5400  0.1748 -0.3417
 5304TIP3   OH237402   0.899   4.179   1.100 -0.4250  0.3306  0.8326
 5304TIP3    H137403   0.857   4.156   1.017  0.9624 -0.5183  0.3253
 5304TIP3    H237404   0.829   4.219   1.151 -0.9328  2.5374 -1.3833
 5305TIP3   OH237405   1.303   4.841  17.161 -0.6945  0.9080  0.0614
 5305TIP3    H137406   1.366   4.913  17.164  0.2593  0.1160 -0.3934
 5305TIP3    H237407   1.346   4.774  17.108 -1.4063 -0.1559  0.7994
 5306TIP3   OH237408   5.445   5.228   0.115  0.0209  0.0418 -0.0708
 5306TIP3    H137409   5.358   5.250   0.149 -0.3820 -1.0912 -0.3168
 5306TIP3    H237410   5.499   5.216   0.193 -0.1140  0.4781  0.0902
 5307TIP3   OH237411   1.972   2.678   6.396  0.3211 -0.3663  0.3814
 5307TIP3    H137412   2.050   2.624   6.397  0.2991 -0.3952  0.4817
 5307TIP3    H237413   1.958   2.697   6.303  0.9933  0.4312  0.4291
 5308TIP3   OH237414   4.759   2.207   5.008 -0.0871 -0.6028  0.5455
 5308TIP3    H137415   4.777   2.195   5.101  3.0661  0.6643  0.2058
 5308TIP3    H237416   4.761   2.302   4.995  1.4148 -0.8021 -1.0827
 5309TIP3   OH237417   3.787   1.218  17.023  0.0532  0.8026  0.3276
 5309TIP3    H137418   3.780   1.137  17.074 -0.9806  0.4944 -0.2861
 5309TIP3    H237419   3.881   1.229  17.008  0.1349 -1.1616 -0.9256
 5310TIP3   OH237420   2.124   5.995  10.496  0.3701 -0.0082  0.2910
 5310TIP3    H137421   2.209   5.990  10.453  0.6134 -0.3351  0.8002
 5310TIP3    H237422   2.063   5.957  10.433  0.3156  1.7628 -0.7801
 5311TIP3   OH237423   1.626   3.383  13.684  0.3126 -0.3772 -0.0290
 5311TIP3    H137424   1.562   3.415  13.748  2.0864  0.2593  1.5068
 5311TIP3    H237425   1.615   3.441  13.608 -2.0031 -1.3090 -0.4889
 5312TIP3   OH237426   1.569   4.818   3.551 -0.4958  0.0676  0.0485
 5312TIP3    H137427   1.493   4.865   3.584 -0.6956  0.2082 -0.5908
 5312TIP3    H237428   1.586   4.750   3.616  0.7834  1.9775  1.8432
 5313TIP3   OH237429   4.871   3.926  11.221 -0.5695  0.3448 -0.3833
 5313TIP3    H137430   4.963   3.904  11.236 -0.4764  0.5462 -0.6439
 5313TIP3    H237431   4.829   3.844  11.198 -0.5055  0.2091 -0.0199
 5314TIP3   OH237432   1.473   6.344   0.338  0.1907  0.2994  0.3926
 5314TIP3    H137433   1.502   6.417   0.392  0.9728  0.9964 -0.9207
 5314TIP3    H237434   1.434   6.385   0.261  2.1586 -0.6137 -1.1617
 5315TIP3   OH237435   2.750   2.471   2.459  0.0695 -0.0624  0.7684
 5315TIP3    H137436   2.822   2.531   2.446  1.7137 -2.0415  0.2838
 5315TIP3    H237437   2.672   2.521   2.434  1.5816  1.0619 -2.2041
 5316TIP3   OH237438   3.640   3.312  14.944  0.2818  0.2501 -0.5153
 5316TIP3    H137439   3.569   3.359  14.900  0.4739  0.6562 -0.3998
 5316TIP3    H237440   3.635   3.223  14.909 -0.8001  0.0551  0.0930
 5317TIP3   OH237441   0.732   6.552   3.961  0.7333  0.3234 -0.5547
 5317TIP3    H137442   0.705   6.517   3.877 -3.8153  0.8885  0.4207
 5317TIP3    H237443   0.753   6.644   3.943 -0.5564  0.5352 -1.0871
 5318TIP3   OH237444   5.129   6.148   3.111 -0.1247  0.5233 -0.1765
 5318TIP3    H137445   5.197   6.119   3.050  0.3928  0.0038  0.6382
 5318TIP3    H237446   5.050   6.155   3.056 -0.3041 -2.4761 -0.4619
 5319TIP3   OH237447   5.230   0.373   4.040 -0.2900 -0.4090 -0.3638
 5319TIP3    H137448   5.264   0.406   3.957  0.0322 -0.2874 -0.1858
 5319TIP3    H237449   5.240   0.446   4.101  2.5163 -1.4654  0.6209
 5320TIP3   OH237450   5.281   4.116  12.088 -0.0608 -0.2536 -0.6422
 5320TIP3    H137451   5.373   4.107  12.064  0.0426  0.3971 -0.5227
 5320TIP3    H237452   5.232   4.083  12.013  0.2703 -0.7648 -0.6326
 5321TIP3   OH237453   4.823   1.929  11.586 -0.1592 -0.3760 -0.1324
 5321TIP3    H137454   4.773   1.850  11.564 -1.7464  0.9252 -1.4869
 5321TIP3    H237455   4.883   1.901  11.655  1.0816 -3.3842 -2.2133
 5322TIP3   OH237456   0.448   2.876   5.452 -0.9202 -0.6787 -0.4422
 5322TIP3    H137457   0.435   2.846   5.542 -0.1277 -0.0457 -0.1033
 5322TIP3    H237458   0.521   2.823   5.420  0.6230  0.9054  0.2255
 5323TIP3   OH237459   1.178   1.704  13.316  0.6430 -0.0754 -0.4783
 5323TIP3    H137460   1.084   1.700  13.337  0.6593  0.8642 -0.2176
 5323TIP3    H237461   1.180   1.716  13.221  0.5196 -0.8592 -0.5891
 5324TIP3   OH237462   2.980   5.058  13.385 -0.0361  0.6974  0.4055
 5324TIP3    H137463   2.898   5.012  13.405 -0.6468  0.3003 -2.5929
 5324TIP3    H237464   2.953   5.149  13.369  0.3781  0.9457  1.0904
 5325TIP3   OH237465   1.431   5.035  15.463  0.1582 -0.5227 -0.2086
 5325TIP3    H137466   1.516   4.994  15.481  0.4721  0.1545 -0.1253
 5325TIP3    H237467   1.367   4.964  15.475  0.6973 -1.0084 -0.1607
 5326TIP3   OH237468   4.892   5.671  11.719 -0.4459  0.4220 -0.0881
 5326TIP3    H137469   4.838   5.595  11.741 -0.3595 -0.2439 -2.0374
 5326TIP3    H237470   4.960   5.673  11.787 -1.3214 -0.3253  0.8415
 5327TIP3   OH237471   6.032   2.956   0.497  0.3678  0.2701 -0.3376
 5327TIP3    H137472   5.999   2.940   0.585 -1.8237 -0.6630 -1.2678
 5327TIP3    H237473   6.087   2.880   0.477 -0.8328 -0.5718 -0.5246
 5328TIP3   OH237474   0.323   2.410   1.981  0.4163  0.3146  0.1316
 5328TIP3    H137475   0.305   2.316   1.971 -0.7053  0.2739  2.0033
 5328TIP3    H237476   0.313   2.446   1.892  0.3701 -1.2476 -0.5280
 5329TIP3   OH237477   6.575   3.951   4.177  0.1774  0.2240 -0.0694
 5329TIP3    H137478   6.592   3.945   4.083  0.9712  0.9282  0.0246
 5329TIP3    H237479   6.506   3.886   4.193  1.6298 -1.5604 -0.7424
 5330TIP3   OH237480   3.881   2.364   3.249  0.2693 -0.0110  0.6375
 5330TIP3    H137481   3.838   2.281   3.230  0.3571 -0.2385  1.3651
 5330TIP3    H237482   3.815   2.431   3.233  0.1257 -0.2439  0.2703
 5331TIP3   OH237483   3.111   6.155   0.779  0.6196 -0.4453  0.4293
 5331TIP3    H137484   3.203   6.166   0.802  0.2734  1.7320  1.0674
 5331TIP3    H237485   3.106   6.182   0.687  0.5009  0.3667  0.6631
 5332TIP3   OH237486   2.545   6.751   4.739 -0.0491  0.3097  0.2043
 5332TIP3    H137487   2.584   6.683   4.795  1.8794  1.1068 -0.1017
 5332TIP3    H237488   2.543   6.829   4.794  1.6978  1.0566 -0.6984
 5333TIP3   OH237489   4.177   2.960   2.109  0.3408  0.4184  0.0390
 5333TIP3    H137490   4.141   3.031   2.056  2.6844  0.4367 -1.6247
 5333TIP3    H237491   4.203   2.893   2.046  1.2495 -0.4920  1.3357
 5334TIP3   OH237492   2.156   0.705  15.992  0.1010  0.1154 -0.1812
 5334TIP3    H137493   2.138   0.773  15.927  0.1087  1.3928  1.1135
 5334TIP3    H237494   2.116   0.737  16.073  2.4341 -0.1108  1.1476
 5335TIP3   OH237495   5.591   3.537   1.762  0.1305  0.0669  0.1047
 5335TIP3    H137496   5.648   3.563   1.834 -0.4081 -1.5129  1.1682
 5335TIP3    H237497   5.515   3.498   1.805  0.4787 -2.3567 -1.2625
 5336TIP3   OH237498   2.733   6.044  15.563  0.4631 -0.2229  0.0982
 5336TIP3    H137499   2.759   6.085  15.646 -0.9026  1.7002 -0.3706
 5336TIP3    H237500   2.649   6.084  15.541  0.4371 -1.2256 -1.8776
 5337TIP3   OH237501   3.349   1.787  14.913  0.2149  0.5553  0.2502
 5337TIP3    H137502   3.280   1.723  14.895 -0.3968  1.6511 -1.6002
 5337TIP3    H237503   3.362   1.782  15.007 -2.4343  0.3031  0.6923
 5338TIP3   OH237504   3.028   1.619   6.054  0.1764 -0.5133 -0.3664
 5338TIP3    H137505   3.026   1.526   6.075  1.5588 -0.2045  1.3626
 5338TIP3    H237506   2.936   1.643   6.042 -0.3261 -1.7839  0.7110
 5339TIP3   OH237507   2.518   6.109  16.415  0.2971  0.4908 -0.2300
 5339TIP3    H137508   2.474   6.042  16.363 -0.5837 -2.4641  3.8483
 5339TIP3    H237509   2.607   6.112  16.381 -0.1871 -1.3038 -1.7981
 5340TIP3   OH237510   1.666   1.427   5.656 -0.5821  0.4080  0.3148
 5340TIP3    H137511   1.735   1.371   5.693 -1.1997 -0.4667  0.1616
 5340TIP3    H237512   1.652   1.393   5.568 -2.2968 -0.4669  0.8670
 5341TIP3   OH237513   3.430   3.996   0.601 -0.0547 -0.5779 -0.3696
 5341TIP3    H137514   3.479   4.016   0.521 -0.6211 -0.7458 -0.7647
 5341TIP3    H237515   3.488   3.937   0.650  2.7144  3.5693  1.9383
 5342TIP3   OH237516   1.474   5.082   6.611  0.0389 -0.1515 -0.1710
 5342TIP3    H137517   1.482   4.990   6.633  0.0860  0.3626  2.2149
 5342TIP3    H237518   1.511   5.089   6.523  1.9273 -2.0586  0.3961
 5343TIP3   OH237519   2.061   3.995   5.494 -0.3129 -0.5237 -0.2607
 5343TIP3    H137520   2.079   3.978   5.586 -0.8936 -0.9150 -0.2166
 5343TIP3    H237521   2.035   4.088   5.492 -0.5796 -0.5887  0.0177
 5344TIP3   OH237522   3.109   5.335  14.710 -0.0447 -0.0987 -0.3483
 5344TIP3    H137523   3.116   5.264  14.646  0.7200 -2.0001  1.6777
 5344TIP3    H237524   3.172   5.311  14.778 -1.8571  0.9627  1.8351
 5345TIP3   OH237525   2.804   0.263  12.648  0.1739 -0.3248 -0.0535
 5345TIP3    H137526   2.719   0.293  12.678  0.5125  0.2780  0.3115
 5345TIP3    H237527   2.785   0.207  12.573 -0.6310 -1.3023  0.8606
 5346TIP3   OH237528   2.633   2.879   4.806  0.0856  0.0347 -0.3558
 5346TIP3    H137529   2.723   2.858   4.780  0.7406  0.4452  1.4917
 5346TIP3    H237530   2.629   2.975   4.805 -0.7213  0.0206 -1.5762
 5347TIP3   OH237531   4.827   1.288  16.640 -0.1325 -0.2370  0.8300
 5347TIP3    H137532   4.883   1.217  16.609  0.1142  0.7424 -1.1397
 5347TIP3    H237533   4.883   1.342  16.694  0.0843 -0.7193  1.0903
 5348TIP3   OH237534   2.728   6.715  10.980 -0.2616 -0.8734 -0.1718
 5348TIP3    H137535   2.649   6.724  10.928  0.0567 -1.1302 -0.7060
 5348TIP3    H237536   2.725   6.625  11.013 -1.1552 -0.3007  1.4119
 5349TIP3   OH237537   3.755   2.208  16.516 -0.3042 -0.2519  0.6188
 5349TIP3    H137538   3.831   2.247  16.472 -0.8684  0.5152  0.3105
 5349TIP3    H237539   3.680   2.258  16.483 -0.7178  0.6851  2.8344
 5350TIP3   OH237540   6.360   4.045   2.736  0.1427 -0.0091  0.0943
 5350TIP3    H137541   6.378   4.137   2.718 -0.0842 -0.1163 -0.7001
 5350TIP3    H237542   6.293   4.020   2.673 -0.5477 -0.4508  0.9760
 5351TIP3   OH237543   4.056   6.765  11.942 -0.0040 -0.4280  0.5450
 5351TIP3    H137544   4.014   6.806  11.867  0.8926 -0.1866  0.1628
 5351TIP3    H237545   3.990   6.769  12.012 -0.5969 -0.0469 -0.0275
 5352TIP3   OH237546   4.078   5.320   2.975 -0.3960  0.0475  0.1975
 5352TIP3    H137547   4.053   5.240   3.022  0.5902 -0.2712  0.2081
 5352TIP3    H237548   3.997   5.350   2.933 -0.7281 -1.0926 -0.0022
 5353TIP3   OH237549   5.422   3.010  14.781 -0.5650  0.1188  0.5422
 5353TIP3    H137550   5.423   2.917  14.803  1.6452 -0.2433 -0.7495
 5353TIP3    H237551   5.446   3.013  14.688 -1.2025  1.9662  0.3877
 5354TIP3   OH237552   2.248   3.821   6.181 -0.0180  0.0045  0.2391
 5354TIP3    H137553   2.289   3.754   6.235 -0.1315  0.6392  1.1234
 5354TIP3    H237554   2.289   3.903   6.209  1.9063  0.1334 -2.4426
 5355TIP3   OH237555   2.205   5.924  14.349 -0.2383 -0.4681  0.0313
 5355TIP3    H137556   2.220   5.833  14.325  2.1967 -0.0576 -0.2789
 5355TIP3    H237557   2.266   5.974  14.295  0.7756  1.0535  2.4052
 5356TIP3   OH237558   4.279   0.375   2.150  0.2050  0.2896  0.1915
 5356TIP3    H137559   4.213   0.402   2.087  0.6911  1.7619  0.2909
 5356TIP3    H237560   4.248   0.290   2.182 -0.6676  0.0947 -1.1195
 5357TIP3   OH237561   0.875   4.065  14.993 -0.1752 -0.0564 -0.1203
 5357TIP3    H137562   0.790   4.096  15.024 -0.1594 -1.1208  1.0912
 5357TIP3    H237563   0.857   4.022  14.909 -0.9810 -0.9337  0.4831
 5358TIP3   OH237564   0.187   1.472  16.442 -0.5223  0.3985 -0.7486
 5358TIP3    H137565   0.235   1.440  16.519 -1.2699 -1.2786 -0.9234
 5358TIP3    H237566   0.254   1.496  16.379  0.1643 -2.1415 -1.0925
 5359TIP3   OH237567   2.778   6.166  15.309 -0.3464 -0.2115 -0.3268
 5359TIP3    H137568   2.718   6.232  15.343  0.3970 -0.4341  1.5468
 5359TIP3    H237569   2.785   6.101  15.379  2.0783 -0.1851 -0.4516
 5360TIP3   OH237570   0.101   6.389  10.681 -0.5177  0.3544 -0.0968
 5360TIP3    H137571   0.026   6.397  10.740 -0.1555  0.9069  0.2931
 5360TIP3    H237572   0.178   6.401  10.737 -0.0089 -2.2728 -0.0756
 5361TIP3   OH237573   1.857   0.724  12.733  0.3500 -0.2905 -0.0590
 5361TIP3    H137574   1.788   0.681  12.784  0.2558 -0.3031 -0.1987
 5361TIP3    H237575   1.866   0.811  12.773 -0.0531 -0.1270 -0.3208
 5362TIP3   OH237576   4.549   5.016  13.605 -0.2178 -0.1615 -0.2360
 5362TIP3    H137577   4.462   5.055  13.593 -1.0976 -2.3876 -1.6648
 5362TIP3    H237578   4.579   4.996  13.516  1.1814 -0.6562  0.3148
 5363TIP3   OH237579   2.681   3.689  15.365  0.5810 -0.1143  0.4151
 5363TIP3    H137580   2.770   3.712  15.389  1.2720 -2.1937  0.0194
 5363TIP3    H237581   2.666   3.602  15.403 -0.8866 -0.2772 -0.4266
 5364TIP3   OH237582   1.920   6.120  11.820  0.3525 -0.1718 -0.1567
 5364TIP3    H137583   1.852   6.182  11.794  0.4549 -0.6592 -1.6708
 5364TIP3    H237584   1.991   6.175  11.852 -0.0359  0.4319 -0.3023
 5365TIP3   OH237585   5.337   2.546  13.945 -0.2281  0.1999 -0.0248
 5365TIP3    H137586   5.432   2.537  13.932 -0.1684 -0.1294  0.5994
 5365TIP3    H237587   5.298   2.509  13.865  0.1635  0.0682 -0.1575
 5366TIP3   OH237588   2.559   5.305   5.083 -0.1507 -0.0144  0.1685
 5366TIP3    H137589   2.549   5.241   5.012 -1.7507 -0.4485  0.7250
 5366TIP3    H237590   2.645   5.287   5.120  0.1837 -0.6214 -0.8627
 5367TIP3   OH237591   5.543   4.797   6.324 -0.5323  0.2009  0.0301
 5367TIP3    H137592   5.535   4.854   6.401  0.4306  0.1773  0.1558
 5367TIP3    H237593   5.584   4.718   6.357  1.5231  0.8589 -0.7979
 5368TIP3   OH237594   4.333   4.460  11.192 -0.5302  0.5010 -0.1762
 5368TIP3    H137595   4.257   4.462  11.134 -0.5916 -1.0860 -0.2108
 5368TIP3    H237596   4.304   4.409  11.267  0.0269  1.2458  0.5600
 5369TIP3   OH237597   0.874   5.703  16.792  0.1137  0.1411  0.1186
 5369TIP3    H137598   0.941   5.665  16.735  0.9776 -1.2314  1.9008
 5369TIP3    H237599   0.898   5.671  16.880 -0.5452  2.9269  1.4222
 5370TIP3   OH237600   6.689   5.171   3.132 -0.0651 -0.0981  0.4342
 5370TIP3    H137601   6.760   5.110   3.151 -0.0317  0.1549  1.1595
 5370TIP3    H237602   6.611   5.116   3.128  0.0204 -0.2455  0.6975
 5371TIP3   OH237603   4.452   6.618  14.992  0.1549  0.1833  0.0791
 5371TIP3    H137604   4.419   6.591  14.907  0.8674  0.6806 -0.3621
 5371TIP3    H237605   4.531   6.669  14.973 -2.0005  4.2045  0.6854
 5372TIP3   OH237606   6.089   5.997  16.750  0.5338 -0.2205 -0.3471
 5372TIP3    H137607   6.111   6.086  16.776 -1.6547  0.3369 -0.2233
 5372TIP3    H237608   6.076   6.002  16.655 -0.2616 -0.2602 -0.2405
 5373TIP3   OH237609   3.476   6.523  17.009 -0.1411 -0.3577  0.0556
 5373TIP3    H137610   3.505   6.433  16.994 -0.2816 -0.5431  0.8289
 5373TIP3    H237611   3.492   6.538  17.102  1.5312  1.0256 -0.3852
 5374TIP3   OH237612   0.070   1.170   4.835  0.3613  0.5400  0.4171
 5374TIP3    H137613   0.142   1.192   4.775  0.2795  0.4790  0.2970
 5374TIP3    H237614   0.057   1.250   4.886  2.2642 -0.2244  2.2538
 5375TIP3   OH237615   3.480   0.598  14.481  0.1787 -0.1603 -0.5996
 5375TIP3    H137616   3.427   0.541  14.426 -0.1358 -0.9294  0.4834
 5375TIP3    H237617   3.541   0.540  14.525  0.7953  0.5127 -0.5438
 5376TIP3   OH237618   3.403   1.145   2.760 -0.0628 -0.0341  0.2579
 5376TIP3    H137619   3.308   1.135   2.750  0.0752 -4.7050  1.3237
 5376TIP3    H237620   3.436   1.144   2.670 -0.9606  1.8391 -0.1392
 5377TIP3   OH237621   0.607   2.063   1.262 -0.5780  0.5417  0.0278
 5377TIP3    H137622   0.519   2.099   1.270 -1.8666 -2.4857  0.8926
 5377TIP3    H237623   0.639   2.059   1.352 -0.2387  0.0190 -0.1143
 5378TIP3   OH237624   2.596   4.027   1.521  0.1235  0.0017 -0.8769
 5378TIP3    H137625   2.663   3.962   1.544  0.2447  0.3949 -0.0968
 5378TIP3    H237626   2.515   3.977   1.518 -0.1228  0.1132  1.6802
 5379TIP3   OH237627   2.135   2.351   2.590  0.1367 -0.0477  0.0072
 5379TIP3    H137628   2.228   2.367   2.607 -0.1071  0.9741  0.5070
 5379TIP3    H237629   2.102   2.315   2.672 -0.0218  0.1454  0.0291
 5380TIP3   OH237630   2.679   6.425  11.965  0.3041  0.1052  0.0429
 5380TIP3    H137631   2.719   6.354  11.915  3.2721  0.1823  2.0729
 5380TIP3    H237632   2.613   6.462  11.906  2.7047 -0.5539 -3.3546
 5381TIP3   OH237633   4.127   2.944  16.030 -0.2712 -0.3024 -0.2153
 5381TIP3    H137634   4.044   2.993  16.036 -1.0859 -1.6754  0.1976
 5381TIP3    H237635   4.114   2.885  15.956  0.3218 -0.5627 -0.1106
 5382TIP3   OH237636   6.397   3.210  10.578 -0.5969 -0.2408  0.6628
 5382TIP3    H137637   6.337   3.271  10.621 -2.3496 -0.4364 -1.2963
 5382TIP3    H237638   6.353   3.125  10.585 -1.6794 -0.0883 -2.4499
 5383TIP3   OH237639   4.480   0.102  15.771  0.1810  0.0904  0.2295
 5383TIP3    H137640   4.444   0.152  15.698 -1.4568  1.2873  1.7476
 5383TIP3    H237641   4.432   0.019  15.770 -0.7336  0.5893  0.6066
 5384TIP3   OH237642   0.007   5.520  10.922 -0.5632  0.0778  0.1367
 5384TIP3    H137643   0.034   5.525  10.831 -2.4784 -1.5496 -0.6011
 5384TIP3    H237644  -0.003   5.611  10.950 -0.4222  0.6023 -1.4347
 5385TIP3   OH237645   1.064   1.905   4.354 -0.1546  0.0081  0.1679
 5385TIP3    H137646   1.051   1.988   4.309 -0.7207  0.5783  1.3323
 5385TIP3    H237647   1.154   1.880   4.335 -0.5710 -0.1535 -1.8498
 5386TIP3   OH237648   4.584   1.411  16.850 -0.1831 -0.7876  0.2820
 5386TIP3    H137649   4.519   1.380  16.913  0.5828 -1.8163  0.5940
 5386TIP3    H237650   4.605   1.334  16.797 -1.5552  0.2586 -1.9628
 5387TIP3   OH237651   0.476   2.707  14.601  0.4677  0.0426  0.0230
 5387TIP3    H137652   0.448   2.788  14.557  1.0745  0.5854  0.6007
 5387TIP3    H237653   0.472   2.728  14.694 -1.0633 -1.1853  0.2667
 5388TIP3   OH237654   3.643   3.176   4.220  0.0960  0.4720  0.0098
 5388TIP3    H137655   3.579   3.176   4.148 -0.9244  0.0723  0.8843
 5388TIP3    H237656   3.727   3.157   4.177 -0.5142  0.0663 -1.0588
 5389TIP3   OH237657   4.630   3.564  14.242  0.4288  0.1164  0.8805
 5389TIP3    H137658   4.681   3.560  14.323  2.7381 -0.1597 -0.4987
 5389TIP3    H237659   4.694   3.546  14.173 -1.7755 -1.4344 -0.9040
 5390TIP3   OH237660   2.587   5.971   2.015  0.1906 -0.2285  0.6670
 5390TIP3    H137661   2.638   5.973   1.934 -0.3025  0.5204  0.3613
 5390TIP3    H237662   2.605   5.885   2.053 -0.3913 -1.0031 -0.7599
 5391TIP3   OH237663   0.605   2.372  15.656 -0.3781 -0.1330 -0.9293
 5391TIP3    H137664   0.627   2.464  15.667  0.6736 -0.3247 -1.2150
 5391TIP3    H237665   0.670   2.326  15.710  0.1221 -0.7520 -2.0097
 5392TIP3   OH237666   2.375   1.922   5.316 -0.6817  0.5681  0.1843
 5392TIP3    H137667   2.286   1.934   5.283 -0.0865  3.1811 -0.6837
 5392TIP3    H237668   2.382   1.981   5.391  0.4121  0.6535  0.0362
 5393TIP3   OH237669   1.704   1.517  13.923 -0.1481 -0.5747  0.2775
 5393TIP3    H137670   1.620   1.511  13.879  0.1237  0.6744 -0.4472
 5393TIP3    H237671   1.762   1.460  13.872 -0.0409  0.2216 -0.5103
 5394TIP3   OH237672   0.804   0.875   2.363  0.6582  0.0782 -0.5391
 5394TIP3    H137673   0.779   0.876   2.271  2.6010 -1.4109 -1.1354
 5394TIP3    H237674   0.895   0.907   2.363  0.2717  1.3034  1.0368
 5395TIP3   OH237675   4.447   6.296  12.290 -0.3899 -0.2279  0.0447
 5395TIP3    H137676   4.391   6.223  12.263 -0.7583  0.6935 -1.8454
 5395TIP3    H237677   4.394   6.374  12.273  0.8252  0.5826 -0.1143
 5396TIP3   OH237678   4.985   4.875  14.254 -0.3720  0.4317 -0.1231
 5396TIP3    H137679   5.007   4.934  14.326 -0.4291 -0.2735  0.4821
 5396TIP3    H237680   5.043   4.902  14.183  1.4567 -0.4130  0.9536
 5397TIP3   OH237681   0.610   6.554   0.818 -0.5394  0.0895 -0.1261
 5397TIP3    H137682   0.660   6.539   0.738  0.2977 -0.9355  0.5583
 5397TIP3    H237683   0.527   6.507   0.804 -0.6799  0.4810 -0.6424
 5398TIP3   OH237684   3.777   1.729   4.376  0.0784 -0.1893  0.2313
 5398TIP3    H137685   3.759   1.796   4.442 -1.4184 -0.9260  0.6175
 5398TIP3    H237686   3.730   1.760   4.298  0.0474 -0.3859  0.1715
 5399TIP3   OH237687   3.609   0.057   0.916  0.1705 -0.0359 -0.2927
 5399TIP3    H137688   3.582   0.027   0.829 -1.0268 -0.6635  0.2768
 5399TIP3    H237689   3.535   0.107   0.949  0.1174 -0.8093  0.8323
 5400TIP3   OH237690   4.111   6.596  11.214 -0.1463 -0.1847 -0.1969
 5400TIP3    H137691   4.164   6.672  11.237  1.4406 -0.5877 -2.2418
 5400TIP3    H237692   4.170   6.521  11.226 -0.9537 -0.8688 -0.3856
 5401TIP3   OH237693   1.799   6.286   5.277  0.6559 -0.0206 -0.5171
 5401TIP3    H137694   1.838   6.364   5.318  0.8515  0.3738 -1.4237
 5401TIP3    H237695   1.759   6.239   5.350  1.1218  0.5802  0.1509
 5402TIP3   OH237696   2.131   4.598   1.799  0.3713  0.0131  0.0855
 5402TIP3    H137697   2.166   4.573   1.714 -0.0147 -0.3678  0.0334
 5402TIP3    H237698   2.090   4.683   1.784 -1.8060 -1.0806 -0.7200
 5403TIP3   OH237699   4.225   0.384  13.151  0.0086  0.4111  0.2080
 5403TIP3    H137700   4.197   0.459  13.100 -3.9754 -0.6113  0.5428
 5403TIP3    H237701   4.230   0.417  13.241 -3.4649  0.1201  0.6505
 5404TIP3   OH237702   4.712   4.809   2.714  0.1808 -0.2465  0.3835
 5404TIP3    H137703   4.621   4.837   2.725  0.6143  1.6814 -0.5074
 5404TIP3    H237704   4.748   4.806   2.803 -0.2844  0.7473  0.6202
 5405TIP3   OH237705   5.942   1.833   3.430 -0.0585  0.5288  0.3514
 5405TIP3    H137706   5.946   1.774   3.354 -2.4453 -0.0619  0.5920
 5405TIP3    H237707   5.913   1.916   3.393  2.0732  1.2473  0.1938
 5406TIP3   OH237708   5.689   5.306  17.111  0.2747 -0.1397 -0.5001
 5406TIP3    H137709   5.621   5.250  17.148  1.2080  0.2498  1.9643
 5406TIP3    H237710   5.651   5.394  17.113  0.2356 -0.1507 -0.7236
 5407TIP3   OH237711   0.364   1.795  15.612 -0.4032  0.5794  0.3690
 5407TIP3    H137712   0.305   1.722  15.630 -2.2580  2.0592  0.6497
 5407TIP3    H237713   0.348   1.816  15.520 -0.1086  0.8293  0.3741
 5408TIP3   OH237714   6.214   5.690  14.368 -0.4315 -0.1709 -0.9672
 5408TIP3    H137715   6.219   5.762  14.305 -0.6938 -0.4870 -1.3591
 5408TIP3    H237716   6.134   5.706  14.417 -0.5262 -0.2268 -1.1009
 5409TIP3   OH237717   2.185   1.227  15.960  0.3543  0.6763 -0.3039
 5409TIP3    H137718   2.122   1.295  15.937  0.5360  1.4827  1.4312
 5409TIP3    H237719   2.179   1.220  16.056  3.2945  1.2122  0.0220
 5410TIP3   OH237720   4.379   0.631   4.814 -0.3046 -0.5959 -0.1506
 5410TIP3    H137721   4.377   0.585   4.730 -1.0007 -1.0190  0.0922
 5410TIP3    H237722   4.465   0.609   4.851  0.4643  0.4676 -1.2201
 5411TIP3   OH237723   0.606   3.079   4.491 -0.9008  0.0702  0.1156
 5411TIP3    H137724   0.690   3.115   4.461 -0.4449  0.3910  1.6655
 5411TIP3    H237725   0.541   3.118   4.433 -0.1118  1.0072 -0.1726
 5412TIP3   OH237726   2.172   6.001  12.492 -0.2710  0.4787  0.8776
 5412TIP3    H137727   2.194   6.045  12.574 -0.4539  0.3650  0.9876
 5412TIP3    H237728   2.245   6.023  12.433  0.9666 -1.1376  1.6977
 5413TIP3   OH237729   6.155   6.226  15.881  0.3647  1.1925 -1.0719
 5413TIP3    H137730   6.068   6.223  15.921 -0.5605 -0.4548 -3.0425
 5413TIP3    H237731   6.195   6.142  15.903  0.9884  1.4481 -1.2021
 5414TIP3   OH237732   5.200   6.073   3.463 -0.2989 -0.3633  0.1963
 5414TIP3    H137733   5.113   6.087   3.425  1.3421  2.3610 -3.0706
 5414TIP3    H237734   5.252   6.037   3.391  1.5935 -0.9210  1.7597
 5415TIP3   OH237735   4.440   0.304   1.714 -0.3129 -0.4821  0.0046
 5415TIP3    H137736   4.523   0.317   1.760 -0.8843 -0.4806  1.0736
 5415TIP3    H237737   4.463   0.305   1.622  1.1077 -1.9283  0.2926
 5416TIP3   OH237738   5.052   6.457  12.212 -0.5051  0.3010 -0.3054
 5416TIP3    H137739   5.063   6.548  12.237 -1.0967  0.4962 -0.7298
 5416TIP3    H237740   5.043   6.458  12.117 -0.3911 -0.2102 -0.3289
 5417TIP3   OH237741   2.690   1.256   0.952  0.1129 -0.3577 -0.6029
 5417TIP3    H137742   2.602   1.236   0.921  0.0412  1.4714 -1.7646
 5417TIP3    H237743   2.677   1.320   1.022  0.4829 -0.3311 -0.5542
 5418TIP3   OH237744   5.163   0.426  14.977 -0.2841 -0.3144  0.3636
 5418TIP3    H137745   5.072   0.429  15.007 -1.0917 -0.3736 -1.9391
 5418TIP3    H237746   5.192   0.517  14.978 -0.9345 -0.0889 -0.4797
 5419TIP3   OH237747   0.457   0.484  14.215  0.8002 -0.7557  0.1930
 5419TIP3    H137748   0.520   0.550  14.187 -0.4612 -0.0883 -1.1931
 5419TIP3    H237749   0.466   0.414  14.150 -2.1407  0.7969 -2.1422
 5420TIP3   OH237750   5.369   6.692   0.709 -0.2310 -0.5816  0.0006
 5420TIP3    H137751   5.437   6.728   0.653 -0.7095  1.4201  0.6341
 5420TIP3    H237752   5.356   6.758   0.777 -3.5719 -0.3255 -0.7152
 5421TIP3   OH237753   2.599   6.287  14.107 -0.3366 -0.4001  0.0304
 5421TIP3    H137754   2.541   6.220  14.071 -0.6840 -0.5705  0.8853
 5421TIP3    H237755   2.556   6.315  14.188  0.2338  0.2442  0.1177
 5422TIP3   OH237756   1.422   1.745   5.447 -0.1196  0.3291 -0.0233
 5422TIP3    H137757   1.414   1.720   5.355  0.9555 -0.2264  0.0221
 5422TIP3    H237758   1.487   1.815   5.448 -1.0781  1.2446  0.1818
 5423TIP3   OH237759   5.405   4.487  16.183  0.0915 -0.4582  0.6640
 5423TIP3    H137760   5.404   4.569  16.134 -0.0879  0.4330  2.0996
 5423TIP3    H237761   5.321   4.487  16.230  0.3635 -1.1376  1.1668
 5424TIP3   OH237762   1.305   3.690   0.281  0.2437 -0.7465  0.3310
 5424TIP3    H137763   1.304   3.781   0.249  0.1521 -0.8044  0.1706
 5424TIP3    H237764   1.231   3.685   0.341 -1.9444 -1.6594 -2.2660
 5425TIP3   OH237765   3.424   6.012  13.916 -0.0467 -0.0185  0.2817
 5425TIP3    H137766   3.366   6.039  13.845  1.4385  1.2058 -0.5439
 5425TIP3    H237767   3.456   5.925  13.890  2.3349  1.3705 -1.8856
 5426TIP3   OH237768   3.876   4.245  15.535 -0.6134 -0.0263  0.2945
 5426TIP3    H137769   3.812   4.220  15.467 -0.2654  0.6139 -0.2775
 5426TIP3    H237770   3.943   4.294  15.488 -1.5151  2.4811  1.4364
 5427TIP3   OH237771   5.659   6.166  15.872 -0.5076 -0.4628 -0.6515
 5427TIP3    H137772   5.612   6.117  15.940  0.0486  0.3742  0.3748
 5427TIP3    H237773   5.688   6.099  15.810 -2.1313 -1.1100 -0.7699
 5428TIP3   OH237774   2.772   4.660  13.492 -0.6567  0.1057 -0.3396
 5428TIP3    H137775   2.828   4.669  13.569 -1.8741  1.4580  0.4248
 5428TIP3    H237776   2.743   4.568  13.495 -0.8215  0.1820  0.9151
 5429TIP3   OH237777   4.575   0.892   3.563  0.4769 -0.1638 -0.0231
 5429TIP3    H137778   4.608   0.976   3.532 -0.8152  0.9946  1.5863
 5429TIP3    H237779   4.642   0.861   3.625 -0.1339  0.8851  1.2064
 5430TIP3   OH237780   5.956   0.746  17.213 -0.2107  0.2233  0.2330
 5430TIP3    H137781   5.933   0.721  17.302 -0.0241 -2.4963 -0.4038
 5430TIP3    H237782   6.051   0.732  17.208 -0.2842 -0.0771 -0.4920
 5431TIP3   OH237783   5.246   6.572  14.642  0.0060 -0.8242  0.6126
 5431TIP3    H137784   5.271   6.632  14.712 -0.2991 -0.6568  0.5773
 5431TIP3    H237785   5.204   6.627  14.576 -0.9944 -1.1812  0.9294
 5432TIP3   OH237786   4.532   6.438  12.604 -0.1475  0.0710 -0.4401
 5432TIP3    H137787   4.487   6.476  12.529 -0.1754  1.8360  0.4116
 5432TIP3    H237788   4.482   6.358  12.623  0.0309 -0.5655 -2.4160
 5433TIP3   OH237789   1.719   2.975   4.052 -0.3034 -0.1936  0.4707
 5433TIP3    H137790   1.780   2.904   4.073 -0.3695 -0.1752  0.7339
 5433TIP3    H237791   1.753   3.014   3.972 -0.0909 -0.3233  0.4981
 5434TIP3   OH237792   2.774   5.390   5.337  0.5802 -0.1755 -0.0989
 5434TIP3    H137793   2.740   5.305   5.363  1.8269 -0.5955  0.2460
 5434TIP3    H237794   2.817   5.424   5.416  1.1765  0.2123 -0.5818
 5435TIP3   OH237795   4.471   1.812  15.605 -0.2430 -0.3587  0.1782
 5435TIP3    H137796   4.529   1.736  15.608 -0.6751 -0.7984 -1.5647
 5435TIP3    H237797   4.446   1.826  15.696  2.3837 -0.2872  0.9860
 5436TIP3   OH237798   2.576   1.399  16.573 -0.1413 -0.0728  0.0130
 5436TIP3    H137799   2.555   1.306  16.587 -1.3746  0.1725 -0.0723
 5436TIP3    H237800   2.600   1.404  16.481  0.0817 -0.3302  0.0548
 5437TIP3   OH237801   1.050   0.591   5.022 -0.8302  0.5330 -0.3312
 5437TIP3    H137802   1.116   0.657   5.003  0.6666  0.0807  2.7170
 5437TIP3    H237803   0.971   0.641   5.040 -0.4863  1.2784 -0.8405
 5438TIP3   OH237804   5.962   2.699   4.120 -0.3664  0.0898 -0.3433
 5438TIP3    H137805   6.031   2.713   4.056 -1.0260 -1.2279 -1.3957
 5438TIP3    H237806   5.883   2.735   4.079 -0.5099  0.6858  0.4253
 5439TIP3   OH237807   2.278   6.776  15.824  0.6336 -0.3111  0.2436
 5439TIP3    H137808   2.245   6.796  15.912  1.0172  0.9208  0.1234
 5439TIP3    H237809   2.367   6.811  15.823  1.1640 -1.6061 -0.1778
 5440TIP3   OH237810   6.162   2.572   2.247  0.0481 -0.4948  0.4178
 5440TIP3    H137811   6.256   2.556   2.255  0.1449 -0.0634  0.1747
 5440TIP3    H237812   6.137   2.526   2.167 -0.2143 -1.7444  1.1936
 5441TIP3   OH237813   2.971   2.061   2.909  0.4969 -0.6207 -0.0224
 5441TIP3    H137814   2.977   2.032   3.000  1.6368 -1.6506 -0.3992
 5441TIP3    H237815   2.996   1.984   2.858 -0.6204 -0.2089 -1.2386
 5442TIP3   OH237816   2.785   6.358   2.183 -0.4354  0.1624 -0.1383
 5442TIP3    H137817   2.840   6.281   2.170 -1.2326 -0.7350  1.4315
 5442TIP3    H237818   2.813   6.420   2.116  0.4659 -1.3579 -1.2260
 5443TIP3   OH237819   1.357   3.919   3.993  0.4001  0.1952  0.0476
 5443TIP3    H137820   1.365   3.997   3.938  0.5998 -0.1338 -0.3967
 5443TIP3    H237821   1.343   3.953   4.081  0.6740  0.7356 -0.1138
 5444TIP3   OH237822   0.649   3.738  16.072 -0.3046 -0.5071 -0.0268
 5444TIP3    H137823   0.745   3.741  16.074 -0.1728 -1.3337 -2.3073
 5444TIP3    H237824   0.625   3.779  15.989 -2.0130  0.4800  0.8917
 5445TIP3   OH237825   0.952   3.789   5.273  0.3445  0.0752  0.1160
 5445TIP3    H137826   0.900   3.746   5.205 -0.5986  0.4429  0.5835
 5445TIP3    H237827   1.028   3.732   5.285  1.6691  1.0784 -2.7286
 5446TIP3   OH237828   2.358   0.568   3.057  0.0410 -0.0637 -0.3892
 5446TIP3    H137829   2.267   0.587   3.038  0.5087  2.5143 -0.4290
 5446TIP3    H237830   2.401   0.654   3.056  1.9273 -0.8348  2.4377
 5447TIP3   OH237831   5.944   6.241   3.515 -0.0112 -0.0682  0.2074
 5447TIP3    H137832   5.902   6.294   3.447  0.6871  2.4369  1.6127
 5447TIP3    H237833   5.997   6.178   3.466 -1.4384  0.0020 -1.5455
 5448TIP3   OH237834   2.651   3.013   2.945  0.3763  0.3517  0.2181
 5448TIP3    H137835   2.662   2.960   2.865  2.8479 -0.5581  1.0839
 5448TIP3    H237836   2.658   3.104   2.914 -0.1807  0.0748 -0.7821
 5449TIP3   OH237837   6.247   0.043  12.549  0.6948 -0.0071 -0.2759
 5449TIP3    H137838   6.249  -0.046  12.584  1.3540  0.4325  0.8735
 5449TIP3    H237839   6.328   0.084  12.581 -0.5548  1.6257  1.0216
 5450TIP3   OH237840   3.012   5.598  11.733  0.2178 -0.2706  0.5856
 5450TIP3    H137841   3.033   5.587  11.641 -0.0143 -1.3638  0.6590
 5450TIP3    H237842   2.931   5.549  11.746  0.8688 -1.1052  1.6195
 5451TIP3   OH237843   5.459   2.021  14.860 -0.1180  0.2311  0.1544
 5451TIP3    H137844   5.474   2.088  14.794 -2.5108  0.3956 -0.3095
 5451TIP3    H237845   5.495   2.058  14.941  0.1896  1.3000 -0.4502
 5452TIP3   OH237846   2.689   4.298   5.002 -0.8507 -0.5244  0.0126
 5452TIP3    H137847   2.752   4.226   5.001 -0.9165 -0.5807 -0.0754
 5452TIP3    H237848   2.728   4.363   5.061 -0.7920 -0.6318  0.0929
 5453TIP3   OH237849   2.734   4.452   0.686 -0.0704 -0.2222 -0.7393
 5453TIP3    H137850   2.672   4.432   0.756  0.8617 -0.9832 -0.1147
 5453TIP3    H237851   2.733   4.547   0.680 -1.3707 -0.2173 -0.8230
 5454TIP3   OH237852   3.313   3.231  16.667 -0.3544  0.4461 -0.6159
 5454TIP3    H137853   3.346   3.142  16.658 -0.3495  0.1496  1.6947
 5454TIP3    H237854   3.250   3.241  16.596  0.3304 -1.0483 -1.4845
 5455TIP3   OH237855   2.626   4.228   2.573  0.5748 -0.1537  0.1414
 5455TIP3    H137856   2.636   4.270   2.487 -1.6556 -2.4683 -1.3822
 5455TIP3    H237857   2.532   4.219   2.584  0.8699 -3.7161  0.8028
 5456TIP3   OH237858   6.577   6.407   4.905 -0.6338 -0.8137  0.3305
 5456TIP3    H137859   6.637   6.478   4.928 -1.5097  0.7798 -1.9596
 5456TIP3    H237860   6.622   6.359   4.835 -1.8162  0.2004 -1.1835
 5457TIP3   OH237861   2.086   1.738  10.741 -0.2654  0.0970  0.0870
 5457TIP3    H137862   2.051   1.786  10.666  0.0221  0.0311 -0.0915
 5457TIP3    H237863   2.158   1.686  10.705  2.4300  2.8826  0.9489
 5458TIP3   OH237864   1.718   0.042  14.759 -0.0100  0.4988  0.2060
 5458TIP3    H137865   1.784   0.073  14.697  1.0514  0.5047  1.2903
 5458TIP3    H237866   1.737   0.091  14.840 -1.0394  0.1391  0.6792
 5459TIP3   OH237867   0.082   1.172  17.029 -0.2080 -0.0976 -0.3479
 5459TIP3    H137868   0.137   1.128  17.094 -1.3913  0.3337  1.0032
 5459TIP3    H237869  -0.005   1.135  17.043 -0.8119  1.1784 -0.5712
 5460TIP3   OH237870   1.915   5.184   2.126 -0.6782 -0.2117  0.1083
 5460TIP3    H137871   1.891   5.186   2.033 -0.1862 -0.5628 -0.0300
 5460TIP3    H237872   1.932   5.091   2.144 -0.1196 -0.0590  0.3792
 5461TIP3   OH237873   4.536   4.195  11.494  0.2338 -0.3046  0.7458
 5461TIP3    H137874   4.562   4.226  11.408 -0.3174  1.6209  1.2176
 5461TIP3    H237875   4.579   4.110  11.504  1.4649  0.1022 -0.8282
 5462TIP3   OH237876   1.055   6.070   0.383 -0.2635 -0.2569  0.3806
 5462TIP3    H137877   0.985   6.023   0.337 -0.9469  0.8767  0.2211
 5462TIP3    H237878   1.115   6.095   0.313 -2.3746  3.3605 -0.3884
 5463TIP3   OH237879   0.678   2.377   4.645  0.4248 -0.4686  0.1545
 5463TIP3    H137880   0.710   2.311   4.707  1.3510  0.2697  0.4953
 5463TIP3    H237881   0.675   2.458   4.696  0.4215 -0.0127 -0.5514
 5464TIP3   OH237882   0.037   5.742   3.555  0.5441  0.1077 -0.2816
 5464TIP3    H137883   0.078   5.790   3.627  0.7445 -0.0141 -0.3143
 5464TIP3    H237884   0.090   5.764   3.479 -0.7525  1.7382 -0.7834
 5465TIP3   OH237885   3.656   2.270  12.763 -0.1099  0.0842 -0.2172
 5465TIP3    H137886   3.613   2.262  12.849  0.3827  0.1342  0.0378
 5465TIP3    H237887   3.724   2.202  12.764  1.4173  1.5346  0.3444
 5466TIP3   OH237888   5.692   3.680   5.394 -0.6048 -0.0026  0.1543
 5466TIP3    H137889   5.702   3.637   5.479  1.8143  2.4975  1.3029
 5466TIP3    H237890   5.720   3.615   5.330  1.6082 -0.6550  1.6852
 5467TIP3   OH237891   0.294   3.042  12.416  0.2115 -0.6640 -0.3294
 5467TIP3    H137892   0.319   3.011  12.328 -2.3696 -1.8587 -0.7264
 5467TIP3    H237893   0.304   2.965  12.472 -1.0674 -0.7672 -0.2203
 5468TIP3   OH237894   4.536   3.746   4.261 -0.4551  0.0199 -0.1276
 5468TIP3    H137895   4.492   3.735   4.176  0.0837  1.2956 -0.6006
 5468TIP3    H237896   4.519   3.837   4.285 -0.8553 -0.4158  1.3043
 5469TIP3   OH237897   3.530   1.966   3.529 -0.0864  0.0387 -0.3992
 5469TIP3    H137898   3.539   1.874   3.502 -1.0928 -0.6016  1.3364
 5469TIP3    H237899   3.620   1.994   3.549 -0.0913 -1.8184  2.8055
 5470TIP3   OH237900   3.424   1.950   5.243 -0.0613 -0.1605  0.0245
 5470TIP3    H137901   3.504   1.989   5.279 -0.1052  0.7033 -0.7738
 5470TIP3    H237902   3.421   1.980   5.152 -0.7494 -1.0478 -0.2612
 5471TIP3   OH237903   1.863   4.649   3.960 -0.2858 -0.1204 -0.6813
 5471TIP3    H137904   1.950   4.654   4.000  0.5010 -2.4432 -1.9054
 5471TIP3    H237905   1.803   4.674   4.031  1.3122  0.7479  0.4275
 5472TIP3   OH237906   1.154   4.013  13.879 -0.1881 -0.3501 -0.0203
 5472TIP3    H137907   1.205   3.935  13.854  1.5635  0.5415  0.5908
 5472TIP3    H237908   1.209   4.087  13.854 -1.1902  0.6800  0.6948
 5473TIP3   OH237909   2.460   3.369   3.184  0.3157 -0.1452  0.4419
 5473TIP3    H137910   2.404   3.385   3.260  1.6718 -0.0756  1.4790
 5473TIP3    H237911   2.466   3.274   3.178 -0.4513 -0.1647 -0.0978
 5474TIP3   OH237912   1.796   5.636   4.280 -0.3851 -0.2442 -0.3030
 5474TIP3    H137913   1.783   5.666   4.370  0.6502  1.1080 -0.5666
 5474TIP3    H237914   1.860   5.565   4.287  0.0455  0.1704 -0.0112
 5475TIP3   OH237915   4.930   3.268  15.556 -0.2068  0.4212  0.0121
 5475TIP3    H137916   4.979   3.316  15.489  1.2086 -1.0910 -0.1153
 5475TIP3    H237917   4.991   3.260  15.629  0.2620 -2.4494 -0.5646
 5476TIP3   OH237918   1.505   3.485  16.968  0.6105 -0.5997 -0.2668
 5476TIP3    H137919   1.488   3.451  16.880  1.3521 -1.5217 -0.0678
 5476TIP3    H237920   1.551   3.414  17.013  0.7378  0.0683  0.6891
 5477TIP3   OH237921   0.646   5.310  11.543  0.0379  0.0952  0.3068
 5477TIP3    H137922   0.599   5.389  11.566 -1.3699 -0.5942 -0.0798
 5477TIP3    H237923   0.598   5.274  11.468  0.5503 -1.1873  0.5621
 5478TIP3   OH237924   6.016   1.596  16.807  0.3153 -0.0225  0.3256
 5478TIP3    H137925   6.002   1.599  16.901  0.9768 -2.7286  0.6067
 5478TIP3    H237926   6.091   1.654  16.792 -0.5015  1.3378  1.2409
 5479TIP3   OH237927   3.688   1.586   4.066 -0.0879 -0.0528 -0.4714
 5479TIP3    H137928   3.776   1.549   4.058  0.7560  1.1538  2.0311
 5479TIP3    H237929   3.693   1.672   4.025 -0.2616 -0.2001 -0.8045
 5480TIP3   OH237930   5.538   6.819   2.785  0.1302  0.3183  0.0492
 5480TIP3    H137931   5.582   6.904   2.792 -0.0873  0.4011  0.4473
 5480TIP3    H237932   5.560   6.787   2.698  0.9841  0.3600  0.2430
 5481TIP3   OH237933   1.033   2.344  14.338 -0.0334 -0.5017  0.2208
 5481TIP3    H137934   0.953   2.291  14.332  0.3581 -1.1883  0.8917
 5481TIP3    H237935   1.071   2.321  14.423  0.4651  0.4188  0.2617
 5482TIP3   OH237936   5.361   0.482  16.054  0.0675 -0.3097  0.1832
 5482TIP3    H137937   5.312   0.453  15.977  1.5724  0.8079 -1.2659
 5482TIP3    H237938   5.449   0.446  16.042  1.0619  2.0077  0.0073
 5483TIP3   OH237939   1.119   5.805   2.075  0.0390 -0.4999 -0.3928
 5483TIP3    H137940   1.093   5.897   2.070 -0.5221 -0.5299  1.3441
 5483TIP3    H237941   1.177   5.800   2.151  1.9458 -1.1966 -1.8027
 5484TIP3   OH237942   4.081   6.420   5.418 -0.2832 -0.5293 -0.1590
 5484TIP3    H137943   4.119   6.449   5.335  1.5849  0.6125  1.0189
 5484TIP3    H237944   4.034   6.497   5.451  0.4784 -0.3937  0.6446
 5485TIP3   OH237945   4.486   4.169  10.269  0.0380  0.2097  0.4899
 5485TIP3    H137946   4.572   4.184  10.310  0.6066  0.0723 -0.6158
 5485TIP3    H237947   4.444   4.255  10.269 -1.2096 -0.2150  3.9233
 5486TIP3   OH237948   6.696   6.494  12.190 -0.3843 -0.1573 -0.2434
 5486TIP3    H137949   6.631   6.434  12.225 -0.2002 -0.6999 -0.8003
 5486TIP3    H237950   6.758   6.508  12.262 -0.2752 -0.8665 -0.1919
 5487TIP3   OH237951   6.794   1.477   3.893 -0.0001  0.0203 -0.0738
 5487TIP3    H137952   6.825   1.476   3.983 -1.1521  0.0281  0.3434
 5487TIP3    H237953   6.841   1.406   3.850  0.8730  0.2849  0.4163
 5488TIP3   OH237954   2.019   0.383  14.079  0.8032 -0.9601 -0.7277
 5488TIP3    H137955   2.003   0.330  14.157  1.6738  0.5261  0.5117
 5488TIP3    H237956   2.115   0.392  14.075  0.7164  3.1034  1.0488
 5489TIP3   OH237957   2.976   0.507   5.194 -0.0146 -0.1201 -0.0981
 5489TIP3    H137958   3.071   0.514   5.186 -0.1559  0.1627 -1.8719
 5489TIP3    H237959   2.959   0.516   5.288  1.8097 -1.7101  0.4407
 5490TIP3   OH237960   4.787   0.419   0.445 -0.1395  0.1368 -0.7064
 5490TIP3    H137961   4.768   0.364   0.369  0.9791  0.1392 -1.0051
 5490TIP3    H237962   4.863   0.378   0.486 -0.8710 -0.0019  0.5656
 5491TIP3   OH237963   5.677   5.901   6.277  0.0932  0.0366 -0.4311
 5491TIP3    H137964   5.621   5.849   6.335 -0.5050  0.5628 -0.5174
 5491TIP3    H237965   5.737   5.838   6.237  0.7739 -0.2846  1.0390
 5492TIP3   OH237966   3.216   1.285  15.890  0.4295 -0.7789 -0.0927
 5492TIP3    H137967   3.288   1.231  15.856  1.5459 -0.7988  2.1418
 5492TIP3    H237968   3.259   1.361  15.929 -0.8789 -0.1196  0.1173
 5493TIP3   OH237969   6.561   4.484  11.884 -0.6430 -0.2563 -0.0530
 5493TIP3    H137970   6.595   4.470  11.972  0.4744 -0.1716 -0.4511
 5493TIP3    H237971   6.521   4.571  11.888  1.6705  0.8990 -0.2403
 5494TIP3   OH237972   3.400   2.847  12.894 -0.0385 -0.4428 -0.3747
 5494TIP3    H137973   3.310   2.848  12.925 -0.1788 -2.7055 -0.5544
 5494TIP3    H237974   3.402   2.778  12.828  2.0447 -1.1358  0.3415
 5495TIP3   OH237975   4.013   1.546   5.291 -0.1774 -0.4408  0.0717
 5495TIP3    H137976   4.007   1.641   5.297  0.9076 -0.2282 -1.5820
 5495TIP3    H237977   3.951   1.522   5.221 -1.2583 -1.0868  1.2186
 5496TIP3   OH237978   3.615   4.059  13.716 -0.0825  1.0814  0.5788
 5496TIP3    H137979   3.705   4.074  13.745  0.5137  0.8179 -1.0589
 5496TIP3    H237980   3.605   4.113  13.638 -0.3644 -1.1031 -0.9765
 5497TIP3   OH237981   3.418   4.814  12.793 -0.4511  0.0482  0.3504
 5497TIP3    H137982   3.461   4.737  12.831 -1.6527 -0.4014  0.8347
 5497TIP3    H237983   3.425   4.800  12.698  0.0962 -0.2161  0.4244
 5498TIP3   OH237984   5.876   3.407   2.777 -0.5368 -0.7133  0.2425
 5498TIP3    H137985   5.783   3.414   2.800 -0.9300 -0.3237 -1.3433
 5498TIP3    H237986   5.877   3.407   2.681  1.2205  1.1724  0.2035
 5499TIP3   OH237987   4.941   4.073  14.873 -0.1030  0.2437  0.3703
 5499TIP3    H137988   5.010   4.138  14.861 -0.5691  0.7523  0.4226
 5499TIP3    H237989   4.863   4.113  14.835 -0.5780  0.0562  1.1310
 5500TIP3   OH237990   6.814   5.125   5.187  0.1865  0.4838 -0.1716
 5500TIP3    H137991   6.810   5.173   5.270 -0.1299  0.6035 -0.2573
 5500TIP3    H237992   6.903   5.141   5.155 -0.4777  2.5900 -1.1307
 5501TIP3   OH237993   6.582   5.735   1.727 -0.0197  0.2778 -0.0468
 5501TIP3    H137994   6.541   5.659   1.768  1.8086 -0.6232  0.2538
 5501TIP3    H237995   6.602   5.794   1.799  0.3822  0.1032 -0.0088
 5502TIP3   OH237996   2.163   6.221   2.304 -0.1753  0.1426  0.4928
 5502TIP3    H137997   2.249   6.190   2.277 -0.7787 -2.6986  1.5180
 5502TIP3    H237998   2.130   6.268   2.228  2.2721  1.4405  0.1130
 5503TIP3   OH237999   6.001   1.581  13.612 -0.1455 -0.4995 -0.2907
 5503TIP3    H138000   6.018   1.645  13.682  2.7118 -1.8331  0.3750
 5503TIP3    H238001   5.907   1.564  13.618 -0.2682  0.5740  2.2320
 5504TIP3   OH238002   5.789   2.350   5.139 -0.4779 -0.3122  0.0028
 5504TIP3    H138003   5.876   2.311   5.148 -1.5048 -2.8733 -0.3901
 5504TIP3    H238004   5.784   2.413   5.211  2.3031  1.2779 -1.0166
 5505TIP3   OH238005   0.805   4.946   2.654 -0.2148 -0.1390  0.1851
 5505TIP3    H138006   0.730   5.004   2.651 -0.2363 -0.1699  0.1290
 5505TIP3    H238007   0.855   4.975   2.731 -0.6264 -0.5434  0.6113
 5506TIP3   OH238008   1.511   1.844  10.469 -0.4991  0.1669 -0.0559
 5506TIP3    H138009   1.488   1.922  10.420  2.9959  2.0599  0.9526
 5506TIP3    H238010   1.463   1.852  10.552 -0.2558  1.2098 -0.0078
 5507TIP3   OH238011   5.433   3.615  16.414 -0.3157 -0.0875  0.2567
 5507TIP3    H138012   5.419   3.520  16.412 -2.1124  0.1385  0.5931
 5507TIP3    H238013   5.475   3.631  16.499 -1.8261 -0.3816  1.0821
 5508TIP3   OH238014   4.184   4.330   0.884  0.8221 -0.0919  0.1124
 5508TIP3    H138015   4.210   4.275   0.957  3.2974  0.9790  0.1329
 5508TIP3    H238016   4.265   4.343   0.833 -0.5363  0.2372 -2.1110
 5509TIP3   OH238017   4.414   0.812  14.611 -0.2427  0.4498 -0.7061
 5509TIP3    H138018   4.481   0.843  14.551  0.0532 -1.6515 -1.5518
 5509TIP3    H238019   4.449   0.829  14.698  0.2549  1.6132 -1.1168
 5510TIP3   OH238020   4.883   4.278   2.253 -0.1093  0.2388  0.0933
 5510TIP3    H138021   4.937   4.276   2.174  1.2134 -0.7989  0.9846
 5510TIP3    H238022   4.838   4.194   2.253  0.9120 -0.3340  1.0940
 5511TIP3   OH238023   1.380   0.903  14.307  0.6391 -0.2606  0.3787
 5511TIP3    H138024   1.351   0.960  14.378 -0.0387  0.6532 -0.5899
 5511TIP3    H238025   1.468   0.874  14.333  0.8131  0.8674  1.1153
 5512TIP3   OH238026   0.884   0.544   1.222 -0.3368 -0.0060 -0.2067
 5512TIP3    H138027   0.927   0.461   1.200 -1.2115  0.0664 -2.3662
 5512TIP3    H238028   0.808   0.519   1.274 -0.2951 -0.5116 -0.3878
 5513TIP3   OH238029   5.985   5.885  16.500 -0.4643 -0.6223 -0.3980
 5513TIP3    H138030   5.927   5.811  16.523  0.1489 -1.5076 -1.5810
 5513TIP3    H238031   6.070   5.845  16.484 -0.5176  0.0311 -2.8475
 5514TIP3   OH238032   4.429   2.459   6.481 -0.1709 -0.8903 -0.0256
 5514TIP3    H138033   4.506   2.494   6.527 -0.5960  0.9576 -0.6359
 5514TIP3    H238034   4.461   2.442   6.393 -0.0585 -1.7247  0.1724
 5515TIP3   OH238035   3.321   3.795   6.506 -0.1019 -0.4108  0.0344
 5515TIP3    H138036   3.245   3.852   6.496 -0.3383 -0.8651 -0.7717
 5515TIP3    H238037   3.296   3.713   6.464  0.0089 -1.3422  1.7073
 5516TIP3   OH238038   6.259   0.014   0.850 -0.0122  0.6477  0.1999
 5516TIP3    H138039   6.250   0.066   0.930 -2.1497 -0.0356  0.4527
 5516TIP3    H238040   6.200   0.054   0.787 -1.6277 -1.3045  0.3586
 5517TIP3   OH238041   0.494   2.859  13.856  0.0817  0.0881 -0.2467
 5517TIP3    H138042   0.578   2.849  13.900  0.1571  0.5265 -0.2793
 5517TIP3    H238043   0.487   2.954  13.840  0.1411 -0.0703 -1.3214
 5518TIP3   OH238044   4.899   2.628   5.648 -0.4407  0.0237 -0.0947
 5518TIP3    H138045   4.894   2.569   5.574 -0.3927  1.2599 -1.1123
 5518TIP3    H238046   4.837   2.593   5.712 -0.8020 -0.8060 -0.8935
 5519TIP3   OH238047   6.372   2.323  13.432  0.1146 -0.1454 -0.1304
 5519TIP3    H138048   6.354   2.362  13.347  0.9988  1.0984  0.2314
 5519TIP3    H238049   6.324   2.378  13.494 -0.1108 -0.7381  0.2252
 5520TIP3   OH238050   4.397   2.216   5.807 -0.1262 -0.3952 -0.2888
 5520TIP3    H138051   4.319   2.255   5.768 -0.6034 -0.3196  0.6903
 5520TIP3    H238052   4.389   2.237   5.901  1.2637 -0.0507 -0.2218
 5521TIP3   OH238053   0.131   1.326  16.128 -0.1184  0.1547  0.2198
 5521TIP3    H138054   0.093   1.409  16.159 -1.1555  0.6890 -2.2146
 5521TIP3    H238055   0.205   1.310  16.186  0.0916  2.7741  0.8017
 5522TIP3   OH238056   2.743   6.582   3.099  0.3891  0.3754 -0.3343
 5522TIP3    H138057   2.754   6.673   3.126 -0.6587  0.1750  0.8312
 5522TIP3    H238058   2.753   6.584   3.004 -0.0528  1.7804 -0.3720
 5523TIP3   OH238059   5.060   6.141   5.460  0.8266 -0.0221 -0.0426
 5523TIP3    H138060   5.083   6.073   5.397  0.2180 -0.5002  0.2432
 5523TIP3    H238061   5.062   6.097   5.545  1.3272  0.5418  0.2491
 5524TIP3   OH238062   6.697   5.872  12.523  0.1245  0.5822  0.1848
 5524TIP3    H138063   6.612   5.907  12.495  0.8451  1.2510 -1.2753
 5524TIP3    H238064   6.761   5.936  12.491  1.2446 -0.3248  0.5335
 5525TIP3   OH238065   3.127   5.245  10.189 -0.3635 -0.5172 -0.0345
 5525TIP3    H138066   3.117   5.152  10.168 -0.1861 -1.0170  1.8838
 5525TIP3    H238067   3.161   5.246  10.279 -0.5240  1.4135  0.0559
 5526TIP3   OH238068   6.754   5.727  11.894  0.3567 -0.5926  0.2083
 5526TIP3    H138069   6.739   5.816  11.860 -1.1498 -0.3551  1.3486
 5526TIP3    H238070   6.819   5.690  11.836  1.7034  1.5649  0.2120
 5527TIP3   OH238071   1.137   2.916   5.585  0.7646  0.6013 -0.5385
 5527TIP3    H138072   1.157   3.003   5.553  1.1269  0.4410 -0.7504
 5527TIP3    H238073   1.184   2.857   5.526  2.2598  0.3238  0.8467
 5528TIP3   OH238074   3.045   2.001  15.008  0.1471  0.5101 -0.0324
 5528TIP3    H138075   3.106   1.964  15.071 -0.8338  1.2237  1.4119
 5528TIP3    H238076   3.099   2.049  14.946  1.1028  0.3844  0.6926
 5529TIP3   OH238077   3.144   0.883  16.861  0.8594  0.3400 -0.5905
 5529TIP3    H138078   3.154   0.859  16.953 -2.4701  1.7274  0.2594
 5529TIP3    H238079   3.087   0.814  16.824 -0.3550  1.4004 -0.7591
 5530TIP3   OH238080   1.819   6.037   2.277 -0.3369  0.1494  0.1994
 5530TIP3    H138081   1.790   6.046   2.186 -0.5910 -2.1203 -0.0064
 5530TIP3    H238082   1.741   6.007   2.323  0.2890 -0.6675  0.7498
 5531TIP3   OH238083   4.877   3.309  10.889  0.3082  0.2051 -0.0494
 5531TIP3    H138084   4.931   3.232  10.873  1.2389  1.0105 -0.8887
 5531TIP3    H238085   4.908   3.374  10.827 -1.1155  0.9581 -0.0215
 5532TIP3   OH238086   6.055   5.140  12.360  0.1005 -0.0085 -0.2341
 5532TIP3    H138087   6.078   5.153  12.268  0.2488 -1.1617 -0.3771
 5532TIP3    H238088   6.116   5.196  12.408 -1.0296  1.8645 -0.8820
 5533TIP3   OH238089   4.534   5.435  14.816 -0.5077 -0.4558  0.2624
 5533TIP3    H138090   4.456   5.453  14.868 -0.5386 -0.8595  0.3559
 5533TIP3    H238091   4.525   5.344  14.789 -1.7515  0.4239 -2.6332
 5534TIP3   OH238092   2.889   1.550  12.096  0.1483 -0.2726  0.4899
 5534TIP3    H138093   2.875   1.631  12.145  2.0841  0.0168  0.6510
 5534TIP3    H238094   2.877   1.481  12.161 -2.8138 -0.2749  0.0730
 5535TIP3   OH238095   2.131   4.378   3.420 -0.2707  0.1983  0.3049
 5535TIP3    H138096   2.145   4.283   3.419  1.2204  0.3860  1.0274
 5535TIP3    H238097   2.095   4.398   3.333 -2.6059 -1.2680  0.8563
 5536TIP3   OH238098   2.102   0.022  12.800  0.0409  0.2968 -0.1929
 5536TIP3    H138099   2.189   0.006  12.763 -0.1636 -1.2467 -0.0938
 5536TIP3    H238100   2.118   0.073  12.879  0.8248  0.2840 -0.3352
 5537TIP3   OH238101   0.232   4.071  12.195  0.3629 -0.2939  0.1809
 5537TIP3    H138102   0.214   4.129  12.270  0.2718 -1.2337  0.9049
 5537TIP3    H238103   0.281   4.126  12.134  0.3756  0.5209  0.8974
 5538TIP3   OH238104   4.835   2.454   4.468 -0.1897  0.0251 -0.2725
 5538TIP3    H138105   4.823   2.472   4.375  1.0776  0.5727 -0.3535
 5538TIP3    H238106   4.804   2.364   4.480  1.0589 -0.6010 -1.5385
 5539TIP3   OH238107   0.371   2.086  16.181  0.5877 -0.1833  0.0950
 5539TIP3    H138108   0.466   2.076  16.171  0.7850  0.3828  1.2841
 5539TIP3    H238109   0.336   2.064  16.094  1.6778 -1.8771  0.0441
 5540TIP3   OH238110   6.536   2.296  11.986  0.1767 -0.0850  0.0054
 5540TIP3    H138111   6.584   2.373  12.019 -1.1654  0.8951 -0.2354
 5540TIP3    H238112   6.538   2.234  12.058 -0.2158  0.8904  0.8875
 5541TIP3   OH238113   2.044   3.659  13.301 -0.9451  0.0513 -0.2645
 5541TIP3    H138114   2.043   3.752  13.281  1.7973  0.2737  0.2942
 5541TIP3    H238115   1.955   3.640  13.332 -1.4475  2.5283 -0.0321
 5542TIP3   OH238116   1.907   2.081   2.396 -0.2203  0.3656 -0.0112
 5542TIP3    H138117   1.888   2.174   2.401 -0.4359  0.3450 -0.4406
 5542TIP3    H238118   1.980   2.068   2.457 -0.5355  0.7192  0.4495
 5543TIP3   OH238119   2.479   0.880  13.122 -0.3132 -0.1642  0.3543
 5543TIP3    H138120   2.406   0.941  13.132 -0.2330 -0.1025  0.5854
 5543TIP3    H238121   2.547   0.915  13.180  1.2128  1.7613 -2.3753
 5544TIP3   OH238122   6.324   3.205   2.060 -0.1765 -0.0925 -0.0566
 5544TIP3    H138123   6.293   3.238   1.976  0.1917 -1.4322 -0.7546
 5544TIP3    H238124   6.254   3.147   2.090  0.5695 -1.2674 -0.4930
 5545TIP3   OH238125   3.790   1.671  11.105  0.7987  0.0891 -0.1760
 5545TIP3    H138126   3.728   1.603  11.078  0.0022  0.6092  0.2856
 5545TIP3    H238127   3.861   1.665  11.042 -0.2426  0.2059 -1.3979
 5546TIP3   OH238128   5.194   4.589  11.655 -0.4626 -0.5436 -0.5381
 5546TIP3    H138129   5.257   4.589  11.583 -0.3841  1.0045 -0.5138
 5546TIP3    H238130   5.127   4.652  11.627 -0.2505  0.3445  0.8691
 5547TIP3   OH238131   0.821   4.357   3.542 -0.0383  0.3599  0.4403
 5547TIP3    H138132   0.854   4.447   3.545 -1.4792  0.9452 -0.3852
 5547TIP3    H238133   0.866   4.317   3.468 -1.4117  1.2887 -0.9593
 5548TIP3   OH238134   5.716   1.543  13.744  0.1116 -0.2377  0.8274
 5548TIP3    H138135   5.627   1.562  13.772  0.3729  0.4960  1.1999
 5548TIP3    H238136   5.771   1.591  13.806  0.7522 -0.2344  0.2700
 5549TIP3   OH238137   5.874   1.867   6.692 -0.7598 -0.1602  0.1959
 5549TIP3    H138138   5.962   1.836   6.709 -0.1449  1.0308 -0.6278
 5549TIP3    H238139   5.817   1.803   6.733  0.4827 -1.0844  0.5245
 5550TIP3   OH238140   5.861   5.736   4.739  0.0477 -0.0635 -0.1806
 5550TIP3    H138141   5.830   5.646   4.753  1.7279 -0.3346  2.4416
 5550TIP3    H238142   5.915   5.731   4.661  0.8591 -1.5613  0.4468
 5551TIP3   OH238143   4.586   4.181  10.698 -0.1550  0.6767  0.1550
 5551TIP3    H138144   4.618   4.214  10.782 -0.4865  1.4938 -0.0323
 5551TIP3    H238145   4.653   4.118  10.670 -0.0784  0.3310  1.0593
 5552TIP3   OH238146   3.628   1.996   5.804 -0.2010  0.0022 -0.1524
 5552TIP3    H138147   3.712   2.040   5.815 -0.7431  1.0957 -0.3217
 5552TIP3    H238148   3.587   2.000   5.890  0.3951 -1.5902  0.2471
 5553TIP3   OH238149   2.164   1.981  12.204  1.0601 -0.1439  0.7108
 5553TIP3    H138150   2.148   1.995  12.297 -0.6608  0.7394  0.3249
 5553TIP3    H238151   2.172   1.886  12.196 -1.2258 -0.4827  1.4803
 5554TIP3   OH238152   3.208   3.504   2.654  0.1552 -0.0028  0.0600
 5554TIP3    H138153   3.120   3.507   2.692  0.2199 -0.6448  0.2609
 5554TIP3    H238154   3.215   3.417   2.616  1.2656 -0.5415  1.3982
 5555TIP3   OH238155   5.271   1.525   3.482 -0.3462 -0.0679 -0.6571
 5555TIP3    H138156   5.210   1.598   3.470 -0.3507 -0.2722 -2.0185
 5555TIP3    H238157   5.244   1.460   3.416 -0.3578 -1.3212  0.5421
 5556TIP3   OH238158   1.731   2.502   6.000  0.2674 -0.0027  0.0369
 5556TIP3    H138159   1.682   2.523   6.079  0.5484  0.6999  0.0352
 5556TIP3    H238160   1.702   2.415   5.975 -0.7038  0.2553  0.2420
 5557TIP3   OH238161   0.938   1.084   4.951 -0.5283 -0.3601  0.6379
 5557TIP3    H138162   0.967   1.081   5.042  0.7814  2.2923  0.3996
 5557TIP3    H238163   0.981   1.162   4.914 -1.4785 -1.0102 -2.0961
 5558TIP3   OH238164   4.127   5.041  14.200  1.0415  0.2407  0.3754
 5558TIP3    H138165   4.171   5.015  14.120 -1.3815  0.7548 -1.2325
 5558TIP3    H238166   4.085   5.124  14.179  0.2004  0.3149  2.1297
 5559TIP3   OH238167   5.063   5.006   1.788 -0.0811 -0.7139 -0.0758
 5559TIP3    H138168   5.135   5.016   1.726 -0.7375 -0.3528 -0.7811
 5559TIP3    H238169   5.082   4.922   1.832  0.9206 -0.4832 -0.0359
 5560TIP3   OH238170   0.425   5.375  16.587  0.3826  0.2014 -0.0068
 5560TIP3    H138171   0.428   5.281  16.570 -1.1723  0.1146  0.0295
 5560TIP3    H238172   0.507   5.394  16.632 -0.0889 -1.5112  1.7293
 5561TIP3   OH238173   4.466   0.822  15.887  0.0181  0.1402 -0.2858
 5561TIP3    H138174   4.528   0.894  15.896 -0.1869  0.4211 -1.0056
 5561TIP3    H238175   4.493   0.758  15.954  1.3890  0.0312 -0.8983
 5562TIP3   OH238176   5.922   0.980   0.982  0.5290 -0.0921 -0.5252
 5562TIP3    H138177   5.857   0.973   1.053  1.9787 -2.7905  0.6440
 5562TIP3    H238178   5.979   1.052   1.010 -0.3330  0.4853 -0.1941
 5563TIP3   OH238179   5.728   1.860  11.549  0.7706  0.4884 -0.4195
 5563TIP3    H138180   5.706   1.787  11.490 -0.1865  0.9244 -0.6115
 5563TIP3    H238181   5.659   1.924  11.535  0.0288  0.2449  1.8153
 5564TIP3   OH238182   2.044   2.816   2.167 -0.1784  0.5800  0.3705
 5564TIP3    H138183   1.981   2.802   2.097 -0.7265  0.2597  0.9131
 5564TIP3    H238184   1.990   2.831   2.245  0.3736 -1.4649  1.2111
 5565TIP3   OH238185   0.860   4.321   5.288 -0.1290 -0.1306  0.2471
 5565TIP3    H138186   0.911   4.251   5.248  0.0465 -0.3918  0.9095
 5565TIP3    H238187   0.911   4.347   5.364 -0.6560  0.0641  0.5393
 5566TIP3   OH238188   2.401   3.331   3.446 -0.1162  0.2635  0.5782
 5566TIP3    H138189   2.461   3.380   3.502  0.1780  0.4850  0.0784
 5566TIP3    H238190   2.436   3.241   3.447 -0.4782  0.1244  1.2478
 5567TIP3   OH238191   4.390   4.880  16.036  1.2095 -0.5123 -0.0137
 5567TIP3    H138192   4.402   4.962  15.988 -0.3075  0.7250  1.5778
 5567TIP3    H238193   4.444   4.890  16.115 -0.2295 -0.3087  0.9832
 5568TIP3   OH238194   3.962   3.446  12.504  0.2321  0.4438  0.6177
 5568TIP3    H138195   3.985   3.526  12.457  0.8751 -2.3116 -4.3871
 5568TIP3    H238196   3.867   3.452  12.517 -0.1505  1.0210 -2.0180
 5569TIP3   OH238197   5.018   0.536   2.882  0.4064  0.0350  0.7036
 5569TIP3    H138198   5.098   0.499   2.844  0.7024 -0.7071  2.0014
 5569TIP3    H238199   5.039   0.627   2.898  0.4885  0.2080 -0.2866
 5570TIP3   OH238200   5.362   1.069   2.650  0.2449 -0.2909 -0.3611
 5570TIP3    H138201   5.430   1.054   2.584  1.8480  0.1578  1.1152
 5570TIP3    H238202   5.398   1.137   2.706 -0.4867 -1.5158  1.7058
 5571TIP3   OH238203   5.423   3.640   6.138 -0.0658 -0.3144  0.0201
 5571TIP3    H138204   5.433   3.593   6.221 -0.9164 -0.7989 -0.1465
 5571TIP3    H238205   5.367   3.714   6.158  1.2835  0.6742  0.2838
 5572TIP3   OH238206   4.746   4.879  12.954  0.7221  0.5366 -0.1070
 5572TIP3    H138207   4.818   4.914  13.007 -0.0629 -0.6082  1.8172
 5572TIP3    H238208   4.682   4.950  12.952  0.4354  0.3326  1.1561
 5573TIP3   OH238209   2.192   4.306  10.876  0.1903  0.3524  0.1575
 5573TIP3    H138210   2.248   4.230  10.864 -0.6689 -0.3384  0.4484
 5573TIP3    H238211   2.138   4.309  10.797  1.1232  1.4544 -0.4671
 5574TIP3   OH238212   3.475   3.825  16.264  0.5727 -0.7213 -0.2169
 5574TIP3    H138213   3.388   3.793  16.290  0.9769 -0.8258  1.0937
 5574TIP3    H238214   3.530   3.747  16.262  1.0462 -0.4298  0.7772
 5575TIP3   OH238215   4.324   0.126   4.564  0.2019  0.1083 -0.2045
 5575TIP3    H138216   4.393   0.189   4.543  0.5696 -0.2474 -0.0732
 5575TIP3    H238217   4.338   0.105   4.656 -1.3232  1.5691  0.4266
 5576TIP3   OH238218   0.794   6.783  13.712  0.0096 -0.0804  0.5080
 5576TIP3    H138219   0.804   6.864  13.663  1.9268 -0.4982  0.1257
 5576TIP3    H238220   0.822   6.714  13.651 -0.3302 -0.8970  1.2481
 5577TIP3   OH238221   5.910   4.172   4.887  0.2795 -0.3163  0.1834
 5577TIP3    H138222   5.982   4.194   4.828  0.0564  1.3032  0.4687
 5577TIP3    H238223   5.929   4.222   4.967 -2.3047  2.0660 -0.5209
 5578TIP3   OH238224   4.050   0.990  10.686 -0.1395  0.0319 -0.1076
 5578TIP3    H138225   4.065   1.060  10.623 -0.2741  0.7762  0.6784
 5578TIP3    H238226   4.075   0.910  10.639  1.6802  0.7533 -0.4408
 5579TIP3   OH238227   4.227   5.585  11.813 -0.7659 -0.1676  0.1123
 5579TIP3    H138228   4.230   5.545  11.727  1.4182  0.4325 -0.1448
 5579TIP3    H238229   4.166   5.531  11.863  1.1726 -3.1940 -0.5437
 5580TIP3   OH238230   4.319   3.218  12.053  1.2315 -0.1588 -0.3046
 5580TIP3    H138231   4.273   3.153  11.998 -0.2487  0.2996  0.3307
 5580TIP3    H238232   4.349   3.285  11.992  2.3822 -1.1939 -0.9159
 5581TIP3   OH238233   3.112   1.677  15.866 -0.0010  0.1137  0.1388
 5581TIP3    H138234   3.075   1.650  15.782  0.6218  1.0115 -0.4381
 5581TIP3    H238235   3.190   1.621  15.875  0.0856  0.2078 -0.0154
 5582TIP3   OH238236   3.938   2.626   4.350  0.0611  0.3546  0.7754
 5582TIP3    H138237   4.023   2.586   4.368  0.1982  0.2317 -0.1323
 5582TIP3    H238238   3.917   2.674   4.430  0.6267 -0.2372  1.2894
 5583TIP3   OH238239   3.206   2.999  13.661  0.0661 -0.2482  0.0614
 5583TIP3    H138240   3.136   3.059  13.686 -0.7790  0.0432 -2.7564
 5583TIP3    H238241   3.192   2.922  13.716 -2.0379  0.0773  0.0598
 5584TIP3   OH238242   6.572   4.264  14.515 -0.7522 -0.7115 -0.1626
 5584TIP3    H138243   6.587   4.186  14.462 -0.8422  0.4970 -2.0732
 5584TIP3    H238244   6.545   4.331  14.453 -0.7863  0.8360  1.4148
 5585TIP3   OH238245   1.110   4.634   5.867 -0.7790 -0.1827 -0.3451
 5585TIP3    H138246   1.091   4.558   5.922 -0.0404 -1.0426 -1.2445
 5585TIP3    H238247   1.093   4.709   5.924 -0.5310 -1.0308  0.8965
 5586TIP3   OH238248   0.633   3.044   5.334 -0.2321 -0.2874 -0.4050
 5586TIP3    H138249   0.684   3.125   5.333 -0.8021  0.1173  0.7952
 5586TIP3    H238250   0.552   3.067   5.381  0.1766 -1.8719  1.1891
 5587TIP3   OH238251   1.378   6.444   4.458  0.9341 -0.1721 -0.2260
 5587TIP3    H138252   1.431   6.515   4.421  0.0395 -0.1904 -1.6020
 5587TIP3    H238253   1.329   6.485   4.529  2.1770  0.0240  0.5504
 5588TIP3   OH238254   5.011   1.505  11.403  0.1702 -0.3303  0.6363
 5588TIP3    H138255   4.941   1.458  11.449 -1.0004  2.7238  2.1954
 5588TIP3    H238256   5.091   1.479  11.449 -0.2674 -1.5305  0.7723
 5589TIP3   OH238257   1.350   4.058   0.972 -0.1283  0.5542 -0.0086
 5589TIP3    H138258   1.278   4.112   0.941 -0.6516 -0.5789 -0.8636
 5589TIP3    H238259   1.319   4.021   1.055 -1.5567 -1.7293 -1.4352
 5590TIP3   OH238260   3.841   2.846  15.425  0.1493 -0.0376  0.0420
 5590TIP3    H138261   3.772   2.839  15.490 -1.1816 -0.1124 -1.3220
 5590TIP3    H238262   3.885   2.929  15.445 -2.0477  1.3549 -0.6307
 5591TIP3   OH238263   4.937   4.421  11.177  0.4314 -0.6313  0.5167
 5591TIP3    H138264   4.861   4.479  11.164  0.2687 -0.9211  0.1646
 5591TIP3    H238265   4.950   4.380  11.092  0.4971 -1.1772  0.7906
 5592TIP3   OH238266   1.332   1.223  15.316 -0.5305  0.2870  0.0274
 5592TIP3    H138267   1.310   1.173  15.395 -0.5163 -0.2484 -0.3017
 5592TIP3    H238268   1.427   1.236  15.322 -0.2449 -1.2309 -0.7283
 5593TIP3   OH238269   6.808   4.485  12.477 -0.4250 -0.4980 -0.6402
 5593TIP3    H138270   6.729   4.521  12.437  0.3959 -0.6946 -2.5469
 5593TIP3    H238271   6.826   4.544  12.550 -2.7656 -0.9407  0.3794
 5594TIP3   OH238272   5.839   0.604  16.179 -0.2499 -0.2520  0.3789
 5594TIP3    H138273   5.832   0.699  16.170  2.0939 -0.1148 -0.6475
 5594TIP3    H238274   5.851   0.572  16.090 -0.2251 -1.4395  0.7908
 5595TIP3   OH238275   6.680   1.646   1.219  0.4212  0.1649 -0.4664
 5595TIP3    H138276   6.690   1.740   1.235  0.9895 -0.0060  0.2269
 5595TIP3    H238277   6.638   1.613   1.298 -0.2112 -0.0952 -0.9047
 5596TIP3   OH238278   4.804   1.577  15.101 -0.3381  0.2525  0.4623
 5596TIP3    H138279   4.765   1.576  15.014 -1.5366 -0.1148  0.9863
 5596TIP3    H238280   4.898   1.583  15.085 -0.4373 -1.0807 -0.8924
 5597TIP3   OH238281   2.640   2.783   5.466 -0.5063 -0.0985  0.5078
 5597TIP3    H138282   2.592   2.719   5.518  0.5100 -0.6658  0.7661
 5597TIP3    H238283   2.591   2.789   5.384 -2.0360  0.6800  1.4136
 5598TIP3   OH238284   4.451   5.413  13.762  0.1584  0.0556  0.4860
 5598TIP3    H138285   4.397   5.377  13.833  0.5624 -0.9588  0.2950
 5598TIP3    H238286   4.512   5.473  13.806 -0.8148  0.8779  0.7564
 5599TIP3   OH238287   3.480   2.870  16.065  0.0283 -0.1400 -0.1642
 5599TIP3    H138288   3.524   2.872  15.980  0.4587  0.5862  0.0704
 5599TIP3    H238289   3.390   2.848  16.044  0.0932  0.1907 -0.8255
 5600TIP3   OH238290   0.669   4.087  15.918  0.1583  0.0675 -0.2054
 5600TIP3    H138291   0.656   4.101  16.012  2.4539  0.2118  0.1458
 5600TIP3    H238292   0.747   4.139  15.897  1.1216 -1.8613 -1.6535
 5601TIP3   OH238293   6.375   4.465  10.583  0.4253  0.3931  0.2898
 5601TIP3    H138294   6.459   4.438  10.546  0.1800  0.1165 -0.0686
 5601TIP3    H238295   6.378   4.561  10.580  0.4542  0.3805 -0.3572
 5602TIP3   OH238296   4.748   5.707  14.169  0.6386 -0.1754 -0.4502
 5602TIP3    H138297   4.653   5.695  14.175  0.5864  0.6581  0.9100
 5602TIP3    H238298   4.759   5.802  14.161  1.3687 -0.2601 -0.4613
 5603TIP3   OH238299   2.294   2.383  11.121  0.1593  0.1745 -0.0054
 5603TIP3    H138300   2.270   2.391  11.028 -0.3313 -0.5091  0.0540
 5603TIP3    H238301   2.382   2.347  11.119  0.1408  0.1368 -0.2054
 5604TIP3   OH238302   5.828   4.168   0.644 -0.0917 -0.1306  0.0275
 5604TIP3    H138303   5.898   4.192   0.583 -0.1530  0.1906  0.0792
 5604TIP3    H238304   5.854   4.083   0.678 -0.1232 -0.3716 -0.5449
 5605TIP3   OH238305   3.062   0.593   3.085  0.0240 -0.3672 -0.1369
 5605TIP3    H138306   3.134   0.652   3.109 -0.7763  0.2592  0.7761
 5605TIP3    H238307   3.034   0.623   2.998 -0.0276  0.2577  0.0944
 5606TIP3   OH238308   1.779   0.571   1.926 -0.0761 -0.0953 -0.2565
 5606TIP3    H138309   1.732   0.610   2.000  0.1040 -0.3065 -0.0312
 5606TIP3    H238310   1.838   0.507   1.966  0.6000  0.3603 -0.5092
 5607TIP3   OH238311   3.033   3.722   3.327 -0.5376  0.0770 -0.4242
 5607TIP3    H138312   3.097   3.658   3.355  0.0878  0.6890 -0.4194
 5607TIP3    H238313   2.948   3.681   3.343 -0.1684 -0.2607  0.7327
 5608TIP3   OH238314   0.594   0.643   0.180 -0.4211 -0.2872 -0.8624
 5608TIP3    H138315   0.585   0.734   0.209  1.4508  0.2947 -1.9345
 5608TIP3    H238316   0.533   0.635   0.107 -2.5823 -0.7455  0.8846
 5609TIP3   OH238317   0.017   2.436  17.143  0.7164  0.5242 -0.3502
 5609TIP3    H138318  -0.058   2.490  17.117 -0.0634 -0.5722 -0.4532
 5609TIP3    H238319  -0.007   2.402  17.229  1.1990  0.3281 -0.2890
 5610TIP3   OH238320   4.567   5.032   5.391 -0.0670 -0.5738 -0.3805
 5610TIP3    H138321   4.519   4.982   5.457 -2.1409 -0.2321 -1.5321
 5610TIP3    H238322   4.517   5.018   5.310  1.1511  0.7480 -1.4127
 5611TIP3   OH238323   5.894   0.262  15.773 -0.2252 -0.0739  0.4871
 5611TIP3    H138324   5.857   0.327  15.714 -1.0179  0.5515  1.6335
 5611TIP3    H238325   5.839   0.185  15.760 -0.6155  0.1733  0.6536
 5612TIP3   OH238326   1.631   1.778   0.818 -0.6420  0.1053  0.2091
 5612TIP3    H138327   1.639   1.690   0.782  1.1618  0.1831  0.3263
 5612TIP3    H238328   1.693   1.780   0.891 -0.9268  1.3652  0.4457
 5613TIP3   OH238329   1.464   5.501  11.795  0.1414  0.5157  0.1268
 5613TIP3    H138330   1.449   5.591  11.824  0.0173  0.4155  0.3698
 5613TIP3    H238331   1.424   5.498  11.708 -1.7741  0.1123  0.9621
 5614TIP3   OH238332   2.811   5.763  16.437 -0.1688 -0.1466  0.0162
 5614TIP3    H138333   2.797   5.791  16.346  1.1914 -2.6576 -1.0874
 5614TIP3    H238334   2.762   5.681  16.444  1.1111 -0.8728  0.9653
 5615TIP3   OH238335   3.963   6.205   3.405  0.0012 -0.9679  0.0561
 5615TIP3    H138336   3.873   6.192   3.434 -0.6171  0.8176 -0.8945
 5615TIP3    H238337   4.006   6.247   3.479 -0.5429  0.1034 -0.2157
 5616TIP3   OH238338   4.290   5.052  15.257 -0.4822  0.0097 -0.0898
 5616TIP3    H138339   4.383   5.062  15.238 -0.0667 -0.3860  1.6167
 5616TIP3    H238340   4.285   4.972  15.310 -1.3073  1.8667  2.8324
 5617TIP3   OH238341   4.729   4.578   0.418  0.1901 -0.0573 -0.0911
 5617TIP3    H138342   4.823   4.593   0.410  0.4230  0.1648  2.2628
 5617TIP3    H238343   4.705   4.624   0.498 -1.9449 -0.1132 -0.6547
 5618TIP3   OH238344   0.703   2.091   2.873 -0.3775 -0.1699  0.0686
 5618TIP3    H138345   0.764   2.150   2.919  1.1049 -1.4199 -0.2081
 5618TIP3    H238346   0.745   2.075   2.789 -1.5266 -0.3950 -0.4723
 5619TIP3   OH238347   0.679   6.400  15.631 -0.1265 -0.0429  0.2064
 5619TIP3    H138348   0.672   6.473  15.693  0.7226  1.1085 -0.9993
 5619TIP3    H238349   0.770   6.372  15.638  0.5712  1.4435 -1.9031
 5620TIP3   OH238350   3.530   6.506   2.204 -0.1574 -0.2753  0.7481
 5620TIP3    H138351   3.496   6.595   2.200  0.1060 -0.2056 -0.3946
 5620TIP3    H238352   3.467   6.459   2.259 -0.0300  0.7117  1.7771
 5621TIP3   OH238353   0.281   4.264  15.469  0.2061  0.2181  0.0423
 5621TIP3    H138354   0.303   4.176  15.499 -0.0811  0.7795  2.0524
 5621TIP3    H238355   0.277   4.316  15.549  0.0616  2.0031 -1.0713
 5622TIP3   OH238356   0.950   5.713   0.827 -0.1159  0.2381  0.2663
 5622TIP3    H138357   0.967   5.707   0.733  0.8273  1.3694  0.3437
 5622TIP3    H238358   0.897   5.636   0.846 -1.8643  0.9222 -1.5039
 5623TIP3   OH238359   4.408   4.848   5.221  0.3146  0.3647 -0.2907
 5623TIP3    H138360   4.424   4.774   5.279 -0.3139  0.1389 -0.3971
 5623TIP3    H238361   4.358   4.811   5.148  1.0291  0.6605 -0.9439
 5624TIP3   OH238362   1.858   0.666   4.758 -0.2919  0.4734 -0.2506
 5624TIP3    H138363   1.794   0.674   4.688  1.8023  0.9545 -2.2438
 5624TIP3    H238364   1.943   0.668   4.713  1.1325 -1.5871  2.0898
 5625TIP3   OH238365   4.634   2.015  15.098 -0.0195 -0.0316 -1.0248
 5625TIP3    H138366   4.588   1.962  15.032 -1.7998 -1.8151  1.4429
 5625TIP3    H238367   4.687   1.952  15.147  1.6748  1.3274 -1.0347
 5626TIP3   OH238368   2.603   2.393  15.927  0.3631 -0.2468 -0.1424
 5626TIP3    H138369   2.673   2.397  15.862  0.1345 -1.3413 -0.4709
 5626TIP3    H238370   2.524   2.374  15.877  0.2925 -1.7505  0.4916
 5627TIP3   OH238371   5.438   0.170   0.673  0.1096  0.3741  0.1850
 5627TIP3    H138372   5.404   0.237   0.614  3.9640 -0.6842 -3.7938
 5627TIP3    H238373   5.500   0.216   0.728 -2.1797  1.0325  2.4239
 5628TIP3   OH238374   1.831   1.442   0.422 -0.1744  0.6665 -0.1093
 5628TIP3    H138375   1.835   1.349   0.397  0.2588  0.2018  1.5572
 5628TIP3    H238376   1.871   1.488   0.349  0.4946 -0.5593 -0.5433
 5629TIP3   OH238377   0.946   5.205   2.873 -0.0283  0.1270  0.4745
 5629TIP3    H138378   0.996   5.137   2.918  0.6152  0.5355  0.3918
 5629TIP3    H238379   0.894   5.246   2.942 -0.6497 -0.6398  0.4733
 5630TIP3   OH238380   1.905   4.933   2.722 -0.1786 -0.0171 -0.0084
 5630TIP3    H138381   1.852   4.950   2.645 -1.0924  2.0943  1.0200
 5630TIP3    H238382   1.987   4.980   2.706 -0.7180  1.1868  0.6520
 5631TIP3   OH238383   5.660   1.408  11.534 -0.8794  0.1695  0.5240
 5631TIP3    H138384   5.569   1.430  11.552 -1.3663 -1.8469  0.8063
 5631TIP3    H238385   5.694   1.377  11.618 -0.4364 -0.6200  0.0698
 5632TIP3   OH238386   2.918   6.026  13.453  0.3450 -0.8999  0.0609
 5632TIP3    H138387   2.955   5.937  13.452  0.2660 -0.9316 -0.3089
 5632TIP3    H238388   2.874   6.033  13.537  1.1314 -0.8894  0.4785
 5633TIP3   OH238389   2.021   2.903  12.157 -0.6587  0.2718  0.6696
 5633TIP3    H138390   1.977   2.917  12.241 -2.1742  0.1111 -0.0616
 5633TIP3    H238391   1.991   2.975  12.102  0.9581  0.8335  0.4853
 5634TIP3   OH238392   1.743   0.243   4.568 -0.2741  0.1069  0.2005
 5634TIP3    H138393   1.813   0.234   4.632  0.4288  0.5936 -0.4764
 5634TIP3    H238394   1.664   0.258   4.620  0.3972  1.2511  0.9441
 5635TIP3   OH238395   1.700   0.934  13.078  0.1779 -0.3022 -0.0111
 5635TIP3    H138396   1.774   0.874  13.081 -0.3832 -0.9858  0.8739
 5635TIP3    H238397   1.673   0.934  12.986 -1.6494 -3.8182  0.3363
 5636TIP3   OH238398   0.861   0.784  11.020 -0.2897  0.3880  0.1483
 5636TIP3    H138399   0.954   0.799  11.007 -0.4370 -0.1555 -1.9711
 5636TIP3    H238400   0.818   0.853  10.969 -1.0095 -0.8541 -0.9917
 5637TIP3   OH238401   2.831   4.637   1.161  0.8497 -0.3328  0.2323
 5637TIP3    H138402   2.915   4.672   1.190 -1.1229  2.4797  3.2062
 5637TIP3    H238403   2.819   4.558   1.215  1.2410 -0.3138  0.3534
 5638TIP3   OH238404   3.572   0.850  13.891  0.3119  0.2934 -0.4491
 5638TIP3    H138405   3.534   0.823  13.807  2.0303  0.6452 -1.3788
 5638TIP3    H238406   3.581   0.945  13.884  0.7054  0.2940  0.0369
 5639TIP3   OH238407   2.492   3.701  12.563  0.4511 -0.7502  0.3615
 5639TIP3    H138408   2.508   3.790  12.533  1.9860  0.3132  3.7965
 5639TIP3    H238409   2.572   3.654  12.541  0.0932 -1.0074 -0.4319
 5640TIP3   OH238410   1.696   4.176   5.141  0.5964  0.7191  0.4263
 5640TIP3    H138411   1.741   4.160   5.224  0.0895 -0.8543  0.4359
 5640TIP3    H238412   1.641   4.253   5.157  1.3913  1.1391  1.1720
 5641TIP3   OH238413   3.154   2.932  13.020  0.0851  0.4917  0.1905
 5641TIP3    H138414   3.068   2.967  12.995  0.4783  1.7245  0.5217
 5641TIP3    H238415   3.153   2.930  13.115  0.3652  0.3374  0.1923
 5642TIP3   OH238416   0.321   1.503  15.587  0.1998  0.0160 -0.1177
 5642TIP3    H138417   0.399   1.467  15.546  1.2365  0.6389  1.1959
 5642TIP3    H238418   0.344   1.508  15.680 -1.5848 -0.2080  0.3576
 5643TIP3   OH238419   0.683   0.391   6.172  0.0586  0.1364  0.3219
 5643TIP3    H138420   0.621   0.338   6.122  0.1202  0.2338  0.1421
 5643TIP3    H238421   0.753   0.330   6.196  0.1694  0.1556  0.0453
 5644TIP3   OH238422   0.368   2.979   3.753 -0.4286 -0.0412  0.3861
 5644TIP3    H138423   0.292   2.923   3.740  0.1155 -0.7330  0.0897
 5644TIP3    H238424   0.442   2.918   3.755  0.2427  0.7077 -0.5118
 5645TIP3   OH238425   6.163   0.431  13.049  0.3069  0.8906  0.1391
 5645TIP3    H138426   6.073   0.454  13.072 -1.1037 -0.6003 -3.2103
 5645TIP3    H238427   6.200   0.511  13.012 -0.5075  0.9414 -0.6092
 5646TIP3   OH238428   6.492   5.013  17.245 -0.0762 -0.6491  0.2495
 5646TIP3    H138429   6.431   5.005  17.318 -0.8606 -0.3476 -0.3600
 5646TIP3    H238430   6.483   5.104  17.216 -1.0056 -1.1787 -1.2538
 5647TIP3   OH238431   2.879   0.044  14.333  0.2157  0.0711  1.3939
 5647TIP3    H138432   2.891   0.111  14.401  0.1288  0.1371  1.3438
 5647TIP3    H238433   2.894   0.090  14.251 -0.3517  0.1504  1.3307
 5648TIP3   OH238434   1.174   5.214  16.780 -0.4269  0.2760  0.7484
 5648TIP3    H138435   1.231   5.260  16.842 -0.3604  0.1849  0.7560
 5648TIP3    H238436   1.112   5.167  16.835 -1.7213  1.8685  0.7319
 5649TIP3   OH238437   2.329   0.942  12.821 -0.0483  0.4233  0.5435
 5649TIP3    H138438   2.278   0.946  12.902 -2.2517 -1.1369 -0.6254
 5649TIP3    H238439   2.397   1.008  12.831 -0.3853  0.4505  3.5298
 5650TIP3   OH238440   2.069   2.992   4.169 -0.5118 -0.2687 -0.2275
 5650TIP3    H138441   2.007   3.064   4.157 -0.7967 -0.2926  0.9666
 5650TIP3    H238442   2.154   3.029   4.148 -0.6693  0.3877  0.2817
 5651TIP3   OH238443   5.343   2.977   0.316  0.1630 -0.1271  0.1537
 5651TIP3    H138444   5.405   3.033   0.364  0.0569 -2.7638  3.7977
 5651TIP3    H238445   5.259   3.020   0.326  0.5703  0.7165  0.0147
 5652TIP3   OH238446   0.053   4.168   2.637  0.0251 -0.6899 -0.3128
 5652TIP3    H138447   0.135   4.146   2.593 -1.1542 -1.2375 -2.3903
 5652TIP3    H238448   0.055   4.119   2.719  1.3510 -1.4398 -0.7744
 5653TIP3   OH238449   5.590   1.555   0.618  0.3299  0.1361  0.2989
 5653TIP3    H138450   5.536   1.584   0.545  0.7616 -0.6596 -0.3602
 5653TIP3    H238451   5.673   1.529   0.578 -0.4242 -3.1999  0.5677
 5654TIP3   OH238452   1.985   6.163   5.739  0.3553  0.1462  0.0919
 5654TIP3    H138453   1.935   6.226   5.791  0.8220  1.3304 -0.8541
 5654TIP3    H238454   2.065   6.148   5.791  0.0302 -0.0351  0.5435
 5655TIP3   OH238455   2.642   2.748  16.803  0.3023  0.7520 -0.1166
 5655TIP3    H138456   2.566   2.690  16.795  1.0387 -0.2112 -0.3405
 5655TIP3    H238457   2.688   2.739  16.719  1.7560 -0.2728  0.7393
 5656TIP3   OH238458   1.714   1.892   0.470  0.1102  0.0755 -0.3129
 5656TIP3    H138459   1.668   1.975   0.481 -0.0459  0.2254 -1.7777
 5656TIP3    H238460   1.799   1.917   0.434  0.4105 -0.3437  0.1009
 5657TIP3   OH238461   3.749   4.014  14.883 -0.1902  0.1182 -0.1372
 5657TIP3    H138462   3.685   4.051  14.822 -1.4053 -0.5715  0.6644
 5657TIP3    H238463   3.723   3.922  14.892  0.4183  0.0268  0.8376
 5658TIP3   OH238464   4.702   0.663  15.398 -0.5531  0.4152 -0.1480
 5658TIP3    H138465   4.696   0.690  15.489  1.4270  0.1786  0.1015
 5658TIP3    H238466   4.724   0.744  15.351 -3.3975  0.9399 -0.7616
 5659TIP3   OH238467   4.263   3.683  12.348  0.5110  0.0570  0.0241
 5659TIP3    H138468   4.269   3.674  12.253 -0.3129 -0.7701  0.0387
 5659TIP3    H238469   4.329   3.749  12.370  1.1389 -0.1892 -1.0515
 5660TIP3   OH238470   1.072   4.056  12.550  0.6108 -0.7418  0.4200
 5660TIP3    H138471   0.997   4.068  12.492  0.8365 -2.2591 -0.2158
 5660TIP3    H238472   1.059   4.122  12.618  1.0519  2.0470 -2.0104
 5661TIP3   OH238473   0.585   0.190   6.018  0.1670  1.1458 -0.0292
 5661TIP3    H138474   0.514   0.141   6.059 -0.8247  0.3665 -2.4608
 5661TIP3    H238475   0.664   0.161   6.064 -0.7653 -0.2555  0.7715
 5662TIP3   OH238476   0.490   0.191   5.586  0.1023  0.2089 -0.0706
 5662TIP3    H138477   0.486   0.100   5.556  0.5124  0.9964 -2.8318
 5662TIP3    H238478   0.575   0.198   5.630 -0.8332 -1.1950  2.0987
 5663TIP3   OH238479   1.375   5.281   1.577 -0.5349  0.5216 -0.3980
 5663TIP3    H138480   1.406   5.320   1.495  0.9681  0.9008  0.3106
 5663TIP3    H238481   1.365   5.188   1.557  1.3332  0.3282 -0.6413
 5664TIP3   OH238482   1.308   2.365   0.539  0.3783  0.2578 -0.2460
 5664TIP3    H138483   1.354   2.338   0.618  1.1020  1.2764 -0.2960
 5664TIP3    H238484   1.367   2.340   0.467 -0.4428 -1.0051 -0.5116
 5665TIP3   OH238485   6.550   0.825   0.365  0.9018 -0.2422  0.4805
 5665TIP3    H138486   6.581   0.748   0.318  1.1738  0.1008  0.0962
 5665TIP3    H238487   6.608   0.831   0.441  0.9982 -0.3086  0.4122
 5666TIP3   OH238488   1.584   4.523   3.288  0.1659  0.0515  0.0706
 5666TIP3    H138489   1.659   4.501   3.233 -0.6383  0.7605 -1.3528
 5666TIP3    H238490   1.623   4.561   3.367  1.3172  0.0739 -0.4914
 5667TIP3   OH238491   4.554   2.644  15.288  0.4794 -0.4618  0.2700
 5667TIP3    H138492   4.597   2.615  15.368  1.7938  1.9257  0.5129
 5667TIP3    H238493   4.503   2.568  15.260  0.2790 -1.5150  3.1222
 5668TIP3   OH238494   5.530   0.906   6.183  0.4421 -0.1224 -0.0228
 5668TIP3    H138495   5.570   0.846   6.245 -1.0033  0.2935  1.3832
 5668TIP3    H238496   5.585   0.984   6.186  1.0097 -0.5177 -0.1083
 5669TIP3   OH238497   2.492   0.133  14.710 -0.1502  0.3502 -0.0446
 5669TIP3    H138498   2.477   0.156  14.801  0.8255  0.2218  0.1628
 5669TIP3    H238499   2.585   0.152  14.695 -0.3767  0.7065 -1.1125
 5670TIP3   OH238500   1.784   1.597  10.890 -0.1813  0.0724  0.5047
 5670TIP3    H138501   1.825   1.682  10.877  0.7894 -0.4827 -0.2038
 5670TIP3    H238502   1.824   1.540  10.824 -0.8866 -0.9117  0.8902
 5671TIP3   OH238503   1.057   2.847   0.479 -0.2436 -0.2164 -0.1171
 5671TIP3    H138504   1.094   2.926   0.439 -0.7193  0.3700  0.5769
 5671TIP3    H238505   1.130   2.785   0.484  0.0424  0.0379 -1.0151
 5672TIP3   OH238506   6.650   4.956   1.968 -0.7373 -0.2916 -0.2359
 5672TIP3    H138507   6.733   4.930   1.927 -1.3853 -1.8587 -0.5983
 5672TIP3    H238508   6.585   4.943   1.899 -1.0955  2.9014 -0.6585
 5673TIP3   OH238509   6.698   5.606  13.727  0.2289  0.1159 -0.1928
 5673TIP3    H138510   6.643   5.673  13.688 -1.3624 -1.4089 -0.6687
 5673TIP3    H238511   6.658   5.589  13.812  0.2641 -0.6358 -0.3197
 5674TIP3   OH238512   6.454   4.648   3.907  0.0074 -0.3114  0.4829
 5674TIP3    H138513   6.468   4.557   3.881 -2.4911 -0.1691 -1.9389
 5674TIP3    H238514   6.361   4.664   3.887 -0.2654  2.1101  3.0832
 5675TIP3   OH238515   1.047   5.118  15.005  0.1429  0.3002 -0.0392
 5675TIP3    H138516   0.966   5.084  14.967 -0.0793  3.3333 -2.7402
 5675TIP3    H238517   1.116   5.066  14.965 -0.3572 -0.0138 -0.5108
 5676TIP3   OH238518   4.311   1.811  11.554 -0.4893  0.2711 -0.2705
 5676TIP3    H138519   4.354   1.890  11.522 -2.1807  0.9555 -0.9924
 5676TIP3    H238520   4.332   1.808  11.648  1.3916  0.3403 -0.6565
 5677TIP3   OH238521   4.135   2.802  13.737  0.3075  0.6849  0.2367
 5677TIP3    H138522   4.078   2.869  13.773 -0.8102 -0.3602  0.4812
 5677TIP3    H238523   4.088   2.768  13.660  2.5338  2.7135 -2.2396
 5678TIP3   OH238524   4.484   1.741   1.850 -0.4897 -0.1213 -0.0165
 5678TIP3    H138525   4.499   1.767   1.759 -2.2482  0.4615 -0.1660
 5678TIP3    H238526   4.556   1.680   1.869  1.3690  1.6473 -0.9680
 5679TIP3   OH238527   2.257   5.645  12.684 -0.4560 -0.0295  0.3465
 5679TIP3    H138528   2.272   5.672  12.593  0.8652  1.0021  0.8505
 5679TIP3    H238529   2.342   5.613  12.714 -1.0001 -0.8414  1.0817
 5680TIP3   OH238530   6.339   2.258  12.306  0.0483  0.1399  0.4064
 5680TIP3    H138531   6.283   2.249  12.383 -1.9113  1.3665 -0.7900
 5680TIP3    H238532   6.307   2.192  12.245  0.9838 -0.1955  0.2509
 5681TIP3   OH238533   1.370   4.227  16.251 -0.0647 -0.0787  0.3564
 5681TIP3    H138534   1.284   4.263  16.273  0.4605  0.8270  0.9779
 5681TIP3    H238535   1.355   4.132  16.248 -1.5959  0.1478 -1.8953
 5682TIP3   OH238536   2.882   1.054   5.545  0.2453 -0.0773  0.4417
 5682TIP3    H138537   2.870   1.039   5.639  0.3792 -0.1038  0.4534
 5682TIP3    H238538   2.853   0.973   5.504  0.3344 -0.1230  0.4687
 5683TIP3   OH238539   0.937   3.319   4.018  0.1997  0.2828  0.2694
 5683TIP3    H138540   0.970   3.405   4.046 -2.3865  1.2230  0.7403
 5683TIP3    H238541   0.843   3.333   4.005 -0.3205 -2.5090  0.4302
 5684TIP3   OH238542   5.088   5.343  12.266  0.4549 -0.0664 -0.3813
 5684TIP3    H138543   5.095   5.432  12.233 -3.7314  0.4551 -0.3531
 5684TIP3    H238544   5.078   5.353  12.360 -2.1564 -0.2660 -0.5681
 5685TIP3   OH238545   4.377   4.661   4.924 -1.0252  0.3594 -0.3664
 5685TIP3    H138546   4.473   4.654   4.930 -0.2338  3.7785 -4.6185
 5685TIP3    H238547   4.351   4.585   4.872 -0.7219 -0.6429  0.8940
 5686TIP3   OH238548   1.351   5.551  16.844 -0.1375  0.0004  0.3784
 5686TIP3    H138549   1.378   5.575  16.755  1.2877 -0.5602  0.6399
 5686TIP3    H238550   1.411   5.599  16.901  1.3942 -2.4744  0.9501
 5687TIP3   OH238551   3.288   2.395   4.506  0.1183  0.2455 -0.2875
 5687TIP3    H138552   3.334   2.336   4.445  0.5253  0.9343 -0.6664
 5687TIP3    H238553   3.201   2.406   4.468 -1.1641 -2.6513  1.4583
 5688TIP3   OH238554   0.997   5.780  15.604  0.0735  0.5163  0.0099
 5688TIP3    H138555   1.069   5.719  15.621  0.2335  0.4727 -0.7591
 5688TIP3    H238556   0.982   5.825  15.687  1.1714  0.7105  0.1124
 5689TIP3   OH238557   0.261   0.341  13.139  0.3000  0.1222  0.6212
 5689TIP3    H138558   0.346   0.339  13.096  0.8280 -2.0469  1.5987
 5689TIP3    H238559   0.281   0.332  13.232 -0.9900 -1.6908  0.7761
 5690TIP3   OH238560   2.607   1.891   5.574  0.2677 -0.1468 -0.0972
 5690TIP3    H138561   2.547   1.951   5.529 -0.3660 -0.6192  0.1110
 5690TIP3    H238562   2.670   1.865   5.507  0.2343  0.3396 -0.3220
 5691TIP3   OH238563   3.264   5.460  14.114  0.1638  0.8842  0.6493
 5691TIP3    H138564   3.241   5.401  14.186  0.9812 -1.2021 -0.6916
 5691TIP3    H238565   3.183   5.472  14.065  0.0383  0.6696  0.8022
 5692TIP3   OH238566   4.823   0.273  12.211  0.3546 -0.1780 -0.2365
 5692TIP3    H138567   4.738   0.252  12.173  0.5733  0.1368 -0.9218
 5692TIP3    H238568   4.847   0.195  12.261  1.0396 -1.5510 -2.5217
 5693TIP3   OH238569   4.408   6.170  12.987 -0.1182 -0.4201 -0.6886
 5693TIP3    H138570   4.497   6.162  12.952  2.3683 -1.3103  4.8117
 5693TIP3    H238571   4.404   6.259  13.022 -0.5612 -0.9745  0.7450
 5694TIP3   OH238572   0.480   6.807  10.953  0.0183 -0.3547  0.4387
 5694TIP3    H138573   0.478   6.768  10.866 -1.2106  1.6715 -0.5127
 5694TIP3    H238574   0.445   6.739  11.011 -0.3939 -1.2653 -0.8535
 5695TIP3   OH238575   5.649   2.783  13.657 -0.0826  0.2030 -0.0334
 5695TIP3    H138576   5.724   2.755  13.604  0.1494  0.7313  0.0086
 5695TIP3    H238577   5.636   2.875  13.633  0.7518  0.8083  1.6412
 5696TIP3   OH238578   0.251   3.733  17.207  0.4369 -0.2270  0.3972
 5696TIP3    H138579   0.317   3.777  17.153  0.7566 -0.5856  0.4928
 5696TIP3    H238580   0.256   3.778  17.292 -1.1732  1.4116 -0.3189
 5697TIP3   OH238581   4.942   6.461  12.642 -0.6340  0.3422 -0.0158
 5697TIP3    H138582   4.887   6.442  12.718 -1.5729  0.2068 -0.7041
 5697TIP3    H238583   5.031   6.457  12.675 -1.0210  0.1701  1.0509
 5698TIP3   OH238584   5.736   1.392  15.466  0.5257  0.1984  0.0787
 5698TIP3    H138585   5.717   1.480  15.436 -1.1287  0.2660  1.1760
 5698TIP3    H238586   5.651   1.349  15.469  1.3120 -1.5060 -0.5779
 5699TIP3   OH238587   1.948   5.783  14.730 -0.1958 -0.0181 -0.1947
 5699TIP3    H138588   1.913   5.853  14.784  0.2107  1.0054 -1.2132
 5699TIP3    H238589   2.022   5.749  14.779  0.0510  0.7687 -0.0139
 5700TIP3   OH238590   5.106   0.240   1.508 -0.1813 -0.0071 -0.0816
 5700TIP3    H138591   5.091   0.207   1.596 -0.2371 -2.1122 -0.8077
 5700TIP3    H238592   5.081   0.167   1.451  1.7893  0.5111 -1.7475
 5701TIP3   OH238593   1.157   4.342   5.487 -0.4428  0.5194 -0.2218
 5701TIP3    H138594   1.130   4.256   5.456 -0.7927  0.3701  0.4797
 5701TIP3    H238595   1.236   4.325   5.540 -0.5317  0.6242 -0.0535
 5702TIP3   OH238596   4.413   3.195   2.448 -0.0913  0.0977  0.0009
 5702TIP3    H138597   4.416   3.100   2.443  0.2914 -0.0086  1.5297
 5702TIP3    H238598   4.477   3.225   2.383  1.0020 -0.7649  0.6313
 5703TIP3   OH238599   2.950   6.351  16.766 -0.6313 -0.5308 -0.7259
 5703TIP3    H138600   2.919   6.338  16.676  1.3169 -0.2851 -1.4929
 5703TIP3    H238601   2.996   6.270  16.787  0.7608  0.2217 -0.7850
 5704TIP3   OH238602   6.486   2.589   4.795  0.2582 -0.2320 -0.0716
 5704TIP3    H138603   6.576   2.602   4.765 -0.2572  1.1747 -1.1217
 5704TIP3    H238604   6.478   2.646   4.872  0.1734 -0.0794 -0.1919
 5705TIP3   OH238605   4.444   6.235   4.663 -0.1358 -0.4525  0.1158
 5705TIP3    H138606   4.401   6.201   4.742 -0.0597 -0.9001 -0.0341
 5705TIP3    H238607   4.391   6.201   4.591  0.4979 -1.0550 -0.0738
 5706TIP3   OH238608   3.324   1.823  12.810 -0.6057  0.1470  0.4259
 5706TIP3    H138609   3.374   1.904  12.819 -0.9948  0.6009 -1.1457
 5706TIP3    H238610   3.242   1.850  12.770 -1.5734 -0.7867  1.6924
 5707TIP3   OH238611   1.022   5.651   2.499 -0.2576 -0.2155 -0.1260
 5707TIP3    H138612   1.045   5.634   2.591  0.5620 -0.7718 -0.4247
 5707TIP3    H238613   1.009   5.746   2.495  0.5592 -0.0673  0.3833
 5708TIP3   OH238614   5.500   4.899   2.240  0.6323 -0.0335  0.1273
 5708TIP3    H138615   5.547   4.964   2.188  1.1162  2.3712  3.2683
 5708TIP3    H238616   5.411   4.933   2.246  0.7593  0.1210  1.3924
 5709TIP3   OH238617   1.367   5.992  15.053  0.3312 -0.2790  0.1337
 5709TIP3    H138618   1.292   6.048  15.031 -0.1880 -0.9094  0.2665
 5709TIP3    H238619   1.337   5.903  15.034  1.7547 -0.4024 -1.8516
 5710TIP3   OH238620   5.345   5.633   1.659 -0.0462 -0.1213  0.2884
 5710TIP3    H138621   5.281   5.625   1.588  0.2873 -0.4892  0.0255
 5710TIP3    H238622   5.409   5.564   1.641 -0.1388 -0.4421  1.1346
 5711TIP3   OH238623   2.180   3.826  11.149  0.1692 -0.0538 -0.0422
 5711TIP3    H138624   2.218   3.908  11.118  0.7044  0.2854  1.3962
 5711TIP3    H238625   2.207   3.760  11.086  1.8026  0.4655  0.0760
 5712TIP3   OH238626   5.836   2.541  16.491 -0.4062  0.3565 -0.1371
 5712TIP3    H138627   5.893   2.565  16.564 -0.0681  0.3527 -0.3992
 5712TIP3    H238628   5.816   2.449  16.506  0.4180  0.0972 -0.5416
 5713TIP3   OH238629   5.087   1.820   5.205 -0.0031  0.2923 -0.2495
 5713TIP3    H138630   5.061   1.801   5.295 -0.5087 -0.5596 -0.5649
 5713TIP3    H238631   5.102   1.734   5.166  0.0605  0.6512 -1.0306
 5714TIP3   OH238632   1.110   0.606   2.553  0.5002 -0.0197  0.8567
 5714TIP3    H138633   1.144   0.633   2.638 -1.2690  2.6192  0.8602
 5714TIP3    H238634   1.169   0.648   2.489 -0.5965  1.6416  0.8643
 5715TIP3   OH238635   3.012   2.465   5.915  0.0997 -0.1824 -0.2961
 5715TIP3    H138636   3.035   2.389   5.861  0.7662 -0.1199 -0.1060
 5715TIP3    H238637   2.933   2.438   5.962  0.9273 -1.1682  0.5767
 5716TIP3   OH238638   0.674   3.356  13.359 -0.3176  0.4051 -0.1647
 5716TIP3    H138639   0.711   3.270  13.379 -2.2916 -0.5703 -0.5518
 5716TIP3    H238640   0.750   3.409  13.333  0.9427 -1.1679  0.1559
 5717TIP3   OH238641   1.351   0.044  11.675  0.9672 -0.0619 -0.7459
 5717TIP3    H138642   1.416   0.030  11.744  1.2402  0.7436 -0.8262
 5717TIP3    H238643   1.361   0.136  11.652 -1.5776  0.6695  0.6516
 5718TIP3   OH238644   4.407   6.424   0.279 -0.0893 -0.1199 -0.2027
 5718TIP3    H138645   4.409   6.329   0.290  0.6495 -0.0365  0.4034
 5718TIP3    H238646   4.314   6.444   0.262  0.0104 -1.1451 -2.3069
 5719TIP3   OH238647   3.332   2.924   3.118 -0.0930  0.1444  0.0567
 5719TIP3    H138648   3.382   2.949   3.041 -0.0993  0.9902  0.3105
 5719TIP3    H238649   3.329   3.004   3.171  0.9730 -0.7374  1.5121
 5720TIP3   OH238650   1.861   2.711   1.970  0.0152 -0.4547  0.2592
 5720TIP3    H138651   1.773   2.734   1.940  0.3020 -0.8184 -0.9267
 5720TIP3    H238652   1.916   2.717   1.891  1.3822  1.3214  1.2674
 5721TIP3   OH238653   1.696   5.305  10.185  0.1418 -0.7779 -0.2598
 5721TIP3    H138654   1.661   5.361  10.116 -0.6454 -0.5351  0.3341
 5721TIP3    H238655   1.755   5.245  10.138  0.5338  0.1308 -0.9830
 5722TIP3   OH238656   4.656   2.486   3.238 -0.5409 -0.4023 -0.5087
 5722TIP3    H138657   4.715   2.416   3.210  0.8777  0.6717 -0.3455
 5722TIP3    H238658   4.572   2.442   3.253  0.6746 -2.3753  1.1100
 5723TIP3   OH238659   1.792   1.241  10.650  0.1570 -0.0068 -0.5386
 5723TIP3    H138660   1.726   1.297  10.609  0.8259  0.3547 -1.1649
 5723TIP3    H238661   1.743   1.168  10.686 -0.8838  1.4562  1.1776
 5724TIP3   OH238662   5.773   5.671  13.291 -0.2710  0.2592  0.3848
 5724TIP3    H138663   5.821   5.747  13.325  0.2188 -0.5696  1.6225
 5724TIP3    H238664   5.808   5.596  13.340 -1.5600 -0.6182  0.0314
 5725TIP3   OH238665   0.806   6.151   5.348 -0.6172 -0.9480  0.6133
 5725TIP3    H138666   0.790   6.116   5.435  0.9217 -0.2900  1.1990
 5725TIP3    H238667   0.873   6.092   5.311  1.5141  0.8550  1.3617
 5726TIP3   OH238668   3.017   0.193   0.444  0.8158 -0.1441 -0.4003
 5726TIP3    H138669   3.101   0.208   0.400  1.3949 -1.6820  0.1134
 5726TIP3    H238670   2.958   0.166   0.374  0.7116  0.9941 -0.7732
 5727TIP3   OH238671   0.328   3.209   4.579 -0.3244  0.4259 -0.4872
 5727TIP3    H138672   0.355   3.204   4.487  0.2314  1.3013 -0.3867
 5727TIP3    H238673   0.308   3.302   4.593  1.6052  0.7265  0.8053
 5728TIP3   OH238674   5.869   6.612   0.313  0.3877 -0.1416 -0.4738
 5728TIP3    H138675   5.810   6.580   0.380  0.2267  1.8652  0.3982
 5728TIP3    H238676   5.818   6.677   0.264  1.4919  0.7718 -0.4519
 5729TIP3   OH238677   0.176   1.261  13.188  0.7928 -0.3954  0.1576
 5729TIP3    H138678   0.199   1.257  13.281  2.9982  0.7499 -0.2729
 5729TIP3    H238679   0.256   1.232  13.143 -0.4643 -1.6034 -1.3861
 5730TIP3   OH238680   0.507   2.656   6.438 -0.0118 -0.3116  0.0791
 5730TIP3    H138681   0.505   2.581   6.497 -1.6724  0.9413  1.7664
 5730TIP3    H238682   0.423   2.653   6.391  0.0141  0.3280 -0.0228
 5731TIP3   OH238683   3.763   0.538  11.362  0.5302 -0.3895  0.1421
 5731TIP3    H138684   3.718   0.621  11.345 -3.4285 -2.5126 -1.0887
 5731TIP3    H238685   3.811   0.519  11.281  0.2367  0.0579 -0.1419
 5732TIP3   OH238686   0.499   5.349  10.835  0.3363 -0.0686  0.5009
 5732TIP3    H138687   0.421   5.349  10.779  1.2222 -4.6247 -1.2145
 5732TIP3    H238688   0.564   5.400  10.786 -0.0618 -0.7309 -0.7664
 5733TIP3   OH238689   1.224   3.906   2.762 -0.2830 -1.0318 -0.4605
 5733TIP3    H138690   1.130   3.885   2.766 -0.3052 -0.8105  0.3436
 5733TIP3    H238691   1.268   3.827   2.793 -0.2336 -0.9251 -0.2565
 5734TIP3   OH238692   6.112   3.491  15.824 -0.2949 -0.0127 -0.3129
 5734TIP3    H138693   6.166   3.471  15.901 -1.0271  0.5762  0.3792
 5734TIP3    H238694   6.046   3.552  15.857  0.2718  1.4252 -1.7510
 5735TIP3   OH238695   6.304   6.165  12.514  0.3882 -0.5424 -0.3805
 5735TIP3    H138696   6.261   6.217  12.582 -0.3096  0.6149 -1.6442
 5735TIP3    H238697   6.244   6.170  12.439  1.4371 -1.2095 -1.2915
 5736TIP3   OH238698   2.868   6.180  12.672 -0.1326  0.0714  0.3389
 5736TIP3    H138699   2.882   6.169  12.766  1.6159 -0.7115  0.0243
 5736TIP3    H238700   2.813   6.258  12.665 -0.7928 -0.2044  2.0275
 5737TIP3   OH238701   0.048   4.559  16.590  0.1944 -0.0905 -0.2303
 5737TIP3    H138702   0.015   4.585  16.676  0.1538  1.1862 -0.6047
 5737TIP3    H238703   0.143   4.560  16.599  0.1820 -1.3584  0.1770
 5738TIP3   OH238704   3.475   3.953   4.328  0.5291 -0.3009  0.1062
 5738TIP3    H138705   3.566   3.957   4.357  0.1816 -1.7809  1.5521
 5738TIP3    H238706   3.441   4.042   4.344  1.6149  0.1660 -0.1298
 5739TIP3   OH238707   3.432   3.570   1.330 -0.2453  0.1090  0.5976
 5739TIP3    H138708   3.500   3.580   1.264  0.6706  0.5646  1.5679
 5739TIP3    H238709   3.406   3.478   1.326  1.0455 -0.2821  0.7805
 5740TIP3   OH238710   3.990   3.079  11.625 -0.2553 -0.7808  0.0239
 5740TIP3    H138711   3.906   3.034  11.622 -0.6764 -0.0866  1.0872
 5740TIP3    H238712   3.992   3.131  11.545 -0.7268 -0.9951 -0.1314
 5741TIP3   OH238713   5.424   5.046  17.188 -0.0839  0.5022 -0.0510
 5741TIP3    H138714   5.364   5.076  17.119 -1.1578 -0.3898  0.4681
 5741TIP3    H238715   5.425   5.117  17.252 -1.8832 -0.1197  0.7215
 5742TIP3   OH238716   3.680   3.171   4.502 -0.1324 -0.0913  0.3005
 5742TIP3    H138717   3.675   3.175   4.406  0.9271  0.5402  0.2557
 5742TIP3    H238718   3.754   3.228   4.524  0.0591 -0.7720  1.4559
 5743TIP3   OH238719   1.855   1.580  17.143  0.4043 -0.5200  0.1506
 5743TIP3    H138720   1.942   1.589  17.103  0.0083 -0.7123 -0.7742
 5743TIP3    H238721   1.795   1.605  17.073 -0.4010 -2.6748  0.0063
 5744TIP3   OH238722   5.277   4.349   5.444  0.2408  0.2133  0.1007
 5744TIP3    H138723   5.266   4.356   5.350 -0.1731  0.6480  0.1751
 5744TIP3    H238724   5.187   4.348   5.479  0.3892  0.7349  0.5273
 5745TIP3   OH238725   6.394   3.346  13.787  0.4544  0.3910 -0.8628
 5745TIP3    H138726   6.412   3.375  13.698 -0.5654  0.1069 -1.1704
 5745TIP3    H238727   6.305   3.310  13.784  1.0777 -1.3426 -0.1574
 5746TIP3   OH238728   4.348   1.959   4.957 -0.2815  0.2913  0.0150
 5746TIP3    H138729   4.405   1.893   4.918  0.1757  0.8914 -0.3529
 5746TIP3    H238730   4.273   1.909   4.990  0.5436 -0.5443  0.6997
 5747TIP3   OH238731   0.368   2.250   3.468 -0.8264 -0.1183  0.3185
 5747TIP3    H138732   0.357   2.216   3.379 -0.8061  0.9783 -0.1184
 5747TIP3    H238733   0.446   2.304   3.463 -1.6577  1.1648  0.6113
 5748TIP3   OH238734   5.102   1.737  12.198  0.1687 -0.3574 -0.5532
 5748TIP3    H138735   5.091   1.642  12.198 -1.1653 -0.2230  0.3456
 5748TIP3    H238736   5.014   1.772  12.183  0.4869  0.7408  0.0340
 5749TIP3   OH238737   0.289   0.957  12.234 -0.0169 -0.1328  0.7315
 5749TIP3    H138738   0.304   1.051  12.223 -0.8975 -0.2113 -1.9200
 5749TIP3    H238739   0.220   0.951  12.300  1.0608  0.9684  2.0203
 5750TIP3   OH238740   2.898   1.071   0.002 -0.1270  0.3274 -0.0041
 5750TIP3    H138741   2.861   1.118   0.077  0.0909  0.6338 -0.0894
 5750TIP3    H238742   2.884   0.978   0.024 -2.4379  0.4221 -0.7754
 5751TIP3   OH238743   5.396   1.355   3.784  0.5843  0.3379 -0.2028
 5751TIP3    H138744   5.398   1.332   3.876 -0.3547 -0.8727 -0.4666
 5751TIP3    H238745   5.368   1.447   3.783 -2.3354 -0.4551  0.6232
 5752TIP3   OH238746   0.168   5.751  16.099 -0.7539  0.5129 -0.1930
 5752TIP3    H138747   0.199   5.704  16.021  0.0826 -1.0557  1.0310
 5752TIP3    H238748   0.164   5.684  16.167 -2.4368  1.6362  0.8845
 5753TIP3   OH238749   5.355   6.279   1.785  0.0166 -0.3728 -0.4092
 5753TIP3    H138750   5.283   6.219   1.764 -0.0662 -0.8152  1.0121
 5753TIP3    H238751   5.430   6.246   1.736 -0.7018  0.0344 -1.8312
 5754TIP3   OH238752   1.691   1.227   2.297  0.1621 -0.1355 -0.2425
 5754TIP3    H138753   1.628   1.261   2.234  1.2226 -0.2924 -1.4414
 5754TIP3    H238754   1.753   1.176   2.244  1.6171  0.4741  0.7822
 5755TIP3   OH238755   1.105   2.580   6.589  0.7869  0.2358  0.2004
 5755TIP3    H138756   1.166   2.521   6.544  0.4834  1.2445 -1.6477
 5755TIP3    H238757   1.035   2.522   6.619  0.9311 -0.4862 -0.7737
 5756TIP3   OH238758   2.099   1.470   1.959  0.1564  0.1187 -0.2388
 5756TIP3    H138759   2.089   1.425   1.875 -0.7152  0.6068 -0.4100
 5756TIP3    H238760   2.044   1.421   2.020  1.9242 -1.1300  0.4427
 5757TIP3   OH238761   6.260   0.777  16.855  0.1047  0.2556 -0.0390
 5757TIP3    H138762   6.346   0.818  16.864  0.0307  0.0316  2.8170
 5757TIP3    H238763   6.269   0.694  16.902 -1.5445  0.0189 -0.0885
 5758TIP3   OH238764   3.448   0.726  12.282  0.6366 -0.2100  0.2794
 5758TIP3    H138765   3.521   0.746  12.223  1.1037  0.4993  1.0629
 5758TIP3    H238766   3.490   0.712  12.367 -0.0852 -0.4702  0.5967
 5759TIP3   OH238767   5.476   6.643   6.241 -0.6045  0.1145  0.0840
 5759TIP3    H138768   5.503   6.673   6.328  0.1951 -0.3200 -0.0057
 5759TIP3    H238769   5.517   6.557   6.232  1.2227  1.0833 -1.6065
 5760TIP3   OH238770   2.496   1.338  12.000 -0.7672  0.2270  0.4602
 5760TIP3    H138771   2.526   1.394  12.072 -0.1755  3.5386 -2.1380
 5760TIP3    H238772   2.403   1.359  11.990 -0.7055  0.2371 -0.1114
 5761TIP3   OH238773   6.016   6.367  15.169  0.6284  0.1231  0.6190
 5761TIP3    H138774   6.092   6.356  15.226  0.7194  0.1277  0.4990
 5761TIP3    H238775   6.052   6.367  15.081  0.3347 -1.4023  0.4731
 5762TIP3   OH238776   6.788   0.536  14.505  0.1684  0.2933  0.0062
 5762TIP3    H138777   6.701   0.502  14.528 -0.8356  1.1023 -2.3684
 5762TIP3    H238778   6.774   0.629  14.487  1.1772  0.1102 -1.9662
 5763TIP3   OH238779   5.313   1.737   4.437  0.7547  0.6154  0.0957
 5763TIP3    H138780   5.231   1.712   4.479  2.2289 -1.3913  1.9850
 5763TIP3    H238781   5.301   1.714   4.345 -0.1053 -1.6826  0.7107
 5764TIP3   OH238782   1.983   0.061  14.561  0.0148  0.7112 -0.2499
 5764TIP3    H138783   2.030   0.119  14.501  0.4877  1.1082  0.4866
 5764TIP3    H238784   2.051   0.004  14.597 -0.3454  0.1420 -0.4710
 5765TIP3   OH238785   4.844   5.573   1.373  0.4714  0.2094  0.4154
 5765TIP3    H138786   4.794   5.500   1.336  1.8301 -0.5845  0.0959
 5765TIP3    H238787   4.831   5.565   1.467  0.3373 -0.2349  0.3618
 5766TIP3   OH238788   5.308   5.563   6.622 -0.0701 -0.0794 -0.1538
 5766TIP3    H138789   5.267   5.568   6.536  0.0485  0.7314 -0.1771
 5766TIP3    H238790   5.270   5.636   6.672  0.7125  0.1752  0.0917
 5767TIP3   OH238791   1.750   0.561  10.391  0.1329  0.0092 -0.5148
 5767TIP3    H138792   1.831   0.531  10.350 -0.1317 -1.2426 -0.1455
 5767TIP3    H238793   1.680   0.521  10.340 -0.2350 -0.0215  0.0037
 5768TIP3   OH238794   3.831   4.793  14.403  0.7247 -0.1413  0.2502
 5768TIP3    H138795   3.746   4.824  14.371  0.3737  0.7931  2.0052
 5768TIP3    H238796   3.811   4.708  14.443  0.8976 -0.5847 -0.5667
 5769TIP3   OH238797   3.353   6.775  14.104  0.0794 -0.7595 -0.0487
 5769TIP3    H138798   3.419   6.834  14.139  0.4035 -0.6090 -0.8850
 5769TIP3    H238799   3.298   6.752  14.179  1.0204 -0.8140  0.6271
 5770TIP3   OH238800   4.109   3.171   0.403 -0.1402  1.0531  0.6698
 5770TIP3    H138801   4.173   3.216   0.348  0.7499 -1.2974 -0.3598
 5770TIP3    H238802   4.026   3.215   0.384  0.4642  1.4772 -1.1996
 5771TIP3   OH238803   2.865   4.104  13.380  0.2445  0.1987  0.6504
 5771TIP3    H138804   2.928   4.130  13.447  1.8690  2.1607 -1.4953
 5771TIP3    H238805   2.895   4.018  13.352  1.0438  0.4354  0.7461
 5772TIP3   OH238806   0.307   5.008   4.799 -0.3061 -0.6061 -0.1809
 5772TIP3    H138807   0.226   4.959   4.798  0.7061 -2.6083  2.7361
 5772TIP3    H238808   0.376   4.942   4.795  1.2436  0.9676 -1.5195
 5773TIP3   OH238809   4.319   1.423   4.458  0.2656  0.4329 -0.5315
 5773TIP3    H138810   4.321   1.515   4.487  0.4863  0.2638 -0.0070
 5773TIP3    H238811   4.411   1.400   4.446  0.1964  0.3547 -0.9023
 5774TIP3   OH238812   0.200   2.050  16.841 -0.2899 -0.8245 -0.0731
 5774TIP3    H138813   0.116   2.016  16.873 -1.6497  1.3227 -1.1451
 5774TIP3    H238814   0.214   2.130  16.892 -0.8288  0.8337 -2.3575
 5775TIP3   OH238815   5.606   2.980  13.990  0.3607 -0.2891 -0.1244
 5775TIP3    H138816   5.590   2.893  14.027 -1.1520  0.2669  0.6137
 5775TIP3    H238817   5.694   3.003  14.019 -0.0363 -0.7053  1.5010
 5776TIP3   OH238818   5.605   1.602   4.340 -0.7129 -0.0210  0.4093
 5776TIP3    H138819   5.572   1.573   4.255 -0.6707 -0.5811  0.5759
 5776TIP3    H238820   5.644   1.523   4.379  0.8409  0.6231  0.2190
 5777TIP3   OH238821   5.354   3.390  16.273  0.4204  0.0699  0.1550
 5777TIP3    H138822   5.273   3.440  16.288  0.5200  0.6286 -1.0770
 5777TIP3    H238823   5.331   3.329  16.203  1.2176  0.6207 -0.5980
 5778TIP3   OH238824   4.280   2.185   0.962 -0.4678 -0.2761 -0.0121
 5778TIP3    H138825   4.333   2.131   0.905  1.1338  1.1748  0.0194
 5778TIP3    H238826   4.249   2.125   1.030 -0.6714 -1.5855 -1.2243
 5779TIP3   OH238827   1.007   2.507   1.835  0.4663  0.5808 -0.4116
 5779TIP3    H138828   1.012   2.581   1.775 -2.2282  1.7238  0.5891
 5779TIP3    H238829   0.924   2.519   1.881  0.6372 -2.2719  0.8889
 5780TIP3   OH238830   4.002   5.927  11.678 -0.6761 -0.5042  0.6883
 5780TIP3    H138831   3.954   5.853  11.715  0.4938 -1.2694  0.6922
 5780TIP3    H238832   3.933   5.984  11.643 -1.5859 -1.6684  0.5157
 5781TIP3   OH238833   1.051   3.494   5.658  0.3971  0.2836  0.1334
 5781TIP3    H138834   0.974   3.550   5.667  0.2698  0.1905 -0.3562
 5781TIP3    H238835   1.023   3.425   5.597  0.3265 -0.7102  1.2568
 5782TIP3   OH238836   4.190   4.055  15.011  0.0761 -0.3140  0.8101
 5782TIP3    H138837   4.120   4.072  14.948  0.8156  0.7282  0.2420
 5782TIP3    H238838   4.259   4.117  14.988  2.5310 -3.3059 -0.6793
 5783TIP3   OH238839   6.288   1.223   3.688  0.4075  0.1742  0.3917
 5783TIP3    H138840   6.222   1.216   3.619 -0.8373  1.5642  1.3613
 5783TIP3    H238841   6.254   1.292   3.746  4.3779  3.7306 -0.9598
 5784TIP3   OH238842   4.029   2.759  16.395 -0.2547  0.3763 -0.4250
 5784TIP3    H138843   3.964   2.812  16.441 -1.1732 -0.6641 -0.4771
 5784TIP3    H238844   3.993   2.670  16.398  3.0574 -1.1470  3.2659
 5785TIP3   OH238845   6.005   0.679   5.771  0.4124  0.3825  0.2122
 5785TIP3    H138846   6.086   0.660   5.725  1.4743  2.1991  1.2021
 5785TIP3    H238847   5.965   0.751   5.722 -0.6910 -0.5904 -0.3459
 5786TIP3   OH238848   1.673   4.409  12.184  0.7299 -0.0765  0.2428
 5786TIP3    H138849   1.632   4.332  12.148 -0.0856 -0.4519  1.8697
 5786TIP3    H238850   1.704   4.458  12.108  0.5663 -1.5983 -0.8474
 5787TIP3   OH238851   6.165   5.308   1.979 -0.2155 -0.4436  0.4874
 5787TIP3    H138852   6.207   5.333   2.061  0.3337 -0.3471  0.1827
 5787TIP3    H238853   6.100   5.242   2.004 -3.2536  2.7093  1.6476
 5788TIP3   OH238854   2.642   2.443   4.277 -0.4401  0.0768  0.5018
 5788TIP3    H138855   2.697   2.400   4.342 -0.6673  1.6331  1.7812
 5788TIP3    H238856   2.679   2.417   4.193  1.9764  0.6850  1.2997
 5789TIP3   OH238857   6.687   5.857  10.625 -0.0236 -0.0918 -0.4009
 5789TIP3    H138858   6.635   5.837  10.703 -0.2388 -0.5914 -0.6602
 5789TIP3    H238859   6.701   5.771  10.584  1.8374 -0.0824  0.1655
 5790TIP3   OH238860   1.981   0.078   4.741 -0.2375 -0.0359  0.4952
 5790TIP3    H138861   1.912   0.027   4.784 -0.6790  0.5760  0.5198
 5790TIP3    H238862   2.020   0.130   4.811 -2.2618  2.4650 -0.0735
 5791TIP3   OH238863   5.823   3.248  16.429  0.4433  0.0123  0.0786
 5791TIP3    H138864   5.812   3.341  16.409 -0.3971 -0.1162 -0.0845
 5791TIP3    H238865   5.749   3.205  16.386  0.3697 -0.6391  0.8308
 5792TIP3   OH238866   4.141   5.453  16.983  0.0807  0.0109 -0.2687
 5792TIP3    H138867   4.100   5.539  16.976 -0.2386 -0.1092  0.1438
 5792TIP3    H238868   4.216   5.466  17.040  0.0632  0.0266 -0.2490
 5793TIP3   OH238869   0.301   1.202   4.700 -0.2662 -0.3631 -0.8675
 5793TIP3    H138870   0.322   1.217   4.608  1.0855 -0.9937 -0.6764
 5793TIP3    H238871   0.351   1.124   4.724 -0.3524 -0.0205  0.4967
 5794TIP3   OH238872   4.881   4.728   1.830  0.2027 -0.0886 -0.1196
 5794TIP3    H138873   4.832   4.782   1.893 -0.5154 -0.5499 -0.2693
 5794TIP3    H238874   4.871   4.639   1.862 -0.2496 -0.3392 -0.9296
 5795TIP3   OH238875   5.488   2.541  11.344 -0.6884 -0.2136  0.5302
 5795TIP3    H138876   5.510   2.450  11.329 -0.9074 -0.5196  1.8898
 5795TIP3    H238877   5.569   2.582  11.373 -0.3308  0.3053 -1.0742
 5796TIP3   OH238878   5.934   5.173  15.934  0.6997 -0.3145 -0.3447
 5796TIP3    H138879   5.938   5.190  16.028  1.9060 -0.1480 -0.4019
 5796TIP3    H238880   5.853   5.124  15.921  0.7134 -0.6760  0.8383
 5797TIP3   OH238881   5.877   2.724   1.446 -0.5082 -0.3574 -0.3054
 5797TIP3    H138882   5.800   2.732   1.390  0.0754  0.8799 -0.9689
 5797TIP3    H238883   5.945   2.689   1.388 -0.6117 -1.7063  0.3428
 5798TIP3   OH238884   1.995   1.736   5.987  0.2301  0.3818 -0.3170
 5798TIP3    H138885   2.068   1.790   6.019  0.4487  0.2845 -0.6405
 5798TIP3    H238886   1.932   1.799   5.953  0.3175  0.4554 -0.3450
 5799TIP3   OH238887   4.324   6.122   2.519  0.0091 -0.3333 -0.1499
 5799TIP3    H138888   4.312   6.217   2.516 -0.3126 -0.3635 -2.6969
 5799TIP3    H238889   4.242   6.087   2.485  0.3994 -1.4942  0.0559
 5800TIP3   OH238890   5.675   4.859   0.477 -0.1491  0.2695 -0.0699
 5800TIP3    H138891   5.675   4.785   0.538  0.6462  0.6582  0.4161
 5800TIP3    H238892   5.766   4.869   0.450 -0.1620  1.3576  0.2261
 5801TIP3   OH238893   1.177   2.172  15.006 -0.5753  0.5680  0.5224
 5801TIP3    H138894   1.241   2.243  15.007  0.7178 -0.5354 -0.1616
 5801TIP3    H238895   1.227   2.095  15.034 -1.8153 -0.1736  0.7493
 5802TIP3   OH238896   6.497   0.527  15.814 -0.8084 -0.1530 -0.3220
 5802TIP3    H138897   6.412   0.507  15.775 -1.4891  0.5702  0.7183
 5802TIP3    H238898   6.497   0.622  15.825  0.2215 -0.1218 -0.4673
 5803TIP3   OH238899   4.627   2.028   1.722 -0.2498 -0.1992 -0.1834
 5803TIP3    H138900   4.547   2.036   1.774 -0.9314  0.8373 -1.3238
 5803TIP3    H238901   4.611   1.953   1.665  1.1911 -2.4406  2.1719
 5804TIP3   OH238902   0.683   0.376   3.278  0.1245  0.0209 -0.2680
 5804TIP3    H138903   0.722   0.441   3.337  0.4896  1.5709 -2.1033
 5804TIP3    H238904   0.607   0.421   3.240 -0.1795 -0.9780 -0.8703
 5805TIP3   OH238905   0.051   1.623   3.683 -0.1493 -0.0641 -0.0185
 5805TIP3    H138906   0.022   1.602   3.772  2.5561 -0.2691  0.9211
 5805TIP3    H238907  -0.025   1.604   3.628 -1.0085 -2.8878  1.9007
 5806TIP3   OH238908   0.577   0.752  14.853 -0.3235  0.3033 -0.0177
 5806TIP3    H138909   0.574   0.696  14.776  0.2874  1.1638 -0.6777
 5806TIP3    H238910   0.485   0.770  14.873 -0.5373 -0.9233  0.2248
 5807TIP3   OH238911   2.086   0.483   4.191  0.9607  0.2733  0.0174
 5807TIP3    H138912   2.066   0.416   4.257  1.0990  0.1575 -0.0592
 5807TIP3    H238913   2.147   0.543   4.235  0.7338  0.4237  0.1298
 5808TIP3   OH238914   2.226   2.408  13.559 -0.4293 -0.4539 -0.2112
 5808TIP3    H138915   2.172   2.343  13.605 -1.3299  2.3346  3.0719
 5808TIP3    H238916   2.309   2.407  13.607  0.3026 -0.5862 -1.4618
 5809TIP3   OH238917   5.401   5.372  12.103  0.6860  0.1420 -0.1428
 5809TIP3    H138918   5.444   5.408  12.181  3.3463  0.6954 -1.7248
 5809TIP3    H238919   5.417   5.277  12.109  1.3284  0.2401 -0.2514
 5810TIP3   OH238920   4.604   4.527   0.889  0.2414  0.1493 -0.1609
 5810TIP3    H138921   4.598   4.589   0.962  0.8204 -0.3026  0.2803
 5810TIP3    H238922   4.583   4.442   0.927 -0.6471  0.0727 -0.7842
 5811TIP3   OH238923   2.689   0.299   5.342 -0.4891  0.5490  0.2269
 5811TIP3    H138924   2.737   0.377   5.370  0.1521  0.2685 -0.0751
 5811TIP3    H238925   2.639   0.273   5.419  1.1529 -0.1344  1.1288
 5812TIP3   OH238926   4.986   3.755  11.509 -0.4697 -0.0177  0.1776
 5812TIP3    H138927   4.988   3.730  11.417  1.4318  3.8711 -1.0602
 5812TIP3    H238928   5.048   3.695  11.551 -3.2869 -3.6055 -0.3179
 5813TIP3   OH238929   0.899   2.404   2.253  0.4990  0.1471 -0.1898
 5813TIP3    H138930   0.825   2.383   2.196 -0.8447  0.4871  1.3315
 5813TIP3    H238931   0.976   2.396   2.197 -0.6160 -0.9416 -1.6570
 5814TIP3   OH238932   2.279   4.342  15.626  0.0857  0.0880 -0.0083
 5814TIP3    H138933   2.241   4.297  15.551  0.0519  0.7147 -0.3682
 5814TIP3    H238934   2.310   4.271  15.683 -0.3928 -0.3972 -0.3448
 5815TIP3   OH238935   3.954   1.217  10.544 -0.0010  0.0136 -0.8122
 5815TIP3    H138936   3.979   1.238  10.454 -0.3637  2.2439 -0.4750
 5815TIP3    H238937   3.905   1.295  10.573 -1.3303 -1.3420  0.7708
 5816TIP3   OH238938   3.939   3.193  12.805  0.0247  0.2659 -0.3976
 5816TIP3    H138939   3.897   3.135  12.741 -1.2613 -0.4715  1.0546
 5816TIP3    H238940   3.876   3.264  12.818 -0.8615 -0.8484  1.8079
 5817TIP3   OH238941   0.991   3.523   4.923 -0.0204  0.3525 -0.6857
 5817TIP3    H138942   0.946   3.607   4.927 -0.9526 -0.0009 -2.8305
 5817TIP3    H238943   0.985   3.496   4.832  0.8730 -1.7328 -0.1897
 5818TIP3   OH238944   3.532   0.789   2.343  0.1971 -0.2775  0.2504
 5818TIP3    H138945   3.469   0.800   2.415 -0.0607 -0.2691  0.0256
 5818TIP3    H238946   3.533   0.694   2.327 -0.3467 -0.2017 -0.2650
 5819TIP3   OH238947   3.948   0.112  12.852 -0.3288  0.2069 -0.4135
 5819TIP3    H138948   3.973   0.174  12.920 -0.2218  0.1637 -0.4131
 5819TIP3    H238949   3.992   0.031  12.876 -0.8094  0.0148 -0.1803
 5820TIP3   OH238950   3.596   6.071   4.125  0.0608  0.2496 -0.4534
 5820TIP3    H138951   3.536   6.131   4.082 -1.2646  1.3811  2.6808
 5820TIP3    H238952   3.667   6.126   4.158 -0.1332 -0.1564  0.7158
 5821TIP3   OH238953   3.264   3.679   1.112  0.3298 -0.2786 -0.0050
 5821TIP3    H138954   3.292   3.670   1.203 -1.5183  2.8339  1.0158
 5821TIP3    H238955   3.176   3.643   1.110 -0.6731  1.9823  0.1870
 5822TIP3   OH238956   5.033   3.127  12.924  0.0948 -0.0314  0.6351
 5822TIP3    H138957   4.942   3.150  12.905  0.2642  0.6755  0.6707
 5822TIP3    H238958   5.035   3.115  13.019 -0.3501 -1.8226  0.4667
 5823TIP3   OH238959   2.555   0.594  16.123 -0.5247 -0.2325  0.4800
 5823TIP3    H138960   2.544   0.674  16.175 -1.1647 -0.3757  0.5794
 5823TIP3    H238961   2.621   0.544  16.170 -0.6756 -0.1004  0.8430
 5824TIP3   OH238962   6.733   3.035   3.542  0.4681 -0.0845 -0.7608
 5824TIP3    H138963   6.811   3.046   3.486  3.2859  1.2397  2.9751
 5824TIP3    H238964   6.730   3.115   3.593 -1.9360 -1.1747  0.9440
 5825TIP3   OH238965   2.059   4.365   3.685  0.0297  0.1127  0.4584
 5825TIP3    H138966   2.081   4.361   3.592 -2.1053 -0.1656 -0.0884
 5825TIP3    H238967   2.087   4.453   3.712  0.1971  0.4014 -0.5850
 5826TIP3   OH238968   0.497   1.025   2.675 -0.2452  0.4319  0.4464
 5826TIP3    H138969   0.477   1.108   2.718 -0.7254  0.5028  0.0939
 5826TIP3    H238970   0.414   0.977   2.677 -0.2435  0.3925 -0.3013
 5827TIP3   OH238971   3.162   1.303  11.976  0.2561  0.2305 -0.2091
 5827TIP3    H138972   3.166   1.303  12.072  2.9973 -1.3314 -0.1956
 5827TIP3    H238973   3.189   1.391  11.951 -0.8530  0.7726  0.4189
 5828TIP3   OH238974   4.719   0.834   4.024  0.3488  0.0268  0.3222
 5828TIP3    H138975   4.766   0.863   3.946 -1.0505  0.1916 -0.5022
 5828TIP3    H238976   4.629   0.864   4.010  0.4222  1.7101  2.8634
 5829TIP3   OH238977   2.107   2.988   6.101 -0.4978 -0.0365  0.0046
 5829TIP3    H138978   2.175   2.954   6.042 -0.0995  0.4313  0.1880
 5829TIP3    H238979   2.061   3.053   6.049  0.0111  0.5518  0.2828
 5830TIP3   OH238980   5.636   0.651   1.014 -0.7999  0.7775  0.3964
 5830TIP3    H138981   5.685   0.569   1.008 -1.7726  0.2304 -0.5123
 5830TIP3    H238982   5.631   0.670   1.108  0.3589  0.3760  0.5499
 5831TIP3   OH238983   6.660   1.748  16.426  0.0110  0.1331  0.6123
 5831TIP3    H138984   6.646   1.713  16.338  1.3478  1.4569 -0.1703
 5831TIP3    H238985   6.741   1.706  16.456  1.0332  1.6485  0.0930
 5832TIP3   OH238986   6.734   2.889   1.597  0.4121 -0.2911 -0.5982
 5832TIP3    H138987   6.802   2.841   1.550  1.0275  0.3913 -0.4126
 5832TIP3    H238988   6.780   2.962   1.638 -0.7120  1.2935 -2.0125
 5833TIP3   OH238989   5.720   2.118  11.169 -0.3020  1.2059  0.3013
 5833TIP3    H138990   5.756   2.154  11.249  0.9754 -0.2607  0.4429
 5833TIP3    H238991   5.756   2.172  11.099  1.5004  0.3522  0.5109
 5834TIP3   OH238992   4.009   3.194  11.334  0.1147 -0.3268 -0.1589
 5834TIP3    H138993   3.931   3.249  11.346  1.4730  1.5519  0.5281
 5834TIP3    H238994   4.008   3.170  11.242 -0.7273  0.5251 -0.3879
 5835TIP3   OH238995   0.192   4.118   0.346 -0.6953  0.0269  0.1698
 5835TIP3    H138996   0.197   4.207   0.311  0.3578  1.0168  2.6054
 5835TIP3    H238997   0.129   4.124   0.417 -1.4963 -1.4880 -0.3774
 5836TIP3   OH238998   3.056   1.673  12.331 -0.1730 -0.1183  0.1174
 5836TIP3    H138999   3.019   1.759  12.350 -0.1587 -0.0598 -0.1113
 5836TIP3    H239000   3.058   1.628  12.415 -0.0311  0.1635  0.2667
 5837TIP3   OH239001   4.017   3.456  16.948 -0.1244  0.3895 -0.3902
 5837TIP3    H139002   4.082   3.387  16.944  0.0392  0.3626  1.8782
 5837TIP3    H239003   3.971   3.450  16.863  1.6157 -0.7236 -1.3061
 5838TIP3   OH239004   2.838   1.054   6.014  0.3280  0.2198 -0.0420
 5838TIP3    H139005   2.777   1.110   6.063  2.2146  1.4273  1.0641
 5838TIP3    H239006   2.925   1.088   6.037  1.3861  0.0524 -3.2887
 5839TIP3   OH239007   0.630   1.424  12.444 -0.1108  0.1034 -0.2319
 5839TIP3    H139008   0.723   1.447  12.449 -0.1680  0.2133  0.3878
 5839TIP3    H239009   0.608   1.394  12.532 -0.9432  1.1568 -0.0628
 5840TIP3   OH239010   1.695   5.000   2.556  0.4929 -0.5942  0.1572
 5840TIP3    H139011   1.659   5.022   2.641  0.1901  0.5831 -0.2528
 5840TIP3    H239012   1.619   4.983   2.501  0.6656 -0.8154 -0.0154
 5841TIP3   OH239013   5.514   5.479  16.182  0.4761 -0.4502  0.3916
 5841TIP3    H139014   5.519   5.389  16.149 -1.3663  0.4891 -3.0068
 5841TIP3    H239015   5.458   5.474  16.260 -0.3065 -2.1784 -0.2380
 5842TIP3   OH239016   1.481   4.344   4.462  0.1060 -0.0908 -0.1186
 5842TIP3    H139017   1.461   4.301   4.379 -2.1424  1.4723 -0.4572
 5842TIP3    H239018   1.492   4.436   4.440  0.4484  0.2101  1.2090
 5843TIP3   OH239019   6.197   4.064  12.379  0.1906  0.1425 -0.2070
 5843TIP3    H139020   6.251   4.032  12.307 -0.4857 -1.8157  0.0798
 5843TIP3    H239021   6.109   4.070  12.342 -0.1158 -0.6381  0.3668
 5844TIP3   OH239022   4.775   2.432  12.276 -0.1823 -0.0829  0.0935
 5844TIP3    H139023   4.858   2.466  12.311  0.9078 -1.3115 -1.1565
 5844TIP3    H239024   4.767   2.474  12.190 -0.9338  0.1238  0.2630
 5845TIP3   OH239025   4.394   0.974  12.447 -0.0600  0.7313 -0.0151
 5845TIP3    H139026   4.343   0.988  12.527  0.0624  0.4928  0.1049
 5845TIP3    H239027   4.373   0.885  12.420 -0.0453  0.7860 -0.2100
 5846TIP3   OH239028   6.603   5.267   2.347  0.8555  0.3236  0.1220
 5846TIP3    H139029   6.698   5.276   2.343  0.8484  1.5284  1.6522
 5846TIP3    H239030   6.582   5.273   2.441 -0.8159  1.1719 -0.2649
 5847TIP3   OH239031   4.237   3.659   5.169 -0.4699  0.5929 -0.0513
 5847TIP3    H139032   4.179   3.636   5.097 -1.8964  1.0068  0.9181
 5847TIP3    H239033   4.180   3.665   5.245  0.6716  2.0056  0.7634
 5848TIP3   OH239034   6.809   0.538   0.994  0.1339  0.2305  0.0113
 5848TIP3    H139035   6.777   0.521   1.083  0.1613 -3.1609 -0.5012
 5848TIP3    H239036   6.734   0.578   0.949 -1.4768 -2.1452  0.4100
 5849TIP3   OH239037   1.264   0.613  17.156  0.6649  0.4567 -0.2742
 5849TIP3    H139038   1.234   0.699  17.126 -0.3356  0.1256 -0.2575
 5849TIP3    H239039   1.242   0.554  17.084  0.5041  0.0711  0.0915
 5850TIP3   OH239040   5.041   6.375  17.202 -0.4938 -0.3197  0.0881
 5850TIP3    H139041   5.031   6.311  17.132 -0.2149 -0.3274  0.0522
 5850TIP3    H239042   5.033   6.324  17.283 -0.7248 -0.3250  0.0635
 5851TIP3   OH239043   5.810   2.190  12.571 -0.1514 -0.1768 -0.6920
 5851TIP3    H139044   5.719   2.213  12.549 -0.2374 -0.1139 -0.2723
 5851TIP3    H239045   5.821   2.101  12.538 -0.5547 -0.4106 -0.2129
 5852TIP3   OH239046   1.851   3.777   0.377  0.5069  0.0841  0.5487
 5852TIP3    H139047   1.809   3.852   0.419  0.7697 -0.9321  2.7498
 5852TIP3    H239048   1.788   3.748   0.311 -0.7894  0.6275  1.5143
 5853TIP3   OH239049   4.679   4.383   4.290 -0.2668  0.6444 -0.1981
 5853TIP3    H139050   4.657   4.476   4.292  0.5384  0.8459 -0.0330
 5853TIP3    H239051   4.775   4.382   4.290 -0.2665 -0.1690 -0.9341
 5854TIP3   OH239052   6.799   1.902  14.346  0.1904 -0.1003  0.4793
 5854TIP3    H139053   6.862   1.871  14.280  0.7683 -1.9973  1.8303
 5854TIP3    H239054   6.715   1.903  14.300  0.5484 -1.5872 -0.2892
 5855TIP3   OH239055   4.965   1.030  12.747  0.3690  0.7972 -0.4560
 5855TIP3    H139056   4.982   0.962  12.812  0.8251  0.0503 -1.3374
 5855TIP3    H239057   4.940   1.107  12.799 -2.7818 -0.7117  0.4646
 5856TIP3   OH239058   5.773   6.297  10.669  0.2204 -0.4705  0.5283
 5856TIP3    H139059   5.786   6.389  10.646 -0.7126 -0.3304  0.5196
 5856TIP3    H239060   5.709   6.299  10.740  0.2609 -1.1086  0.5889
 5857TIP3   OH239061   6.065   3.446   2.975 -0.5254  0.0077  0.1453
 5857TIP3    H139062   6.147   3.412   2.939 -0.3944  1.5900 -1.1487
 5857TIP3    H239063   6.002   3.437   2.904 -1.5711 -1.3677  1.1955
 5858TIP3   OH239064   0.218   2.884  16.020  0.4553 -0.8382 -0.3299
 5858TIP3    H139065   0.125   2.872  16.038  0.1892  0.9481 -0.2965
 5858TIP3    H239066   0.245   2.802  15.979 -1.2227 -1.2505 -0.7006
 5859TIP3   OH239067   0.625   5.241  16.000 -0.0003  0.7140  0.3956
 5859TIP3    H139068   0.703   5.296  16.008 -0.8292  2.4088 -1.9287
 5859TIP3    H239069   0.558   5.288  16.050 -0.6733  1.8784 -1.4802
 5860TIP3   OH239070   6.365   2.998  11.895  0.5217 -0.0251 -0.3785
 5860TIP3    H139071   6.408   2.917  11.869  0.1239 -0.4084  0.1338
 5860TIP3    H239072   6.285   3.000  11.844  0.4073 -0.0842 -0.2016
 5861TIP3   OH239073   6.114   6.439   5.856 -0.6980  0.7477 -0.6562
 5861TIP3    H139074   6.089   6.426   5.764 -0.4282  0.5109 -0.6964
 5861TIP3    H239075   6.128   6.533   5.864  2.8494  0.4732 -1.7809
 5862TIP3   OH239076   0.096   4.318   0.934 -0.2729  0.2581  0.1637
 5862TIP3    H139077   0.027   4.380   0.910 -1.0760 -0.4791  0.4943
 5862TIP3    H239078   0.173   4.372   0.948  0.4051  0.8106 -4.1691
 5863TIP3   OH239079   2.175   3.332  10.926  1.3243 -0.2136  0.7441
 5863TIP3    H139080   2.168   3.316  10.832 -1.9234 -0.7857  0.9735
 5863TIP3    H239081   2.208   3.249  10.962 -2.2879 -1.9749  0.4933
 5864TIP3   OH239082   6.263   4.740   4.977  0.5555 -0.2844 -0.0439
 5864TIP3    H139083   6.338   4.783   4.936  0.1889 -0.1768 -0.6135
 5864TIP3    H239084   6.211   4.707   4.903 -2.2180  3.3438 -0.0272
 5865TIP3   OH239085   0.930   2.274  13.976  0.2273 -0.1845 -0.1056
 5865TIP3    H139086   0.978   2.213  14.032 -0.0815 -1.0515 -0.7534
 5865TIP3    H239087   0.861   2.310  14.032 -0.3571 -1.3776 -0.0308
 5866TIP3   OH239088   3.580   0.652  17.055 -0.1896 -0.1705  0.1853
 5866TIP3    H139089   3.666   0.666  17.016 -0.1142 -1.5610 -0.1966
 5866TIP3    H239090   3.569   0.557  17.056 -2.3510 -0.0118 -1.1563
 5867TIP3   OH239091   0.787   3.607   5.686  0.1753 -0.2824 -0.2204
 5867TIP3    H139092   0.772   3.609   5.780 -0.3823  1.3660 -0.3036
 5867TIP3    H239093   0.703   3.581   5.648  0.5323 -1.4238 -0.2610
 5868TIP3   OH239094   3.856   4.835  11.726 -0.0238  0.0985  0.6829
 5868TIP3    H139095   3.889   4.746  11.744  0.1557  0.2921  1.3249
 5868TIP3    H239096   3.817   4.864  11.808 -1.6407 -0.0303  0.0026
 5869TIP3   OH239097   1.924   0.236   2.875 -0.4737 -0.6383  0.1630
 5869TIP3    H139098   1.891   0.193   2.954  0.8000 -0.2554  0.9353
 5869TIP3    H239099   2.011   0.199   2.862 -1.1711 -1.6870 -1.8650
 5870TIP3   OH239100   2.426   4.998   5.325  0.4968  0.3337  0.3961
 5870TIP3    H139101   2.432   4.980   5.419 -0.2134  1.5194  0.6837
 5870TIP3    H239102   2.484   4.933   5.284  0.6392 -0.3371  1.6290
 5871TIP3   OH239103   4.776   1.935  17.184 -0.1029 -0.4487  0.2725
 5871TIP3    H139104   4.756   1.841  17.182  1.6676 -0.8783 -2.3756
 5871TIP3    H239105   4.711   1.974  17.125  0.0691 -0.2288  0.2289
 5872TIP3   OH239106   0.170   2.211  11.144  0.1472  0.2926  0.2713
 5872TIP3    H139107   0.133   2.286  11.098  0.3577 -0.4775 -1.2067
 5872TIP3    H239108   0.222   2.165  11.078 -0.2084 -1.3157  1.0527
 5873TIP3   OH239109   2.487   2.734   1.840 -0.4284 -0.0350 -0.2877
 5873TIP3    H139110   2.420   2.682   1.884 -0.2995  0.0297 -0.0143
 5873TIP3    H239111   2.541   2.770   1.911  0.5725 -0.9800 -0.5466
 5874TIP3   OH239112   3.621   0.951  13.356  0.6511  0.5771 -0.5432
 5874TIP3    H139113   3.636   0.863  13.321  1.1815  0.9911 -1.3630
 5874TIP3    H239114   3.653   0.946  13.446 -1.0291 -0.5901  0.0547
 5875TIP3   OH239115   5.854   4.989  11.492  0.4818 -0.3069 -0.1647
 5875TIP3    H139116   5.933   5.029  11.455  2.2377 -1.7662  1.7938
 5875TIP3    H239117   5.859   4.897  11.466 -0.6619 -0.3930 -0.1269
 5876TIP3   OH239118   1.642   1.347   4.598 -0.2297 -0.3442  0.1641
 5876TIP3    H139119   1.672   1.260   4.572 -0.5238 -0.6079  0.6796
 5876TIP3    H239120   1.611   1.335   4.688 -3.3101 -0.4658 -0.7846
 5877TIP3   OH239121   1.550   2.161  12.856 -0.0914  0.5161 -0.1939
 5877TIP3    H139122   1.504   2.245  12.853 -0.2747  0.4069 -0.3616
 5877TIP3    H239123   1.643   2.186  12.857 -0.0900  0.6789 -2.0733
 5878TIP3   OH239124   2.208   0.566  15.517 -0.5509  0.3382 -0.4571
 5878TIP3    H139125   2.246   0.650  15.493  2.0840 -1.2664 -2.4598
 5878TIP3    H239126   2.265   0.534  15.587 -1.1783 -0.0637 -0.1205
 5879TIP3   OH239127   4.461   2.723  11.321 -0.0141  0.5224 -0.6327
 5879TIP3    H139128   4.458   2.667  11.243  0.5567 -1.3965  0.6461
 5879TIP3    H239129   4.395   2.685  11.379  1.5669  0.0628  0.9363
 5880TIP3   OH239130   0.982   6.223   4.333  0.6545  0.3858 -0.5506
 5880TIP3    H139131   1.050   6.216   4.266  2.1512  0.6590  0.8813
 5880TIP3    H239132   0.923   6.291   4.300  1.2792  0.4151 -1.6566
 5881TIP3   OH239133   6.755   4.554  15.323  0.3560  0.0049 -0.3622
 5881TIP3    H139134   6.728   4.478  15.272 -0.5558 -0.3404  0.6074
 5881TIP3    H239135   6.727   4.629  15.271  0.6885 -0.3177 -1.0169
 5882TIP3   OH239136   1.709   3.214  11.985 -0.0671  0.0177  0.2745
 5882TIP3    H139137   1.653   3.220  12.063 -0.8469 -1.1184 -0.1707
 5882TIP3    H239138   1.788   3.171  12.015 -0.1276  0.0990  0.5554
 5883TIP3   OH239139   6.464   4.062   0.914  0.1618 -0.2808  0.4244
 5883TIP3    H139140   6.378   4.076   0.873  0.1942  0.8532  0.6981
 5883TIP3    H239141   6.515   4.016   0.848 -0.0363  0.8117 -0.5221
 5884TIP3   OH239142   6.702   4.693   4.275 -0.9534 -0.1108 -0.1545
 5884TIP3    H139143   6.616   4.673   4.238 -0.1202  0.8244 -2.8305
 5884TIP3    H239144   6.700   4.788   4.292 -0.3468 -0.0224 -0.5499
 5885TIP3   OH239145   1.124   4.524  15.817  0.2107  0.0331  0.1866
 5885TIP3    H139146   1.169   4.446  15.786  0.4170  0.0378  0.4773
 5885TIP3    H239147   1.142   4.590  15.749  0.5732  0.0130  0.2619
 5886TIP3   OH239148   3.026   2.136  12.927  0.2898 -0.3326 -0.3711
 5886TIP3    H139149   2.960   2.070  12.947 -0.3935  0.3591 -0.3093
 5886TIP3    H239150   3.044   2.125  12.834 -0.6714  0.1376 -0.6245
 5887TIP3   OH239151   3.035   2.441  13.334 -0.1658 -0.1510  0.5127
 5887TIP3    H139152   3.102   2.463  13.270  0.0115  2.9770  1.6055
 5887TIP3    H239153   3.081   2.436  13.417 -1.0059  0.3070  1.0258
 5888TIP3   OH239154   1.641   1.115  11.269 -0.1753  0.4592 -0.0771
 5888TIP3    H139155   1.722   1.138  11.315 -0.0865  0.2485 -0.1293
 5888TIP3    H239156   1.654   1.150  11.181 -0.8768  2.0446  0.3982
 5889TIP3   OH239157   3.649   1.201  11.911  0.3805 -0.6467 -0.2270
 5889TIP3    H139158   3.729   1.251  11.927 -0.6470  1.0235  0.0477
 5889TIP3    H239159   3.626   1.222  11.820  0.2576 -1.1191 -0.3060
 5890TIP3   OH239160   5.529   0.041  15.312 -0.0379 -0.3545 -0.3470
 5890TIP3    H139161   5.518   0.112  15.247 -0.6459  0.5300  0.6839
 5890TIP3    H239162   5.529  -0.039  15.260  0.9744  0.4094 -1.5857
 5891TIP3   OH239163   0.475   1.011   4.804  0.1105 -0.7950 -0.0270
 5891TIP3    H139164   0.488   0.937   4.863  1.9805  0.7087  1.5529
 5891TIP3    H239165   0.562   1.047   4.790 -0.7052  0.9746 -0.9339
 5892TIP3   OH239166   3.232   6.810  12.414 -0.9734  0.0387 -0.7368
 5892TIP3    H139167   3.239   6.763  12.331 -2.0974 -1.1532 -0.1872
 5892TIP3    H239168   3.228   6.903  12.389  1.6885 -0.0473 -1.8231
 5893TIP3   OH239169   1.200   3.486  14.602  0.5056  0.0911 -0.7225
 5893TIP3    H139170   1.277   3.541  14.586 -1.1746  2.4746 -1.1042
 5893TIP3    H239171   1.214   3.451  14.690  2.2954 -0.0344 -1.0147
 5894TIP3   OH239172   5.709   0.847   0.841 -0.6952 -0.1511  0.2633
 5894TIP3    H139173   5.684   0.783   0.907 -2.3825  1.0610  0.8758
 5894TIP3    H239174   5.791   0.884   0.873 -0.5574 -0.8315  0.7297
 5895TIP3   OH239175   4.149   1.790  12.390 -0.4790  0.7130 -0.1947
 5895TIP3    H139176   4.057   1.804  12.411 -0.8658  0.8745 -1.8626
 5895TIP3    H239177   4.147   1.734  12.312  0.8349  0.5984 -0.1606
 5896TIP3   OH239178   2.821   0.437  11.860 -0.2363 -0.5709  0.9299
 5896TIP3    H139179   2.809   0.392  11.776 -0.3862 -0.8349  1.0913
 5896TIP3    H239180   2.899   0.395  11.898 -0.6053 -0.9613  1.2560
 5897TIP3   OH239181   4.375   1.842   1.247  0.0353 -0.1336 -0.0632
 5897TIP3    H139182   4.376   1.751   1.216 -1.5660 -0.7993  1.6535
 5897TIP3    H239183   4.285   1.871   1.232  0.4689  1.1019 -0.3489
 5898TIP3   OH239184   3.593   2.575  16.989 -0.3229  0.0275 -1.1588
 5898TIP3    H139185   3.535   2.638  16.946 -0.0925  0.3315 -1.0296
 5898TIP3    H239186   3.657   2.629  17.035 -0.7557 -0.2853 -0.1692
 5899TIP3   OH239187   1.114   1.310  15.021 -0.3150  0.1660  0.1929
 5899TIP3    H139188   1.135   1.226  15.060 -1.0796  0.7461  1.9395
 5899TIP3    H239189   1.076   1.287  14.936  0.8013 -1.1628  0.0157
 5900TIP3   OH239190   5.213   4.851  15.944  0.4927  0.0842 -0.6324
 5900TIP3    H139191   5.158   4.782  15.906  0.9642 -1.1959  0.9012
 5900TIP3    H239192   5.153   4.906  15.994  0.5333 -1.4101  1.1834
 5901TIP3   OH239193   1.321   0.785  11.355  0.3758 -0.1720  0.1512
 5901TIP3    H139194   1.247   0.789  11.295  0.1465  0.2408  0.4543
 5901TIP3    H239195   1.330   0.692  11.376 -0.7493 -0.1206  0.9608
 5902TIP3   OH239196   2.320   2.217  14.579  0.6322 -0.4329  0.6885
 5902TIP3    H139197   2.315   2.211  14.484 -0.4491 -0.3336  0.7261
 5902TIP3    H239198   2.406   2.183  14.601  0.2831 -1.9533 -0.2039
 5903TIP3   OH239199   5.382   0.847   4.944 -0.5785  0.1901  0.1305
 5903TIP3    H139200   5.454   0.837   4.881 -0.2089  0.3070  0.5345
 5903TIP3    H239201   5.406   0.791   5.017  0.8365  2.8165  1.8196
 5904TIP3   OH239202   2.442   3.718   4.484  0.4485 -0.5035 -0.6504
 5904TIP3    H139203   2.515   3.677   4.438  1.0970  1.5223 -1.5120
 5904TIP3    H239204   2.364   3.679   4.444  1.0001  0.6490 -2.9978
 5905TIP3   OH239205   2.284   1.913   0.279  0.5805  0.2545 -0.2193
 5905TIP3    H139206   2.350   1.965   0.232  0.1068  0.4249 -0.7122
 5905TIP3    H239207   2.229   1.978   0.323  0.1359  0.1658 -0.6345
 5906TIP3   OH239208   5.503   3.977  11.961 -0.5693 -0.0399  0.3488
 5906TIP3    H139209   5.592   3.943  11.967 -0.0029  1.2066 -0.5330
 5906TIP3    H239210   5.448   3.900  11.950  0.6449 -0.7145 -1.4484
 5907TIP3   OH239211   1.177   1.122  12.549 -0.1030 -0.4782  0.2376
 5907TIP3    H139212   1.144   1.205  12.584 -0.4231 -0.5826  0.1940
 5907TIP3    H239213   1.111   1.097  12.483 -0.4116 -1.1472  0.7892
 5908TIP3   OH239214   2.636   4.613   4.347 -0.5474  0.0049  0.6424
 5908TIP3    H139215   2.658   4.540   4.288  0.8454  0.1895  0.9027
 5908TIP3    H239216   2.683   4.594   4.428 -0.3522  1.0781  0.7930
 5909TIP3   OH239217   4.699   1.577   3.936  0.6717 -0.2115 -0.2755
 5909TIP3    H139218   4.684   1.638   4.009  4.2010 -0.9233  1.2248
 5909TIP3    H239219   4.711   1.634   3.860  0.4940  0.7516  0.3947
 5910TIP3   OH239220   2.272   0.982  15.069 -0.1100 -0.4403  0.6596
 5910TIP3    H139221   2.326   0.908  15.043 -0.3190 -0.5244  0.4691
 5910TIP3    H239222   2.305   1.056  15.018  0.2610 -0.3476  1.0318
 5911TIP3   OH239223   6.014   2.818  13.057  0.0420 -0.2290  0.3418
 5911TIP3    H139224   5.963   2.742  13.030 -0.4496  0.0032  0.5829
 5911TIP3    H239225   6.029   2.867  12.976 -2.3016  0.9949  0.5437
 5912TIP3   OH239226   3.424   1.547   2.594  0.0610 -0.2677 -0.3743
 5912TIP3    H139227   3.340   1.520   2.556 -0.2321  0.9577 -0.6379
 5912TIP3    H239228   3.399   1.600   2.669  0.5314  1.8605 -1.6524
 5913TIP3   OH239229   3.126   0.037   4.727 -0.1980 -0.3849  0.3323
 5913TIP3    H139230   3.070   0.005   4.797 -1.0026 -0.0742 -0.1513
 5913TIP3    H239231   3.206  -0.015   4.734 -0.1047 -0.0735  1.7245
 5914TIP3   OH239232   0.519   4.603   5.647  0.2455 -0.0052 -0.0390
 5914TIP3    H139233   0.510   4.524   5.594 -0.1160 -0.1787  0.2700
 5914TIP3    H239234   0.568   4.575   5.724  0.5516  0.1864 -0.1645
 5915TIP3   OH239235   1.425   1.722   1.564  0.2112 -0.1822 -0.5594
 5915TIP3    H139236   1.505   1.724   1.511  0.2129 -2.3364 -0.7162
 5915TIP3    H239237   1.356   1.699   1.501 -0.0101 -1.4062  0.1148
 5916TIP3   OH239238   1.596   6.078  11.367  0.9303 -0.0744  0.1744
 5916TIP3    H139239   1.510   6.040  11.348  1.3772 -1.2420  0.4257
 5916TIP3    H239240   1.614   6.135  11.292 -1.4802  2.8255  1.5659
 5917TIP3   OH239241   0.878   4.503  10.969  0.5196  0.4205 -0.6947
 5917TIP3    H139242   0.971   4.527  10.979  0.3969  0.7266 -0.2808
 5917TIP3    H239243   0.833   4.586  10.957 -0.0800  0.5666  2.0188
 5918TIP3   OH239244   6.542   0.130  11.347 -0.0052 -0.0297  0.1317
 5918TIP3    H139245   6.469   0.179  11.384  0.2841  1.2757 -0.9823
 5918TIP3    H239246   6.531   0.138  11.253 -0.9829 -3.6711 -0.2225
 5919TIP3   OH239247   1.590   6.593  12.900 -0.2863 -0.2005  0.1309
 5919TIP3    H139248   1.515   6.653  12.892 -0.8512 -0.7878  0.7847
 5919TIP3    H239249   1.606   6.589  12.995 -0.4482 -1.2937  0.1267
 5920TIP3   OH239250   4.205   1.927   1.700 -0.1968 -0.2101 -0.7162
 5920TIP3    H139251   4.198   1.886   1.614 -0.1126 -0.9414 -0.3824
 5920TIP3    H239252   4.121   1.972   1.711 -0.6547 -1.0463 -0.7174
 5921TIP3   OH239253   1.950   3.013   1.789  0.5854  0.6264 -0.9685
 5921TIP3    H139254   1.906   3.082   1.838 -1.6486 -1.6024  0.4206
 5921TIP3    H239255   2.044   3.029   1.804  0.1009  2.5381  0.3946
 5922TIP3   OH239256   6.479   1.450  13.414  0.6061 -0.5727 -0.2491
 5922TIP3    H139257   6.513   1.454  13.325 -1.0662 -0.1853 -0.9067
 5922TIP3    H239258   6.421   1.526  13.421 -0.4191 -1.4007  0.6805
 5923TIP3   OH239259   5.701   5.196  13.341  0.2399 -0.0901 -0.1608
 5923TIP3    H139260   5.654   5.243  13.410  0.5375 -0.9962  0.6920
 5923TIP3    H239261   5.783   5.244  13.330  0.4287 -0.2391  0.5221
 5924TIP3   OH239262   0.345   5.443  12.659 -0.5070 -0.1883 -0.1890
 5924TIP3    H139263   0.289   5.493  12.717 -2.6266 -0.3441 -1.9730
 5924TIP3    H239264   0.291   5.370  12.629  1.8331 -2.4806  0.7402
 5925TIP3   OH239265   5.307   2.683  15.841 -0.2128 -0.5280 -0.1869
 5925TIP3    H139266   5.387   2.703  15.793 -1.0269  1.3073 -0.8895
 5925TIP3    H239267   5.285   2.594  15.815  0.3748 -0.2383 -1.7977
 5926TIP3   OH239268   0.439   4.500   1.248  1.4770 -0.4321  0.3294
 5926TIP3    H139269   0.524   4.459   1.233  2.0734  0.1259  1.9604
 5926TIP3    H239270   0.459   4.577   1.303  0.2873  1.4605 -1.7133
 5927TIP3   OH239271   6.562   6.151  13.378  0.1869  0.4299  0.3686
 5927TIP3    H139272   6.497   6.087  13.347  0.4192 -0.0194  0.7895
 5927TIP3    H239273   6.587   6.119  13.465 -2.3499  3.0535  2.2449
 5928TIP3   OH239274   5.641   1.830  16.975  0.4294 -0.0676 -0.0952
 5928TIP3    H139275   5.577   1.789  17.034  0.8508 -0.5088  0.0567
 5928TIP3    H239276   5.590   1.852  16.897  0.3336 -1.5041 -0.4625
 5929TIP3   OH239277   6.007   0.871  16.796  0.4418  0.2931  0.7459
 5929TIP3    H139278   6.096   0.837  16.805 -0.0459 -1.5127 -0.5677
 5929TIP3    H239279   6.011   0.959  16.832  3.8562  2.1288 -3.3409
 5930TIP3   OH239280   5.526   4.426   1.316  0.0266 -0.4465 -0.1503
 5930TIP3    H139281   5.516   4.331   1.308  0.0861 -0.4364 -0.3409
 5930TIP3    H239282   5.535   4.457   1.226 -1.0467 -0.1443 -0.1633
 5931TIP3   OH239283   0.202   5.575  13.485  0.3295 -0.0766  0.2973
 5931TIP3    H139284   0.268   5.633  13.447  0.0682  0.3591  0.4986
 5931TIP3    H239285   0.171   5.522  13.412  0.0451  0.5485 -0.0493
 5932TIP3   OH239286   2.794   5.899  13.194  0.2178 -0.2047 -0.5713
 5932TIP3    H139287   2.836   5.942  13.268 -0.8574 -0.5477  0.2698
 5932TIP3    H239288   2.839   5.933  13.117  0.7474  0.8600  0.1864
 5933TIP3   OH239289   2.415   2.790  14.112  0.2640  0.0597  0.5583
 5933TIP3    H139290   2.402   2.839  14.193 -0.2295  0.1358  0.4387
 5933TIP3    H239291   2.328   2.786  14.073  0.1924 -1.3352  0.8059
 5934TIP3   OH239292   4.092   1.753  12.671  0.5228 -0.4027  0.5344
 5934TIP3    H139293   4.120   1.744  12.580 -2.7009 -1.5353 -0.4760
 5934TIP3    H239294   4.153   1.698  12.720  0.9716 -1.6165 -1.2642
 5935TIP3   OH239295   1.820   6.679  16.944  0.0194  0.1436  0.1449
 5935TIP3    H139296   1.813   6.602  16.888  1.7132 -0.3930  0.6317
 5935TIP3    H239297   1.849   6.749  16.886 -0.6669  0.2182 -0.1197
 5936TIP3   OH239298   5.814   3.495  11.501 -0.5278 -0.0651 -0.6456
 5936TIP3    H139299   5.894   3.447  11.482  0.6344  0.8181  1.5559
 5936TIP3    H239300   5.807   3.560  11.431  1.8514  1.1334  0.1230
 5937TIP3   OH239301   6.665   5.541   0.027  0.3056 -0.4834  0.0961
 5937TIP3    H139302   6.748   5.522   0.072  0.8896  0.7084 -0.4361
 5937TIP3    H239303   6.600   5.492   0.076  1.3977 -1.9267  0.1806
 5938TIP3   OH239304   2.127   3.376   2.954  0.1940 -0.5547  0.0495
 5938TIP3    H139305   2.143   3.291   2.913 -1.6244 -0.8726 -0.1037
 5938TIP3    H239306   2.074   3.356   3.031  1.0873  0.3178  0.9146
 5939TIP3   OH239307   2.921   6.181  11.528  0.2118  0.5783 -0.3242
 5939TIP3    H139308   2.916   6.217  11.439  2.3638  0.7167 -0.4355
 5939TIP3    H239309   2.996   6.122  11.526  0.3962  0.6986  1.4421
 5940TIP3   OH239310   5.497   1.123  16.880 -0.1518  0.2553 -0.4719
 5940TIP3    H139311   5.572   1.168  16.843 -0.9556  1.2446 -0.9401
 5940TIP3    H239312   5.491   1.041  16.831  0.3298  0.3851 -0.7488
 5941TIP3   OH239313   5.945   2.019   2.512 -0.2562 -0.4194 -0.6464
 5941TIP3    H139314   5.855   2.052   2.511 -0.1598 -0.1215 -0.0061
 5941TIP3    H239315   5.971   2.023   2.604  1.1580  1.5281 -1.0695
 5942TIP3   OH239316   4.834   4.764  15.139 -0.0804  0.0879 -0.4618
 5942TIP3    H139317   4.928   4.779  15.145 -0.3370  1.8101 -0.2600
 5942TIP3    H239318   4.825   4.669  15.128  1.6112 -0.2565  0.7885
 5943TIP3   OH239319   2.353   1.420   0.872 -0.0296 -0.2673  0.4847
 5943TIP3    H139320   2.405   1.501   0.868  0.1991 -0.3309  1.7888
 5943TIP3    H239321   2.413   1.352   0.840 -0.5868  0.2027 -1.7310
 5944TIP3   OH239322   5.059   5.347   4.314 -0.1903  0.0366  0.3306
 5944TIP3    H139323   5.098   5.416   4.260 -0.0166  0.0715  0.4980
 5944TIP3    H239324   5.064   5.269   4.259 -0.3087  0.1395  0.1738
 5945TIP3   OH239325   0.374   1.837   2.374 -1.4074 -0.2438 -0.1525
 5945TIP3    H139326   0.453   1.875   2.411 -1.2024 -2.0207  1.4250
 5945TIP3    H239327   0.326   1.911   2.337  0.7938  0.9197 -0.8351
 5946TIP3   OH239328   1.972   1.064  17.076  0.3091  0.3338  0.2503
 5946TIP3    H139329   2.007   1.082  17.163 -0.3937 -0.2172  0.6593
 5946TIP3    H239330   1.970   1.149  17.033  0.3629  0.6633  0.8862
 5947TIP3   OH239331   4.993   4.619  14.107  0.2899  0.1523 -0.5473
 5947TIP3    H139332   4.987   4.640  14.014 -4.6281 -0.4293 -0.6486
 5947TIP3    H239333   4.998   4.704  14.151  2.1837  0.4444 -1.2777
 5948TIP3   OH239334   6.530   2.672  13.111 -0.3874  0.1653 -0.2651
 5948TIP3    H139335   6.491   2.755  13.081 -0.9037 -0.1395 -0.4447
 5948TIP3    H239336   6.468   2.605  13.083  0.4304 -0.3640 -0.8618
 5949TIP3   OH239337   2.889   4.382   2.772 -0.8410 -0.1843 -0.5826
 5949TIP3    H139338   2.916   4.328   2.846  0.1269 -0.8363 -1.3937
 5949TIP3    H239339   2.804   4.416   2.798 -0.2442  0.1448  1.1229
 5950TIP3   OH239340   0.320   2.130   0.549  0.5591  0.3510 -0.9015
 5950TIP3    H139341   0.375   2.116   0.472  1.5384 -2.0951  0.1541
 5950TIP3    H239342   0.356   2.073   0.616 -2.4103 -0.3459  0.2963
 5951TIP3   OH239343   6.265   3.851   4.834 -0.4691 -0.2768  0.2991
 5951TIP3    H139344   6.234   3.931   4.792 -0.4598 -0.1143  0.6045
 5951TIP3    H239345   6.190   3.818   4.883 -0.2312 -0.0090  0.8482
 5952TIP3   OH239346   5.835   5.364   0.958 -0.2818 -0.4576  0.2475
 5952TIP3    H139347   5.854   5.456   0.941  0.2645 -0.2363  1.8683
 5952TIP3    H239348   5.896   5.339   1.028  0.1147 -2.2764 -0.6872
 5953TIP3   OH239349   2.035   4.722   5.681  0.2805 -0.0834  0.0693
 5953TIP3    H139350   1.968   4.756   5.622  0.7729  1.1389  0.1742
 5953TIP3    H239351   2.026   4.776   5.760  1.5969  0.3515 -0.0467
 5954TIP3   OH239352   4.196   4.873   0.225 -0.0773 -0.8476  0.1737
 5954TIP3    H139353   4.109   4.878   0.264 -0.9597  1.7766 -1.8454
 5954TIP3    H239354   4.252   4.927   0.281 -0.9837  1.6065 -1.1420
 5955TIP3   OH239355   2.418   6.245  16.056  0.6130  0.1956  0.2920
 5955TIP3    H139356   2.329   6.245  16.022  0.6043 -0.2254  0.3120
 5955TIP3    H239357   2.470   6.289  15.988  0.4060  0.3777  0.2486
 5956TIP3   OH239358   1.714   2.346   3.673  0.2448 -0.2591 -0.2958
 5956TIP3    H139359   1.667   2.309   3.747 -0.9852  1.6594 -0.0438
 5956TIP3    H239360   1.707   2.281   3.604 -3.3421  0.1319 -0.4618
 5957TIP3   OH239361   0.058   1.304  12.924 -0.4192  0.3314  0.2991
 5957TIP3    H139362   0.077   1.303  13.017  0.1606  1.1823  0.2046
 5957TIP3    H239363   0.019   1.391  12.909  0.4031  0.5986 -0.4092
 5958TIP3   OH239364   1.921   0.575  16.270  0.1150 -0.4036  0.0924
 5958TIP3    H139365   2.009   0.612  16.278  0.6690 -1.8227  0.7928
 5958TIP3    H239366   1.921   0.498  16.326 -1.8196 -0.0423  0.6791
 5959TIP3   OH239367   5.017   4.577   2.221  0.3818 -0.3570 -0.9993
 5959TIP3    H139368   5.082   4.521   2.178 -0.6394 -0.8221 -1.9810
 5959TIP3    H239369   5.031   4.664   2.183  0.5069 -0.4277 -1.1154
 5960TIP3   OH239370   4.116   0.879  12.096 -0.3818  0.1415  0.6801
 5960TIP3    H139371   4.032   0.925  12.091  0.3305  1.5873  1.4091
 5960TIP3    H239372   4.097   0.792  12.061 -1.9797  0.7035  0.0189
 5961TIP3   OH239373   3.373   1.189   1.070  0.4725 -0.2675  0.2224
 5961TIP3    H139374   3.314   1.148   1.133 -0.2143 -0.9384 -0.8153
 5961TIP3    H239375   3.347   1.281   1.070 -0.6807 -0.5698 -0.2920
 5962TIP3   OH239376   3.463   4.809  16.947  0.4424  0.0752 -0.0055
 5962TIP3    H139377   3.533   4.859  16.905  1.4665 -0.9550  0.4512
 5962TIP3    H239378   3.415   4.770  16.874  0.6785  0.3265 -0.3009
 5963TIP3   OH239379   2.531   4.692  13.728 -0.5106  0.0049 -0.4289
 5963TIP3    H139380   2.541   4.700  13.634  0.6595 -0.9376 -0.3997
 5963TIP3    H239381   2.501   4.602  13.742 -0.7232  0.1521  0.0946
 5964TIP3   OH239382   0.093   2.577   1.141 -0.3480  0.1661  0.9235
 5964TIP3    H139383   0.091   2.672   1.152  0.8647  0.4914 -1.1413
 5964TIP3    H239384   0.145   2.545   1.215 -0.5507  1.1135  1.4906
 5965TIP3   OH239385   4.064   3.648  10.947 -0.7370 -0.2055 -0.1503
 5965TIP3    H139386   4.091   3.616  10.861  1.3476 -1.7039  0.9700
 5965TIP3    H239387   4.026   3.735  10.930  1.4992  0.4434 -2.3456
 5966TIP3   OH239388   3.923   5.310   2.694 -0.0868  0.6032 -0.1453
 5966TIP3    H139389   4.003   5.264   2.671 -2.1156 -3.7573  0.5876
 5966TIP3    H239390   3.857   5.275   2.636 -2.2057  1.1762  1.7784
 5967TIP3   OH239391   6.508   5.302  14.957  0.7830  0.5561  0.0639
 5967TIP3    H139392   6.523   5.248  14.879  2.4353  3.1494 -1.5796
 5967TIP3    H239393   6.578   5.278  15.018 -1.1254 -2.2429  1.3497
 5968TIP3   OH239394   1.798   0.698   5.318 -0.5082 -0.2360 -0.5021
 5968TIP3    H139395   1.737   0.758   5.361 -0.9505  0.5537 -2.1631
 5968TIP3    H239396   1.745   0.622   5.295 -0.5935 -0.0673 -0.8687
 5969TIP3   OH239397   3.796   0.767  16.472 -0.3160 -0.5795 -0.2789
 5969TIP3    H139398   3.747   0.692  16.504  0.9333 -1.7227 -0.9406
 5969TIP3    H239399   3.767   0.778  16.381  1.0092 -1.6595 -0.8836
 5970TIP3   OH239400   1.762   3.099   4.405  0.7621 -0.3148  0.9226
 5970TIP3    H139401   1.725   3.068   4.487 -1.4477  0.6580  0.3859
 5970TIP3    H239402   1.837   3.152   4.430  0.2053 -0.1506  2.2922
 5971TIP3   OH239403   6.410   0.379   5.295  0.0809 -0.1940  0.0607
 5971TIP3    H139404   6.342   0.315   5.276  1.4257 -1.6921  0.0865
 5971TIP3    H239405   6.465   0.379   5.217  0.7327  0.0955  0.5129
 5972TIP3   OH239406   4.480   6.732  11.948 -0.4332 -0.4910  0.0674
 5972TIP3    H139407   4.539   6.778  11.888 -0.3856  1.4091  1.4529
 5972TIP3    H239408   4.534   6.663  11.987  0.2473 -0.1688 -0.2899
 5973TIP3   OH239409   0.421   3.746  11.797  0.4994  0.7642 -0.3451
 5973TIP3    H139410   0.422   3.672  11.858 -0.8801  1.3828  0.4845
 5973TIP3    H239411   0.511   3.777  11.795  0.6196  0.5971  1.2475
 5974TIP3   OH239412   2.376   4.400  16.728  0.7649 -0.2055 -0.1019
 5974TIP3    H139413   2.378   4.409  16.633  0.4283 -0.6538 -0.1554
 5974TIP3    H239414   2.431   4.472  16.760  1.0483 -0.1739 -0.6407
 5975TIP3   OH239415   4.001   6.169   0.858  0.0882  1.0494  0.2505
 5975TIP3    H139416   4.050   6.189   0.938  0.0823 -0.3531  0.6343
 5975TIP3    H239417   4.069   6.156   0.792  0.5027 -2.8441  1.2140
 5976TIP3   OH239418   2.496   0.698   2.250 -0.2636  0.0051 -0.0906
 5976TIP3    H139419   2.500   0.656   2.336  0.5488 -0.8737 -0.5309
 5976TIP3    H239420   2.510   0.627   2.188 -2.2696  0.3798 -1.0479
 5977TIP3   OH239421   4.576   4.239   0.028  0.2809  0.2213 -0.0290
 5977TIP3    H139422   4.558   4.151  -0.006 -0.8622  0.3159  0.2822
 5977TIP3    H239423   4.582   4.295  -0.049  0.5141 -0.0396 -0.2013
 5978TIP3   OH239424   3.437   3.165  16.961  0.3599  0.7992 -0.0511
 5978TIP3    H139425   3.498   3.216  17.014  1.8011 -0.1118 -0.7690
 5978TIP3    H239426   3.431   3.213  16.878  1.2828  0.1245 -0.5230
 5979TIP3   OH239427   0.210   1.908   2.116 -0.3950  0.0571 -0.0484
 5979TIP3    H139428   0.226   1.845   2.045  0.2110  0.1586 -0.0034
 5979TIP3    H239429   0.119   1.892   2.141 -0.7143  0.2341 -1.0641
 5980TIP3   OH239430   0.950   4.418   3.294 -0.0594  0.5991  0.0746
 5980TIP3    H139431   1.039   4.443   3.319  0.2979  0.6741 -1.1639
 5980TIP3    H239432   0.900   4.499   3.299  0.0525  0.6501  0.3565
 5981TIP3   OH239433   0.540   3.783   5.553 -0.0608  0.5045 -0.0504
 5981TIP3    H139434   0.536   3.694   5.519 -1.7926  0.8758 -0.9209
 5981TIP3    H239435   0.523   3.773   5.647  0.5824 -0.1307  0.0140
 5982TIP3   OH239436   3.252   2.600  15.163 -0.5000 -0.0083  0.2024
 5982TIP3    H139437   3.347   2.591  15.153 -0.6750 -2.8531  0.3028
 5982TIP3    H239438   3.232   2.684  15.121  2.0437  0.7181  0.2634
 5983TIP3   OH239439   5.357   1.999  11.761 -0.4912 -0.1080 -0.1863
 5983TIP3    H139440   5.358   2.041  11.847  0.2039  0.2018 -0.3394
 5983TIP3    H239441   5.286   2.043  11.714 -2.2554 -1.6352  0.8591
 5984TIP3   OH239442   0.397   2.368   0.292  0.2516 -0.2607  0.5577
 5984TIP3    H139443   0.490   2.357   0.313  0.0149 -0.9885  1.2720
 5984TIP3    H239444   0.364   2.428   0.358  0.2862  0.3178  0.0645
 5985TIP3   OH239445   1.665   5.729  16.703  0.9484  0.0518  0.2944
 5985TIP3    H139446   1.607   5.680  16.645  1.7224  0.8556 -1.2155
 5985TIP3    H239447   1.611   5.802  16.734  1.0835  0.7683 -1.0590
 5986TIP3   OH239448   0.219   3.466   4.525 -0.0794 -0.0512 -0.6463
 5986TIP3    H139449   0.241   3.455   4.432  0.1170  2.4380 -0.9575
 5986TIP3    H239450   0.170   3.548   4.529 -1.0693 -0.6715  1.3382
 5987TIP3   OH239451   6.150   2.675   3.110 -0.8777 -0.0157 -0.2287
 5987TIP3    H139452   6.119   2.740   3.046 -1.2987 -0.9607 -1.0167
 5987TIP3    H239453   6.245   2.674   3.099 -0.9329 -0.0479 -0.7347
 5988TIP3   OH239454   4.426   2.129  11.307  0.5354 -0.1251  0.2078
 5988TIP3    H139455   4.490   2.074  11.352  1.2989  0.7669  0.2537
 5988TIP3    H239456   4.444   2.117  11.214 -0.4318 -1.2530  0.1436
 5989TIP3   OH239457   5.658   4.834  15.223 -0.1595  0.7434  0.5702
 5989TIP3    H139458   5.665   4.899  15.153 -1.9277  2.0186  1.5055
 5989TIP3    H239459   5.736   4.779  15.212 -0.5106  0.6972 -2.5473
 5990TIP3   OH239460   5.639   2.045   3.148  0.5651 -0.0835 -0.4971
 5990TIP3    H139461   5.701   2.068   3.217  0.9895 -1.2621 -0.4680
 5990TIP3    H239462   5.677   2.079   3.068  1.3112 -0.8878 -0.4933
 5991TIP3   OH239463   0.163   1.149  14.539  0.2320 -0.2181 -0.5101
 5991TIP3    H139464   0.072   1.177  14.531  0.5386  0.8282 -0.4480
 5991TIP3    H239465   0.177   1.092  14.464 -0.2805  0.1446 -0.8894
 5992TIP3   OH239466   3.274   2.359  16.574 -0.4577 -0.2363 -0.2799
 5992TIP3    H139467   3.199   2.348  16.515  0.2652 -0.0100 -1.2691
 5992TIP3    H239468   3.268   2.449  16.604 -1.5493 -0.7213  1.0274
 5993TIP3   OH239469   6.764   4.365  13.858  0.3528  0.1362  0.6776
 5993TIP3    H139470   6.820   4.378  13.935  1.2873  0.5261 -0.0531
 5993TIP3    H239471   6.819   4.389  13.784 -0.6233  0.0159 -0.1038
 5994TIP3   OH239472   0.306   2.580  14.997  0.3235  0.0911 -0.1612
 5994TIP3    H139473   0.364   2.549  15.066 -0.9273 -2.1191  0.0149
 5994TIP3    H239474   0.355   2.649  14.953  2.2216 -0.2703  1.2556
 5995TIP3   OH239475   2.850   0.369   2.003  0.5711 -0.4811 -0.1877
 5995TIP3    H139476   2.804   0.432   2.058  0.8684 -0.3650 -0.0687
 5995TIP3    H239477   2.853   0.289   2.055  2.4456  0.1341  0.7501
 5996TIP3   OH239478   3.161   4.522   1.573 -0.3502  0.1597  0.2872
 5996TIP3    H139479   3.139   4.478   1.491 -1.7095 -1.6642  1.5718
 5996TIP3    H239480   3.085   4.576   1.593 -0.0766  0.4940  0.4481
 5997TIP3   OH239481   2.782   3.796   1.562 -0.6357  0.6842  0.5652
 5997TIP3    H139482   2.758   3.710   1.597 -1.9184  1.2083  1.0503
 5997TIP3    H239483   2.797   3.850   1.640  0.5316  0.8208  0.2643
 5998TIP3   OH239484   0.992   3.333   0.807 -0.7389 -0.3077 -0.1718
 5998TIP3    H139485   1.072   3.381   0.786  0.0842 -1.8329 -0.6435
 5998TIP3    H239486   0.922   3.398   0.795  0.3918  1.0550  0.2457
 5999TIP3   OH239487   6.238   0.186   5.229 -0.1956  0.2169 -0.0171
 5999TIP3    H139488   6.266   0.147   5.146  0.3475  0.1312  0.2057
 5999TIP3    H239489   6.231   0.112   5.289 -0.1320  0.3384  0.1400
 6000TIP3   OH239490   2.517   6.658  11.436 -0.2305 -0.0083 -0.1612
 6000TIP3    H139491   2.606   6.695  11.434  0.1306 -0.8107  0.4464
 6000TIP3    H239492   2.485   6.679  11.524 -0.0930 -0.9365  0.1229
 6001TIP3   OH239493   6.640   2.296  13.428  0.2590  0.4774  0.0716
 6001TIP3    H139494   6.548   2.283  13.406 -0.6854  1.8314  2.6767
 6001TIP3    H239495   6.649   2.256  13.515  1.7360  1.5836  0.4624
 6002TIP3   OH239496   1.541   6.739   1.196 -0.1245  0.3249  0.1437
 6002TIP3    H139497   1.521   6.770   1.284  0.3474  0.4842  0.1980
 6002TIP3    H239498   1.635   6.719   1.198  0.1649  1.5085 -0.6719
 6003TIP3   OH239499   5.799   0.087  10.935 -0.8043  0.0887  0.2319
 6003TIP3    H139500   5.807  -0.006  10.913  0.0125  0.2933 -0.3708
 6003TIP3    H239501   5.729   0.090  11.001 -1.8912 -0.7740 -0.8489
 6004TIP3   OH239502   3.766   1.436  11.808 -0.2543 -0.1157  0.4904
 6004TIP3    H139503   3.834   1.427  11.741  0.6632  1.3814  1.1647
 6004TIP3    H239504   3.734   1.525  11.798  0.0963  0.2281  2.2093
 6005TIP3   OH239505   3.567   0.589   3.031  0.2392 -0.1365  0.7484
 6005TIP3    H139506   3.496   0.531   3.060 -0.0262 -0.2041 -0.0156
 6005TIP3    H239507   3.613   0.538   2.964  0.3409  0.3265  0.4644
 6006TIP3   OH239508   6.341   1.517   0.962 -0.5486  0.4188 -0.1060
 6006TIP3    H139509   6.368   1.464   0.887  0.4836 -1.4694  1.5333
 6006TIP3    H239510   6.414   1.577   0.977  0.0196 -0.4104  0.4664
 6007TIP3   OH239511   5.206   5.888  15.288 -0.1134  0.1692  0.7021
 6007TIP3    H139512   5.125   5.871  15.239  0.1432 -0.4749  0.4786
 6007TIP3    H239513   5.268   5.825  15.251 -0.7435 -2.6502  3.9684
 6008TIP3   OH239514   0.806   6.573  13.535  0.4232  0.4836  0.0055
 6008TIP3    H139515   0.820   6.538  13.447 -3.7367 -1.5863 -0.1160
 6008TIP3    H239516   0.784   6.497  13.588 -1.0782  2.0596  1.8224
 6009TIP3   OH239517   0.881   0.928  16.553  0.5822 -0.0222  0.2040
 6009TIP3    H139518   0.829   0.970  16.621  0.5757  0.6266 -0.1943
 6009TIP3    H239519   0.825   0.928  16.476  0.4692 -1.0468  0.2769
 6010TIP3   OH239520   1.741   1.304  13.457 -0.0734  0.3724 -0.3082
 6010TIP3    H139521   1.714   1.238  13.394  1.3996  1.0152 -1.6694
 6010TIP3    H239522   1.662   1.357  13.471 -0.7263 -0.4737 -0.7019
 6011TIP3   OH239523   0.000   5.059  13.823  0.0833  0.2388 -0.1358
 6011TIP3    H139524  -0.023   5.018  13.740  0.3868  1.3181 -0.7727
 6011TIP3    H239525   0.047   4.991  13.872  0.2317 -0.2906 -1.0013
 6012TIP3   OH239526   4.480   4.666  13.034 -0.2009  0.0563  0.4392
 6012TIP3    H139527   4.541   4.594  13.046 -0.2316 -0.0787 -0.2123
 6012TIP3    H239528   4.529   4.744  13.063  0.6115  0.0801 -0.9068
 6013TIP3   OH239529   5.711   6.599  14.050 -0.1803  0.1896  0.1169
 6013TIP3    H139530   5.695   6.613  14.143  0.4403  1.8913 -0.0048
 6013TIP3    H239531   5.728   6.686  14.015  1.0895 -0.5827 -1.3135
 6014TIP3   OH239532   3.809   1.144  12.242  0.3778  0.2874 -0.2874
 6014TIP3    H139533   3.821   1.127  12.335  2.1975 -0.3026 -0.5988
 6014TIP3    H239534   3.827   1.060  12.199 -0.6361  0.4936 -1.1689
 6015TIP3   OH239535   1.985   0.974   3.297  0.2582 -0.8355  0.8067
 6015TIP3    H139536   2.078   0.969   3.321  0.0081 -1.0270  1.7814
 6015TIP3    H239537   1.950   1.046   3.349  0.4293  1.1708 -1.6424
 6016TIP3   OH239538   2.945   0.540  15.792 -0.2792 -0.1707  0.7929
 6016TIP3    H139539   2.952   0.535  15.697 -0.2169 -2.1945  0.8584
 6016TIP3    H239540   3.031   0.572  15.821 -0.3648  0.6397  0.1856
 6017TIP3   OH239541   2.633   0.774   4.423  0.0752 -0.4177 -0.0509
 6017TIP3    H139542   2.715   0.740   4.385 -0.1143 -0.8644 -0.0682
 6017TIP3    H239543   2.630   0.735   4.510 -0.0139 -0.2246  0.0325
 6018TIP3   OH239544   2.447   2.546   6.196  0.4224 -0.0207  0.3834
 6018TIP3    H139545   2.406   2.569   6.112 -0.4251  2.0063  1.2898
 6018TIP3    H239546   2.413   2.459   6.217 -2.6707  1.1286  0.5692
 6019TIP3   OH239547   1.637   0.465  16.646  0.4699  0.0414 -0.0231
 6019TIP3    H139548   1.700   0.414  16.698  3.0576  2.3615 -0.6282
 6019TIP3    H239549   1.594   0.522  16.709  0.3510 -0.2572  0.1645
 6020TIP3   OH239550   2.482   3.978  16.741 -0.8991  0.4765 -0.5128
 6020TIP3    H139551   2.427   3.916  16.789 -1.8585  1.2887 -0.5385
 6020TIP3    H239552   2.571   3.958  16.769 -1.0608 -1.6238 -1.3251
 6021TIP3   OH239553   0.073   3.337  16.539  0.2271  0.4306  0.0522
 6021TIP3    H139554   0.065   3.392  16.618  0.6872 -0.1426  0.5062
 6021TIP3    H239555   0.124   3.391  16.479  1.2603  0.2565  0.7461
 6022TIP3   OH239556   5.931   6.369   1.628  0.6339  0.0925  0.3121
 6022TIP3    H139557   5.905   6.314   1.554 -2.3480 -0.0284  1.3181
 6022TIP3    H239558   5.897   6.456   1.607  1.9648  0.6750  0.4611
 6023TIP3   OH239559   1.288   4.584  16.874  0.1169 -0.3224  0.0011
 6023TIP3    H139560   1.223   4.575  16.805  0.0563  0.3234 -0.0327
 6023TIP3    H239561   1.238   4.607  16.952  0.0883 -1.9208  0.4862
 6024TIP3   OH239562   1.572   6.072  12.074  0.1326 -0.2749 -0.3999
 6024TIP3    H139563   1.589   6.109  12.161  0.6087 -0.2964 -0.4824
 6024TIP3    H239564   1.624   5.992  12.071  0.2007 -0.2168 -0.7466
 6025TIP3   OH239565   2.295   3.492  14.036  0.3898  0.2892 -0.2878
 6025TIP3    H139566   2.256   3.572  14.003 -1.5955 -0.1061  0.9553
 6025TIP3    H239567   2.388   3.514  14.049 -0.1920  2.5703  0.5369
 6026TIP3   OH239568   0.002   0.697   2.790  0.4037  0.4737 -0.0513
 6026TIP3    H139569  -0.018   0.632   2.722 -0.2492 -0.4266  0.9628
 6026TIP3    H239570  -0.037   0.778   2.758  1.3989  0.4384 -1.4341
 6027TIP3   OH239571   5.222   1.184   5.404 -0.0162 -0.1905 -0.6143
 6027TIP3    H139572   5.254   1.204   5.315 -0.2758  0.0116 -0.6657
 6027TIP3    H239573   5.162   1.256   5.423 -0.3092 -0.4789 -0.4526
 6028TIP3   OH239574   5.074   6.795  15.287 -0.2701 -0.4126 -0.5242
 6028TIP3    H139575   5.045   6.874  15.333 -1.1888 -1.2731  0.4255
 6028TIP3    H239576   5.149   6.824  15.234 -0.6414  1.1048 -0.2720
 6029TIP3   OH239577   6.767   4.154   5.872  0.3681  0.6651  0.1117
 6029TIP3    H139578   6.702   4.083   5.871  0.2826  0.7309 -1.1074
 6029TIP3    H239579   6.851   4.110   5.874  0.3204  0.5005 -0.8918
 6030TIP3   OH239580   6.139   0.279   0.660  0.0454  0.0519  0.2748
 6030TIP3    H139581   6.149   0.294   0.754 -1.0819  1.4689  0.2000
 6030TIP3    H239582   6.092   0.356   0.628  0.6424 -0.2711 -1.5065
 6031TIP3   OH239583   4.743   4.781  14.495  0.3498  0.0908 -0.5300
 6031TIP3    H139584   4.662   4.738  14.523  0.0131  0.2545 -1.2185
 6031TIP3    H239585   4.744   4.864  14.542  0.2157  0.0034 -0.3707
 6032TIP3   OH239586   3.587   4.160   6.671  0.6917  0.6213  0.1812
 6032TIP3    H139587   3.533   4.112   6.607  1.2044 -0.6872  0.6827
 6032TIP3    H239588   3.558   4.250   6.665 -1.8320 -0.0720  0.6647
 6033TIP3   OH239589   6.394   0.265  15.923 -0.0160 -0.5505 -0.7289
 6033TIP3    H139590   6.320   0.231  15.874  0.8886 -3.0221 -0.5280
 6033TIP3    H239591   6.425   0.340  15.872 -0.4401 -1.7086 -2.7743
 6034TIP3   OH239592   4.691   4.653   4.151 -0.2941 -0.0446  0.0778
 6034TIP3    H139593   4.749   4.703   4.208  2.1532 -0.4824 -1.8612
 6034TIP3    H239594   4.618   4.711   4.133  0.9784  1.6982  0.3210
 6035TIP3   OH239595   2.153   6.302  15.957 -0.3216 -0.0056 -0.5264
 6035TIP3    H139596   2.144   6.289  15.863 -1.1218  1.4538 -0.6783
 6035TIP3    H239597   2.139   6.396  15.970 -0.3683 -0.2020  1.0667
 6036TIP3   OH239598   5.788   2.470   3.218 -0.1907  0.1113  0.1461
 6036TIP3    H139599   5.751   2.463   3.130  0.3699 -0.0986 -0.0723
 6036TIP3    H239600   5.851   2.542   3.212  1.0806 -0.9808 -0.0632
 6037TIP3   OH239601   0.875   2.976  11.419  0.1654  0.0905  0.3490
 6037TIP3    H139602   0.783   2.989  11.440  0.0142 -0.4259  0.0144
 6037TIP3    H239603   0.901   2.898  11.467 -0.1129 -0.9503 -1.1162
 6038TIP3   OH239604   0.768   4.970  12.055  0.3356 -0.2595  0.2288
 6038TIP3    H139605   0.673   4.968  12.042  0.5848 -0.8633 -1.7265
 6038TIP3    H239606   0.794   5.057  12.025  0.5587 -0.5908 -0.5521
 6039TIP3   OH239607   3.640   6.201  15.366 -0.0059  0.1743 -0.3659
 6039TIP3    H139608   3.645   6.290  15.402  1.0779 -0.4239  1.0871
 6039TIP3    H239609   3.647   6.144  15.443 -2.8365 -1.2064 -0.9970
 6040TIP3   OH239610   6.425   6.729  11.860  0.3289  0.0400 -0.3456
 6040TIP3    H139611   6.424   6.688  11.946  0.1566  0.9018  0.0696
 6040TIP3    H239612   6.431   6.655  11.799 -2.3043 -0.7634  0.2555
 6041TIP3   OH239613   6.090   0.362   6.549 -0.4940 -0.0597 -0.8463
 6041TIP3    H139614   6.035   0.309   6.606 -0.8985 -2.4697 -3.2681
 6041TIP3    H239615   6.170   0.376   6.600 -1.2625 -1.1038  0.7415
 6042TIP3   OH239616   1.294   6.159   1.956 -0.5519  0.3655 -0.0476
 6042TIP3    H139617   1.235   6.131   2.026 -0.0704  0.0005  0.2150
 6042TIP3    H239618   1.262   6.113   1.878 -1.2772  1.0107 -0.1432
 6043TIP3   OH239619   4.080   4.473   5.022 -0.4565  0.2250  0.4373
 6043TIP3    H139620   4.119   4.433   4.944  0.8637 -1.7195  2.0039
 6043TIP3    H239621   3.988   4.483   4.999  0.0872  0.7440 -1.7566
 6044TIP3   OH239622   2.814   0.953  15.565  0.2145 -0.5362 -0.1300
 6044TIP3    H139623   2.848   0.877  15.518  0.0943 -0.0749 -0.9764
 6044TIP3    H239624   2.890   1.010  15.575  0.9041 -1.7292  2.6031
 6045TIP3   OH239625   1.300   4.912  13.397  0.3681 -0.1777 -0.1055
 6045TIP3    H139626   1.313   4.926  13.491 -0.3222  0.2563 -0.0675
 6045TIP3    H239627   1.389   4.902  13.362  0.8253  1.9657  0.2501
 6046TIP3   OH239628   3.189   2.166  14.039 -0.0699 -0.0451 -0.1213
 6046TIP3    H139629   3.106   2.184  14.083 -0.6437  0.0906 -1.2397
 6046TIP3    H239630   3.200   2.071  14.047 -0.0289  0.0105  0.5410
 6047TIP3   OH239631   2.166   3.598  12.991  0.0775 -0.3689 -0.0593
 6047TIP3    H139632   2.204   3.685  12.999 -1.6579  0.3711  0.6431
 6047TIP3    H239633   2.073   3.613  12.973  0.0331 -2.0836 -1.5627
 6048TIP3   OH239634   5.861   2.403   3.877  0.1673  0.5735 -0.0042
 6048TIP3    H139635   5.934   2.341   3.885 -0.2700  0.1830  1.1218
 6048TIP3    H239636   5.813   2.374   3.800  1.4654  1.1359 -1.0626
 6049TIP3   OH239637   6.568   1.200  11.873  0.1855  0.3450  0.9183
 6049TIP3    H139638   6.519   1.126  11.910  1.6686 -0.6120  1.0320
 6049TIP3    H239639   6.513   1.231  11.802 -0.7211 -0.5210  1.2068
 6050TIP3   OH239640   0.277   0.915   2.063 -0.3406 -0.2049  0.1518
 6050TIP3    H139641   0.271   1.010   2.065 -0.4394 -0.2149  0.3956
 6050TIP3    H239642   0.188   0.886   2.042 -0.8845 -0.3095  2.3535
 6051TIP3   OH239643   3.275   1.192   4.501  0.0564 -0.3178 -0.4543
 6051TIP3    H139644   3.189   1.156   4.479  0.6347 -1.0060 -1.6754
 6051TIP3    H239645   3.306   1.232   4.420  0.4974  0.7634  0.2280
 6052TIP3   OH239646   1.872   3.186   4.149  0.3178 -0.0082  0.3075
 6052TIP3    H139647   1.816   3.138   4.210  0.2124 -0.5069 -0.1769
 6052TIP3    H239648   1.823   3.185   4.067  1.4793 -1.3470 -0.4041
 6053TIP3   OH239649   0.957   5.551  15.343 -0.8284  0.4248  0.0591
 6053TIP3    H139650   0.967   5.469  15.293 -2.0524 -0.4282  1.1285
 6053TIP3    H239651   1.044   5.568  15.379 -0.4463 -0.1317 -0.5582
 6054TIP3   OH239652   1.036   3.053  12.617 -0.6405  0.2203  0.9147
 6054TIP3    H139653   0.989   3.130  12.649  1.8026  2.1944  0.0879
 6054TIP3    H239654   1.040   3.064  12.522  1.0118 -0.0778  0.9068
 6055TIP3   OH239655   5.905   5.377  13.327  0.4963  0.4820 -0.1797
 6055TIP3    H139656   5.985   5.429  13.334  0.9056  0.0090 -1.1837
 6055TIP3    H239657   5.900   5.330  13.410  1.7463 -0.1485 -0.4399
 6056TIP3   OH239658   6.201   1.260   0.845  0.1299  0.0083  0.3936
 6056TIP3    H139659   6.147   1.331   0.808  0.7628 -0.4846 -1.6046
 6056TIP3    H239660   6.206   1.195   0.775  1.9972 -0.6798  1.1128
 6057TIP3   OH239661   4.658   4.607  14.010 -0.5025 -0.1520 -0.2356
 6057TIP3    H139662   4.617   4.639  14.090  1.8712 -0.0833  1.0635
 6057TIP3    H239663   4.626   4.665  13.941 -2.4753 -0.1088  0.6633
 6058TIP3   OH239664   3.960   0.797  16.081  0.4095  0.2849  0.5479
 6058TIP3    H139665   3.951   0.755  15.996  1.0910  0.3812  0.4188
 6058TIP3    H239666   3.873   0.791  16.121  0.0836  0.2636 -0.1587
 6059TIP3   OH239667   6.435   3.311   0.534 -0.3877 -0.5080  0.3716
 6059TIP3    H139668   6.516   3.279   0.493 -0.8781 -1.8088  0.4049
 6059TIP3    H239669   6.368   3.248   0.508 -1.2581  0.1537  0.9581
 6060TIP3   OH239670   5.181   0.570  11.255  0.1145 -0.3188 -0.2352
 6060TIP3    H139671   5.217   0.516  11.185  0.8820  0.7132 -0.6635
 6060TIP3    H239672   5.237   0.648  11.257 -0.5178  0.1360  0.8455
 6061TIP3   OH239673   0.491   6.076  12.616 -0.4979 -0.1900 -0.1449
 6061TIP3    H139674   0.409   6.091  12.663 -0.0115 -2.6910  1.7328
 6061TIP3    H239675   0.526   6.163  12.600 -2.8736  0.8978  0.1793
 6062TIP3   OH239676   5.761   4.084  13.221 -0.3581 -0.4273  0.2439
 6062TIP3    H139677   5.785   4.163  13.269 -0.3499 -1.0918  1.3599
 6062TIP3    H239678   5.845   4.046  13.195 -0.1426 -1.9281  2.8065
 6063TIP3   OH239679   1.182   6.107  15.718 -0.0849 -0.0177 -0.2674
 6063TIP3    H139680   1.193   6.058  15.636  2.0381  1.2898 -0.8584
 6063TIP3    H239681   1.265   6.153  15.729 -0.8618  1.0018  1.8838
 6064TIP3   OH239682   1.257   1.185   5.598  0.0723  0.0430 -0.8375
 6064TIP3    H139683   1.226   1.110   5.647 -2.1874  0.6068 -1.2968
 6064TIP3    H239684   1.321   1.227   5.655 -0.5625 -0.7697  0.4985
 6065TIP3   OH239685   4.220   6.148   1.056 -0.1549 -0.0400 -0.5085
 6065TIP3    H139686   4.250   6.227   1.010  2.0404 -0.2662  0.3936
 6065TIP3    H239687   4.250   6.161   1.146  0.8291 -2.1658 -0.4766
 6066TIP3   OH239688   6.194   6.403   3.264  0.2242 -0.1120 -0.0227
 6066TIP3    H139689   6.215   6.381   3.355 -1.5806 -1.1562  0.1852
 6066TIP3    H239690   6.236   6.488   3.250 -0.8459  0.9056  2.3339
 6067TIP3   OH239691   0.124   4.887  12.578  0.1839  0.1432  0.0708
 6067TIP3    H139692   0.056   4.954  12.568  0.0881 -0.1252 -1.2527
 6067TIP3    H239693   0.176   4.894  12.498  0.3525 -1.1802  0.0448
 6068TIP3   OH239694   0.793   3.952   4.203  0.2957 -0.3296  0.6032
 6068TIP3    H139695   0.766   3.890   4.271  1.7915 -0.2472  1.3009
 6068TIP3    H239696   0.758   4.037   4.232 -2.0459 -0.8233 -0.5219
 6069TIP3   OH239697   5.331   6.610   1.286  0.5265 -0.0131  0.2239
 6069TIP3    H139698   5.415   6.610   1.241 -0.1411  0.7044 -1.0964
 6069TIP3    H239699   5.270   6.573   1.222 -0.2922  0.1650  0.8814
 6070TIP3   OH239700   0.319   4.191  11.536  0.0977 -0.2598 -0.3533
 6070TIP3    H139701   0.375   4.253  11.488  0.8937  1.1256  2.1755
 6070TIP3    H239702   0.373   4.113  11.547 -0.4183 -0.9578 -2.3855
 6071TIP3   OH239703   0.294   5.735   4.925  0.2092  0.1509  0.2712
 6071TIP3    H139704   0.318   5.680   4.999 -0.2925 -0.6041 -0.1128
 6071TIP3    H239705   0.206   5.706   4.901  0.0696  0.8910 -0.1576
 6072TIP3   OH239706   4.560   1.961  11.486  0.4645  1.0267  0.1319
 6072TIP3    H139707   4.595   1.989  11.571  0.6878 -0.9223  0.7263
 6072TIP3    H239708   4.633   1.973  11.425  0.4399  2.0217  0.2762
 6073TIP3   OH239709   1.075   0.306  15.961 -1.1304  0.2333 -0.0761
 6073TIP3    H139710   0.987   0.290  15.928 -1.7607  0.8468  1.2371
 6073TIP3    H239711   1.064   0.319  16.055  0.4856 -0.5481  0.2540
 6074TIP3   OH239712   0.298   0.713  12.459  0.1434  0.5087  0.2688
 6074TIP3    H139713   0.346   0.761  12.527  0.2661 -0.2617  0.7394
 6074TIP3    H239714   0.328   0.623  12.468  0.3509  0.4331 -0.9888
 6075TIP3   OH239715   0.474   4.555  16.963  0.6536 -0.2289  0.0764
 6075TIP3    H139716   0.510   4.608  17.035  0.2152  2.7291 -1.7202
 6075TIP3    H239717   0.387   4.592  16.948  0.0071 -2.0076 -0.8377
 6076TIP3   OH239718   1.323   6.770   0.014  0.2401 -0.4102  0.2430
 6076TIP3    H139719   1.362   6.831  -0.049  0.2725  0.2229  0.8723
 6076TIP3    H239720   1.229   6.777  -0.001  0.1738  0.5888  1.0164
 6077TIP3   OH239721   4.880   0.168   4.147 -0.2549 -0.9639  0.0249
 6077TIP3    H139722   4.839   0.169   4.234  0.3128  1.9090  0.3915
 6077TIP3    H239723   4.974   0.168   4.165 -0.0771  1.7237 -0.3892
 6078TIP3   OH239724   2.531   1.472  13.652 -0.3292  0.1147 -0.4683
 6078TIP3    H139725   2.527   1.377  13.635  0.6370 -0.1354  0.5782
 6078TIP3    H239726   2.507   1.480  13.744  1.5870  0.6676  0.0116
 6079TIP3   OH239727   3.941   5.989  15.548 -0.0087  0.2342 -0.2860
 6079TIP3    H139728   3.846   5.992  15.540  0.0494 -0.9040 -1.8655
 6079TIP3    H239729   3.973   5.981  15.458  1.6222  1.2129  0.1577
 6080TIP3   OH239730   6.579   0.638  16.313  0.1857  0.1183  0.4867
 6080TIP3    H139731   6.636   0.700  16.266  0.7155 -0.1826  0.7277
 6080TIP3    H239732   6.499   0.688  16.330  0.4255  0.5901  0.2632
 6081TIP3   OH239733   2.307   6.064  15.421 -0.0335 -0.0622  0.6134
 6081TIP3    H139734   2.318   5.969  15.420  0.4130 -0.0066 -0.0464
 6081TIP3    H239735   2.213   6.076  15.437 -0.3455 -0.6502 -0.5805
 6082TIP3   OH239736   2.388   3.909   1.839 -0.0803 -0.5246 -0.1402
 6082TIP3    H139737   2.429   3.993   1.862 -1.2473  0.0098  0.0386
 6082TIP3    H239738   2.413   3.896   1.747  0.8809 -0.4578  0.0938
 6083TIP3   OH239739   1.035   2.901   3.657 -0.3522  0.7748 -0.0998
 6083TIP3    H139740   0.996   2.918   3.571  0.1975 -0.3783 -0.6078
 6083TIP3    H239741   0.961   2.899   3.717 -1.1830 -1.5136 -1.0623
 6084TIP3   OH239742   4.037   2.448  12.849  0.0398  0.1774  0.6033
 6084TIP3    H139743   4.113   2.467  12.905  0.8554 -1.5784  0.1484
 6084TIP3    H239744   4.054   2.497  12.769 -0.4124  1.5218  1.2867
 6085TIP3   OH239745   3.765   3.638   2.421 -0.4974 -0.2904  0.7757
 6085TIP3    H139746   3.701   3.709   2.431 -0.0940  0.3760 -0.9986
 6085TIP3    H239747   3.831   3.656   2.488 -1.0786  0.2556  1.2124
 6086TIP3   OH239748   3.887   3.495   0.109 -0.2244 -0.8197  0.5056
 6086TIP3    H139749   3.972   3.462   0.080 -0.2305 -0.3500 -0.0802
 6086TIP3    H239750   3.867   3.446   0.188  0.2047 -1.5312  0.1780
 6087TIP3   OH239751   6.216   6.533   4.516 -0.3782  0.2241  0.0030
 6087TIP3    H139752   6.180   6.526   4.604  1.4502  0.8129  0.8582
 6087TIP3    H239753   6.245   6.444   4.494 -0.0449  0.2330  0.3858
 6088TIP3   OH239754   1.148   5.808  13.388  0.1106 -0.3038  0.5271
 6088TIP3    H139755   1.188   5.892  13.365 -2.1357  0.8996  0.7256
 6088TIP3    H239756   1.180   5.747  13.321  2.9461  0.2654  1.2234
 6089TIP3   OH239757   6.049   4.080  13.563 -0.5114 -0.6637  0.6740
 6089TIP3    H139758   6.102   4.041  13.632 -1.2543  0.4443  1.9346
 6089TIP3    H239759   6.112   4.119  13.503  0.1402 -0.5794  1.3996
 6090TIP3   OH239760   1.304   6.203  14.464  0.8116 -0.6118 -0.2831
 6090TIP3    H139761   1.314   6.142  14.536 -0.5296  0.8196  1.2065
 6090TIP3    H239762   1.365   6.275  14.484  0.0391  0.0505 -0.2449
 6091TIP3   OH239763   2.044   1.557   2.269 -0.4939 -0.1780 -0.0682
 6091TIP3    H139764   2.065   1.552   2.176 -1.3853 -0.6360 -0.2603
 6091TIP3    H239765   2.074   1.474   2.305  1.9947  0.8923  0.5593
 6092TIP3   OH239766   4.403   0.582   3.212  0.4692 -0.5984 -0.3120
 6092TIP3    H139767   4.366   0.543   3.292 -3.5920  2.1557 -0.5439
 6092TIP3    H239768   4.462   0.651   3.244  0.2717 -0.6933  0.2655
 6093TIP3   OH239769   0.885   5.444  15.745 -0.2705 -0.4070  0.0074
 6093TIP3    H139770   0.874   5.370  15.685  0.3072  0.6111 -1.4203
 6093TIP3    H239771   0.838   5.516  15.702  1.4951  0.7687 -0.0587
 6094TIP3   OH239772   3.165   5.328  15.785  0.0126  0.2279 -0.0240
 6094TIP3    H139773   3.190   5.400  15.842 -0.4942  0.2202  0.2128
 6094TIP3    H239774   3.159   5.367  15.697  4.8364 -0.5183 -0.9616
 6095TIP3   OH239775   1.126   6.781   6.501 -0.1118 -0.4648 -0.3034
 6095TIP3    H139776   1.053   6.797   6.442 -0.0618  0.4512 -0.1328
 6095TIP3    H239777   1.129   6.858   6.558  1.3381 -0.2104 -0.6785
 6096TIP3   OH239778   1.329   1.364  12.140 -0.1740  0.0010  0.3827
 6096TIP3    H139779   1.304   1.295  12.078  1.4292  1.5115 -2.0716
 6096TIP3    H239780   1.422   1.349  12.157  0.0612  1.2252  0.2532
 6097TIP3   OH239781   0.031   4.744   2.079  0.0684 -0.1956  0.4206
 6097TIP3    H139782   0.122   4.735   2.052  0.0298  2.2110 -0.8119
 6097TIP3    H239783   0.017   4.839   2.084 -2.1943 -0.5087  1.2059
 6098TIP3   OH239784   3.500   5.415   0.836 -0.2334  0.1862  0.9258
 6098TIP3    H139785   3.557   5.489   0.859  0.9333 -0.3567 -0.0950
 6098TIP3    H239786   3.425   5.424   0.894  0.9831  0.8285  2.4881
 6099TIP3   OH239787   5.406   0.179  12.995  0.6653  0.0770 -0.1574
 6099TIP3    H139788   5.341   0.112  13.016  0.1433  0.1670 -1.3802
 6099TIP3    H239789   5.490   0.133  12.997  0.1452 -1.2212 -3.1260
 6100TIP3   OH239790   1.789   6.461  10.890  0.4008  0.2605 -0.6165
 6100TIP3    H139791   1.820   6.471  10.800  0.3645 -1.7430 -0.9071
 6100TIP3    H239792   1.858   6.412  10.935 -0.8072 -1.3434 -0.3902
 6101TIP3   OH239793   1.556   4.309   2.184 -0.4307 -0.0332  0.5004
 6101TIP3    H139794   1.485   4.287   2.244 -1.7543  0.1781 -0.9050
 6101TIP3    H239795   1.520   4.289   2.097  1.4367 -0.4104 -0.2236
 6102TIP3   OH239796   4.242   0.262   0.057  0.1368  0.1281 -0.0009
 6102TIP3    H139797   4.224   0.202   0.129 -0.4174  0.6993  0.3478
 6102TIP3    H239798   4.174   0.242  -0.008  1.1390 -0.9681 -0.7532
 6103TIP3   OH239799   6.381   4.688  11.945  0.1231  0.0939  0.2964
 6103TIP3    H139800   6.356   4.724  11.859  0.0514 -1.4865 -0.3839
 6103TIP3    H239801   6.448   4.747  11.977 -0.6381  1.3470 -0.3383
 6104TIP3   OH239802   3.160   3.943  11.921  0.2319  0.1517  0.3103
 6104TIP3    H139803   3.093   3.878  11.943  1.2432 -0.6740  1.0047
 6104TIP3    H239804   3.200   3.911  11.840 -3.1667  2.9502 -2.8363
 6105TIP3   OH239805   3.923   3.249  11.885 -0.1815 -0.5166  0.5268
 6105TIP3    H139806   3.869   3.259  11.807 -0.8005  0.6421  1.0794
 6105TIP3    H239807   3.897   3.164  11.920  1.0482 -1.6709 -1.1979
 6106TIP3   OH239808   6.534   0.409  14.280 -0.4694  0.0413 -0.0528
 6106TIP3    H139809   6.465   0.361  14.233 -0.8744 -1.8340  2.2233
 6106TIP3    H239810   6.493   0.492  14.303 -1.6201 -0.5876  0.2836
 6107TIP3   OH239811   3.315   6.627   0.535 -0.4965  0.4842  0.1796
 6107TIP3    H139812   3.251   6.613   0.605  0.1596 -1.3179  0.4557
 6107TIP3    H239813   3.297   6.558   0.471  0.6656  0.4262 -0.1009
 6108TIP3   OH239814   1.973   0.142  13.891  0.0324  0.3430  0.8653
 6108TIP3    H139815   2.017   0.193  13.959  0.6593  2.8139 -1.2472
 6108TIP3    H239816   1.900   0.196  13.863  1.5150  0.9008 -2.3976
 6109TIP3   OH239817   4.711   1.727   1.179  0.2515  0.0643 -0.9824
 6109TIP3    H139818   4.791   1.766   1.142 -0.7747  1.9630 -1.3082
 6109TIP3    H239819   4.703   1.768   1.265 -1.6900  1.8922 -1.9513
 6110TIP3   OH239820   5.650   2.134   1.384  0.2635  0.1169 -0.1282
 6110TIP3    H139821   5.605   2.219   1.393  2.1496  1.5715 -2.8579
 6110TIP3    H239822   5.711   2.131   1.458 -0.2655  0.8220  0.3535
 6111TIP3   OH239823   0.814   1.921  13.170  0.1844  0.2904  0.3798
 6111TIP3    H139824   0.854   1.971  13.241  0.5315 -0.8676  1.0333
 6111TIP3    H239825   0.742   1.874  13.212  1.8294 -2.2668  0.5582
 6112TIP3   OH239826   3.478   0.351  15.046 -0.1721  0.2365  0.2349
 6112TIP3    H139827   3.392   0.319  15.019 -0.6584 -1.1670  3.0713
 6112TIP3    H239828   3.508   0.288  15.112  2.9670  0.7942 -0.4638
 6113TIP3   OH239829   0.808   0.661   4.731 -0.3177  0.3638  0.0404
 6113TIP3    H139830   0.775   0.750   4.715 -0.1427  0.1831 -1.4881
 6113TIP3    H239831   0.880   0.651   4.669  0.4276 -0.4484  1.0025
 6114TIP3   OH239832   3.383   4.358   1.192 -0.1371 -0.5473 -0.2302
 6114TIP3    H139833   3.368   4.358   1.098 -2.3361 -0.3862  0.0672
 6114TIP3    H239834   3.331   4.285   1.225  0.6026 -0.6085  0.8813
 6115TIP3   OH239835   4.251   5.257   5.471 -0.0238  0.1614 -0.0843
 6115TIP3    H139836   4.167   5.296   5.447  0.3906  1.7581  0.9033
 6115TIP3    H239837   4.258   5.179   5.417 -2.3051 -0.2084  0.0751
 6116TIP3   OH239838   0.538   4.506   6.524 -0.2761 -0.1646 -0.0267
 6116TIP3    H139839   0.477   4.559   6.472 -0.6558 -1.6470 -1.1365
 6116TIP3    H239840   0.586   4.571   6.577 -1.1630  1.2264 -0.8506
 6117TIP3   OH239841   5.659   4.902   4.606 -0.7031  0.0587 -0.7249
 6117TIP3    H139842   5.629   4.865   4.689 -1.1475 -1.0752 -1.3678
 6117TIP3    H239843   5.719   4.836   4.570  0.0182  0.8362 -1.0046
 6118TIP3   OH239844   3.576   3.970  15.298 -0.0344  0.0284 -0.4084
 6118TIP3    H139845   3.639   4.042  15.308 -0.9193  0.7107  0.3216
 6118TIP3    H239846   3.507   4.006  15.242 -0.9856  0.0978  0.7720
 6119TIP3   OH239847   4.097   0.648  13.393  0.3605 -0.3613  0.0032
 6119TIP3    H139848   4.054   0.680  13.473 -2.1698 -0.2058 -1.3106
 6119TIP3    H239849   4.107   0.726  13.338  2.0488 -0.4733  0.1037
 6120TIP3   OH239850   5.935   2.256   6.383 -0.1049 -0.5107  0.0631
 6120TIP3    H139851   5.929   2.351   6.376  1.0624 -0.3536  0.9441
 6120TIP3    H239852   6.027   2.236   6.369 -0.6827 -1.7878 -2.6910
 6121TIP3   OH239853   5.496   5.448  11.566  0.4641  0.2416  0.7498
 6121TIP3    H139854   5.451   5.386  11.623  0.2151 -0.6465 -0.3646
 6121TIP3    H239855   5.428   5.480  11.507  1.3352 -1.8280 -1.5705
 6122TIP3   OH239856   5.378   0.545  13.136  0.2511 -0.4474  0.5829
 6122TIP3    H139857   5.297   0.533  13.086  0.4307  0.9846 -0.0895
 6122TIP3    H239858   5.422   0.618  13.094  0.7214  0.4044  2.4326
 6123TIP3   OH239859   5.751   6.684   5.600  0.5999 -0.0622  0.1953
 6123TIP3    H139860   5.835   6.654   5.563  1.0686  2.2746 -0.7828
 6123TIP3    H239861   5.685   6.641   5.545  1.0540 -2.3297  1.2821
 6124TIP3   OH239862   4.932   2.564  13.360 -0.8639 -0.5082 -0.4111
 6124TIP3    H139863   4.985   2.484  13.361 -1.7935 -1.1446 -0.7225
 6124TIP3    H239864   4.988   2.630  13.399 -0.2588 -1.4396  0.3469
 6125TIP3   OH239865   2.948   1.250  15.877 -0.2762 -0.1149  0.3405
 6125TIP3    H139866   2.916   1.189  15.944  0.6923 -0.5485  0.4199
 6125TIP3    H239867   3.036   1.274  15.905 -0.0433  0.0864 -0.5104
 6126TIP3   OH239868   2.127   6.513   2.730 -0.1211  0.4055  0.6969
 6126TIP3    H139869   2.184   6.440   2.756 -1.6219 -0.7186  0.9315
 6126TIP3    H239870   2.186   6.588   2.727  0.9828 -0.2644  3.0783
 6127TIP3   OH239871   0.032   3.050   5.952 -0.1044  0.1347  0.4129
 6127TIP3    H139872   0.011   3.112   5.882 -0.3161 -0.4047 -0.0118
 6127TIP3    H239873   0.116   3.012   5.927  0.9647  1.5831  1.6222
 6128TIP3   OH239874   6.755   1.263  15.487  0.3606  0.1107 -0.0751
 6128TIP3    H139875   6.848   1.280  15.469  0.1539  0.9831 -0.3722
 6128TIP3    H239876   6.755   1.213  15.568  1.1054 -0.1541 -0.2285
 6129TIP3   OH239877   4.206   0.376  16.484  0.1663 -0.1009 -0.0866
 6129TIP3    H139878   4.117   0.381  16.518 -0.4920  2.1340 -1.8613
 6129TIP3    H239879   4.225   0.282  16.479 -2.2680 -0.6612 -0.0686
 6130TIP3   OH239880   5.918   2.627  14.380  0.3477  0.3211  0.9966
 6130TIP3    H139881   5.976   2.633  14.304 -1.5395  1.1852 -0.4413
 6130TIP3    H239882   5.932   2.709  14.427 -0.3997  0.9741  0.1059
 6131TIP3   OH239883   4.039   6.697  16.239 -0.2065  0.4728 -0.9550
 6131TIP3    H139884   3.944   6.706  16.241 -0.1669  1.0570 -1.2708
 6131TIP3    H239885   4.071   6.786  16.221  0.4853  0.6771  1.0787
 6132TIP3   OH239886   1.526   2.582  16.277 -0.0713 -0.3927 -0.1759
 6132TIP3    H139887   1.443   2.572  16.231 -0.4223 -1.1626  0.5964
 6132TIP3    H239888   1.517   2.665  16.324  0.1736  0.2465 -1.2349
 6133TIP3   OH239889   2.209   4.855   3.613  0.2425  0.2353 -0.0141
 6133TIP3    H139890   2.212   4.864   3.517  2.4539 -1.2710 -0.1525
 6133TIP3    H239891   2.268   4.923   3.646  1.3827 -0.7691  0.0906
 6134TIP3   OH239892   4.704   2.615   1.100 -0.0732  0.1632  0.1101
 6134TIP3    H139893   4.667   2.625   1.012 -3.1352 -1.3801  1.1054
 6134TIP3    H239894   4.735   2.524   1.103  0.5041  0.3661  0.4730
 6135TIP3   OH239895   2.965   0.026  12.728  0.1107 -0.2586  0.0002
 6135TIP3    H139896   2.925   0.105  12.692 -0.6970 -1.5468 -2.1313
 6135TIP3    H239897   2.907  -0.045  12.700  1.0823 -1.6692  1.4042
 6136TIP3   OH239898   4.735   1.391   4.703 -0.2384  0.3996  0.4914
 6136TIP3    H139899   4.664   1.418   4.761 -1.4803 -3.0371  0.7633
 6136TIP3    H239900   4.815   1.414   4.751 -1.2162 -1.3089  3.1491
 6137TIP3   OH239901   1.752   2.645  16.726  0.3219  0.2668  0.3473
 6137TIP3    H139902   1.847   2.654  16.714  0.7711 -1.8825  1.8424
 6137TIP3    H239903   1.723   2.596  16.650  0.1537  1.8715 -0.6878
 6138TIP3   OH239904   5.876   2.387  13.051  0.3519  0.5822  0.2810
 6138TIP3    H139905   5.832   2.373  13.134 -1.2409  0.0118 -0.6086
 6138TIP3    H239906   5.939   2.315  13.044  2.2224  1.9415  1.9988
 6139TIP3   OH239907   5.030   0.073  16.638 -0.6178 -0.0409  0.0023
 6139TIP3    H139908   5.067   0.150  16.596 -0.2229 -0.2329 -0.0136
 6139TIP3    H239909   4.935   0.083  16.629 -0.5639  0.3855 -0.0941
 6140TIP3   OH239910   0.861   2.768   5.013 -0.0643  0.8040  0.4981
 6140TIP3    H139911   0.902   2.848   4.979  0.6074  0.5775  0.7616
 6140TIP3    H239912   0.771   2.773   4.983  0.5076  0.5860 -1.4064
 6141TIP3   OH239913   5.155   1.344   1.885  0.5354  0.4289  0.0617
 6141TIP3    H139914   5.193   1.274   1.939  0.6535  0.5511  0.1391
 6141TIP3    H239915   5.080   1.303   1.843  0.8679  0.1278 -0.2460
 6142TIP3   OH239916   1.910   2.215  11.203 -0.0412 -0.1236  0.3170
 6142TIP3    H139917   1.991   2.224  11.253 -0.0731  1.2995  0.1554
 6142TIP3    H239918   1.937   2.225  11.112 -0.4312  0.7505  0.2858
 6143TIP3   OH239919   0.038   0.802  10.691 -0.2715  0.1946 -0.3566
 6143TIP3    H139920  -0.000   0.824  10.606  0.5450 -0.5567 -0.9370
 6143TIP3    H239921   0.095   0.876  10.712  2.0168 -0.9611 -2.0254
 6144TIP3   OH239922   1.925   1.585  11.368  0.2577 -0.3600  0.3645
 6144TIP3    H139923   1.911   1.672  11.331  1.4285 -1.0007 -1.7268
 6144TIP3    H239924   1.963   1.601  11.454 -0.2473  1.1885  0.3246
 6145TIP3   OH239925   4.167   6.781  10.608 -0.0615  0.9052 -0.3488
 6145TIP3    H139926   4.247   6.728  10.607 -1.4842 -1.4113  0.7320
 6145TIP3    H239927   4.160   6.813  10.698 -0.9981 -0.0579 -0.0507
 6146TIP3   OH239928   2.357   4.924   4.987  0.5156 -0.7444  0.0319
 6146TIP3    H139929   2.411   4.935   4.909 -0.6617 -2.7143 -1.1426
 6146TIP3    H239930   2.402   4.974   5.055  1.3258  1.4464 -1.9846
 6147TIP3   OH239931   1.881   4.937  15.619 -0.4516 -0.4601 -0.7371
 6147TIP3    H139932   1.882   4.980  15.704 -1.1938  2.2367 -1.9446
 6147TIP3    H239933   1.971   4.909  15.605 -0.3574 -1.1080  0.9739
 6148TIP3   OH239934   6.071   3.768   5.015 -0.4293 -0.1550  0.1264
 6148TIP3    H139935   6.008   3.773   5.086 -0.0151 -0.5596  0.5222
 6148TIP3    H239936   6.150   3.733   5.055  0.5448  1.7589 -0.0175
 6149TIP3   OH239937   2.390   3.925   3.934  0.5347  0.3165 -0.2626
 6149TIP3    H139938   2.354   4.011   3.956  2.2800  0.8988  0.5172
 6149TIP3    H239939   2.316   3.865   3.941 -0.5928  1.6625 -0.2494
 6150TIP3   OH239940   2.133   3.483   1.479  0.1815  0.5414 -0.1968
 6150TIP3    H139941   2.076   3.422   1.526  0.1365  0.3274 -0.5202
 6150TIP3    H239942   2.072   3.542   1.435  0.2342  1.2934  0.7180
 6151TIP3   OH239943   4.045   5.549  12.376  0.1607 -0.2571  0.2066
 6151TIP3    H139944   4.035   5.469  12.428  0.1188 -0.0685  0.4890
 6151TIP3    H239945   3.955   5.582  12.366  0.1434 -0.4153 -0.1806
 6152TIP3   OH239946   0.242   0.994   0.335 -0.5315 -0.0026  0.7047
 6152TIP3    H139947   0.267   1.083   0.360  0.0101 -0.0576  0.3653
 6152TIP3    H239948   0.149   0.989   0.356 -0.8971  1.1024 -0.5520
 6153TIP3   OH239949   1.817   4.466  16.047  0.5988  0.5866 -0.3134
 6153TIP3    H139950   1.726   4.438  16.057  0.9966 -0.7893 -0.4213
 6153TIP3    H239951   1.813   4.537  15.983 -0.8840  3.4288  2.5820
 6154TIP3   OH239952   2.826   5.547   2.901 -0.1358 -0.0924 -0.2228
 6154TIP3    H139953   2.810   5.640   2.913  1.3998 -0.0245  1.9394
 6154TIP3    H239954   2.822   5.511   2.990  1.2272 -1.7422 -0.7804
 6155TIP3   OH239955   4.120   4.150   1.882 -0.3484  0.2661  0.3244
 6155TIP3    H139956   4.162   4.146   1.797 -1.2380  4.1581 -0.5050
 6155TIP3    H239957   4.192   4.170   1.943 -0.2187  1.6449 -0.2436
 6156TIP3   OH239958   3.809   3.305   5.497  0.1854 -0.1568 -0.6703
 6156TIP3    H139959   3.878   3.305   5.564  1.6566 -1.4329 -2.0814
 6156TIP3    H239960   3.753   3.379   5.520  1.5486  0.4268  1.0226
 6157TIP3   OH239961   2.142   3.882   5.718  0.4871  0.2426  0.2012
 6157TIP3    H139962   2.166   3.960   5.769 -1.7604  0.2640  1.3514
 6157TIP3    H239963   2.150   3.810   5.780  0.1368 -0.0840 -0.1326
 6158TIP3   OH239964   4.982   0.941  12.485 -0.1436 -0.1692  0.4426
 6158TIP3    H139965   4.999   1.027  12.446  0.9822 -0.6860 -0.2769
 6158TIP3    H239966   4.984   0.956  12.579 -0.1230  0.6294  0.3222
 6159TIP3   OH239967   4.306   6.539  13.596  0.0735  0.4792  0.1820
 6159TIP3    H139968   4.310   6.616  13.653 -2.2352 -0.2341  1.4365
 6159TIP3    H239969   4.340   6.468  13.650 -1.9050 -0.1567  0.6800
 6160TIP3   OH239970   0.548   3.230   0.005  0.0162 -0.0141  0.0841
 6160TIP3    H139971   0.495   3.303  -0.027 -0.4939  0.2354  1.4565
 6160TIP3    H239972   0.568   3.252   0.096  1.9128 -0.4375 -0.1905
 6161TIP3   OH239973   3.513   1.148  12.607 -0.1386 -0.1976  0.5018
 6161TIP3    H139974   3.453   1.083  12.571 -0.6930  0.6040 -0.0583
 6161TIP3    H239975   3.462   1.193  12.674  0.1608 -0.1755  0.7154
 6162TIP3   OH239976   5.726   2.288  16.550  0.1013 -0.3758 -0.8153
 6162TIP3    H139977   5.811   2.258  16.583 -0.6271 -2.0539 -0.3506
 6162TIP3    H239978   5.664   2.267  16.620 -0.6012  1.7149 -0.7330
 6163TIP3   OH239979   6.649   2.652  16.272  0.0559  0.2489 -0.3807
 6163TIP3    H139980   6.623   2.713  16.341  2.3207  0.4074  0.4034
 6163TIP3    H239981   6.640   2.703  16.191  0.3831  1.1143  0.1130
 6164TIP3   OH239982   4.043   5.222   0.594  0.2553 -0.2050 -0.0338
 6164TIP3    H139983   4.015   5.313   0.587  0.0858 -0.2330  0.2532
 6164TIP3    H239984   3.996   5.188   0.670  0.3612 -0.5162 -0.1039
 6165TIP3   OH239985   3.680   4.281   1.489  0.5496  0.9367 -1.1331
 6165TIP3    H139986   3.591   4.263   1.458  1.0596 -0.7777 -1.7368
 6165TIP3    H239987   3.729   4.202   1.465  1.6908  0.8180  1.3581
 6166TIP3   OH239988   0.430   3.118   2.202  0.1077  0.0979 -0.4500
 6166TIP3    H139989   0.466   3.184   2.142  0.5707 -0.2588 -0.5734
 6166TIP3    H239990   0.489   3.043   2.193 -0.1324 -0.1573  0.0517
 6167TIP3   OH239991   1.779   5.412  13.432  0.1698  0.0089  0.0983
 6167TIP3    H139992   1.835   5.485  13.409  0.9385  0.2115  2.3599
 6167TIP3    H239993   1.696   5.431  13.388 -0.1564  3.0692  1.7330
 6168TIP3   OH239994   6.221   4.744   2.607 -0.0927 -0.2958  0.2419
 6168TIP3    H139995   6.241   4.751   2.514  0.4873  0.5529  0.4144
 6168TIP3    H239996   6.299   4.777   2.651  0.0897 -1.7475  1.0618
 6169TIP3   OH239997   5.595   0.488   2.162  0.2611 -0.0927 -0.0404
 6169TIP3    H139998   5.652   0.417   2.192 -1.9643 -1.0236  2.3960
 6169TIP3    H239999   5.544   0.450   2.091  0.8213 -0.0691 -0.4684
 6170TIP3   OH240000   3.414   4.304  13.733 -0.5170  0.3727  0.3364
 6170TIP3    H140001   3.507   4.294  13.716 -0.6258 -1.4481  0.5963
 6170TIP3    H240002   3.409   4.323  13.827 -0.4182  0.3416  0.3480
 6171TIP3   OH240003   6.294   5.598   6.121 -0.1702 -0.4455  0.1265
 6171TIP3    H140004   6.337   5.654   6.056  0.0356  0.0111  0.6380
 6171TIP3    H240005   6.215   5.566   6.078  0.4629 -0.9540 -0.6895
 6172TIP3   OH240006   0.011   2.146   2.332 -0.3965  0.6192 -0.6948
 6172TIP3    H140007   0.026   2.062   2.288 -2.2582 -0.5298  0.6930
 6172TIP3    H240008   0.021   2.127   2.425 -0.4085  2.0549 -0.3769
 6173TIP3   OH240009   1.940   5.623  14.156 -0.8819 -0.4214 -0.2252
 6173TIP3    H140010   1.965   5.621  14.249  1.4387  1.6099 -0.6944
 6173TIP3    H240011   2.023   5.626  14.109 -1.9100  2.4467 -2.1646
 6174TIP3   OH240012   2.726   3.199   3.542 -0.4227 -0.0059  0.3138
 6174TIP3    H140013   2.817   3.202   3.513 -0.5265  1.5896  0.0604
 6174TIP3    H240014   2.690   3.283   3.516 -2.0570 -0.7038  0.1972
 6175TIP3   OH240015   6.268   5.966  13.912 -0.5720 -0.4940  0.3410
 6175TIP3    H140016   6.193   6.014  13.876 -0.8519  0.1009  1.6679
 6175TIP3    H240017   6.229   5.894  13.961 -0.2495 -0.5115  0.5723
 6176TIP3   OH240018   6.775   5.363  11.139  0.1088 -0.1055 -0.6209
 6176TIP3    H140019   6.787   5.443  11.191  0.1987  0.1161 -0.9775
 6176TIP3    H240020   6.755   5.395  11.051 -1.2636 -0.4832 -0.4561
 6177TIP3   OH240021   4.712   5.066  15.839 -0.4617  0.4836  0.2041
 6177TIP3    H140022   4.739   5.131  15.905 -0.0248  0.3972  0.1142
 6177TIP3    H240023   4.620   5.049  15.859  0.3700 -1.7483  2.6797
 6178TIP3   OH240024   6.102   0.480   0.273 -0.0644  0.5323 -0.3436
 6178TIP3    H140025   6.186   0.443   0.298 -0.5892 -0.5505 -0.1285
 6178TIP3    H240026   6.040   0.407   0.280 -0.8432  1.0568 -1.4556
 6179TIP3   OH240027   6.197   5.574  11.959  0.4813  0.4131 -0.4091
 6179TIP3    H140028   6.126   5.551  11.898 -0.3723  0.9151  0.3684
 6179TIP3    H240029   6.226   5.490  11.995 -0.2460  0.2596 -0.1653
 6180TIP3   OH240030   4.365   3.198  12.332  0.4048 -0.1215 -0.0458
 6180TIP3    H140031   4.319   3.276  12.365 -2.0681 -1.4378 -0.1821
 6180TIP3    H240032   4.371   3.212  12.237 -0.6261 -0.3761 -0.1526
 6181TIP3   OH240033   5.330   0.730   2.000  0.3582  0.2111 -0.0320
 6181TIP3    H140034   5.320   0.791   1.927 -0.9862 -0.8704 -0.8058
 6181TIP3    H240035   5.278   0.654   1.974  0.5506 -0.5401  1.6855
 6182TIP3   OH240036   1.319   5.419   0.637 -0.1699  0.6036 -0.1792
 6182TIP3    H140037   1.234   5.427   0.593 -0.2050 -0.9110 -0.4363
 6182TIP3    H240038   1.333   5.325   0.644  0.8864  0.8337  1.0538
 6183TIP3   OH240039   1.105   0.848  11.998  0.1683  0.6413 -0.5978
 6183TIP3    H140040   1.148   0.831  11.914 -0.2334  0.1623 -0.7124
 6183TIP3    H240041   1.011   0.845  11.978 -0.0137 -1.7688  0.2581
 6184TIP3   OH240042   3.680   3.078  11.575 -0.5355  0.3337 -0.1785
 6184TIP3    H140043   3.691   2.997  11.624  0.1965  0.1063 -0.6890
 6184TIP3    H240044   3.616   3.129  11.625  0.5942  0.3508  1.3145
 6185TIP3   OH240045   5.517   3.542   0.954 -0.4631  0.2425 -0.2635
 6185TIP3    H140046   5.578   3.519   0.883 -0.0524 -0.6308  0.3642
 6185TIP3    H240047   5.431   3.539   0.913 -0.2389 -0.3675 -0.7006
 6186TIP3   OH240048   1.589   2.635   5.432  0.4849 -0.3557  1.0294
 6186TIP3    H140049   1.513   2.658   5.377  1.1971  1.1743  0.6257
 6186TIP3    H240050   1.561   2.558   5.480 -1.2787  0.0710  0.7639
 6187TIP3   OH240051   0.192   1.408  17.179 -0.0328 -0.0046 -0.2363
 6187TIP3    H140052   0.147   1.340  17.128  1.3974  0.0449 -1.6300
 6187TIP3    H240053   0.273   1.425  17.131  0.6440  1.1856  1.2374
 6188TIP3   OH240054   0.690   4.361  11.964 -0.2828 -0.3605  0.0170
 6188TIP3    H140055   0.681   4.444  11.917  0.0092  2.0650  3.8638
 6188TIP3    H240056   0.602   4.342  11.996  0.0189 -0.4981  0.7744
 6189TIP3   OH240057   4.548   0.558  11.543  0.4093 -0.2076  0.3018
 6189TIP3    H140058   4.478   0.612  11.580  0.2966 -0.1592  0.0151
 6189TIP3    H240059   4.614   0.555  11.613  0.8714  1.1548 -0.0436
 6190TIP3   OH240060   0.214   1.728  14.177  0.3851  0.1278 -0.4706
 6190TIP3    H140061   0.246   1.638  14.181 -0.6378 -0.2143  0.6330
 6190TIP3    H240062   0.284   1.780  14.216 -0.0281 -0.5117  1.1980
 6191TIP3   OH240063   2.942   2.605   4.696  0.4001  0.3615 -0.5379
 6191TIP3    H140064   3.014   2.585   4.635 -0.4928  0.3345 -1.6116
 6191TIP3    H240065   2.906   2.519   4.718  0.8178  0.3598  0.1776
 6192TIP3   OH240066   2.865   6.590  14.328  0.3250 -0.4042 -0.4421
 6192TIP3    H140067   2.821   6.581  14.244 -1.2732  0.3031  0.2791
 6192TIP3    H240068   2.878   6.685  14.338  0.7307 -0.5005  0.0027
 6193TIP3   OH240069   5.667   5.493   2.880  0.4182 -0.1268  0.2924
 6193TIP3    H140070   5.691   5.555   2.949 -0.0219 -0.7880  1.0571
 6193TIP3    H240071   5.620   5.423   2.925  0.6894 -0.9050 -0.5877
 6194TIP3   OH240072   2.763   2.186   2.794  0.6098  0.1237 -0.6628
 6194TIP3    H140073   2.843   2.157   2.839  0.7372 -0.2449 -1.1126
 6194TIP3    H240074   2.720   2.104   2.768  0.6645  0.3296 -1.4167
 6195TIP3   OH240075   4.675   1.486   1.068  0.2428  0.1025  0.1979
 6195TIP3    H140076   4.683   1.561   1.126 -1.1004  0.4787 -0.0554
 6195TIP3    H240077   4.700   1.520   0.982 -3.0143  1.1494 -0.5041
 6196TIP3   OH240078   3.870   6.442  13.762 -0.0928  0.1397  0.0094
 6196TIP3    H140079   3.880   6.401  13.676  0.9783  0.6054 -0.0985
 6196TIP3    H240080   3.890   6.371  13.824 -1.3133 -0.3204 -0.0972
 6197TIP3   OH240081   2.318   4.217  11.969  0.2425 -0.0582  0.2193
 6197TIP3    H140082   2.266   4.137  11.961 -0.8265  0.4639  1.5266
 6197TIP3    H240083   2.380   4.198  12.039  1.7067 -0.5813 -1.1499
 6198TIP3   OH240084   2.692   5.584  15.799 -0.3746  0.2480  0.4947
 6198TIP3    H140085   2.694   5.589  15.703  1.7210  1.8779  0.5597
 6198TIP3    H240086   2.605   5.618  15.822 -1.7859 -2.1479 -0.8176
 6199TIP3   OH240087   5.066   2.901   0.719  0.9556  0.5074  0.1106
 6199TIP3    H140088   5.130   2.892   0.648 -0.1354  0.3248 -0.8817
 6199TIP3    H240089   5.016   2.979   0.696  0.4034  0.2806  0.5346
 6200TIP3   OH240090   4.967   0.853  17.216  0.0089  0.1991 -0.4045
 6200TIP3    H140091   4.951   0.776  17.271  0.1234 -0.4657 -1.2684
 6200TIP3    H240092   5.061   0.871  17.227 -0.1580  0.6492  0.3315
 6201TIP3   OH240093   6.298   3.539  12.736  0.3153  0.1302  0.5889
 6201TIP3    H140094   6.355   3.616  12.724  2.2382 -1.5676 -2.6216
 6201TIP3    H240095   6.358   3.469  12.762 -1.1920 -0.6538  2.1362
 6202TIP3   OH240096   5.760   3.268   6.278  0.0738 -0.0970 -0.1267
 6202TIP3    H140097   5.666   3.250   6.274 -0.2868  1.3038  1.1103
 6202TIP3    H240098   5.766   3.359   6.306  1.8116 -0.5587  1.2221
 6203TIP3   OH240099   5.324   4.554  15.695 -0.1022 -0.0902  0.5017
 6203TIP3    H140100   5.361   4.551  15.607 -0.0809 -0.7046  0.5268
 6203TIP3    H240101   5.379   4.616  15.742 -0.5695  0.8241 -0.1168
 6204TIP3   OH240102   4.871   2.755   2.875  0.1432  0.0540 -0.6932
 6204TIP3    H140103   4.884   2.807   2.796  0.9110 -1.1829 -1.4077
 6204TIP3    H240104   4.777   2.737   2.877  0.1616 -0.1547 -1.4968
 6205TIP3   OH240105   1.428   5.876  16.790  0.4285 -0.4257 -0.1824
 6205TIP3    H140106   1.427   5.860  16.884 -0.7339 -0.2520 -0.1574
 6205TIP3    H240107   1.337   5.864  16.762  0.3873  1.3555 -0.9645
 6206TIP3   OH240108   4.752   0.300  12.922  0.1303 -0.0599 -0.2032
 6206TIP3    H140109   4.783   0.305  13.013 -0.7791  1.1143  0.0737
 6206TIP3    H240110   4.703   0.218  12.918 -1.6637  0.8740  1.0223
 6207TIP3   OH240111   4.946   5.992   1.327 -0.1948  0.1272  0.9981
 6207TIP3    H140112   4.937   5.949   1.412 -1.5740  2.1743  1.9688
 6207TIP3    H240113   5.017   6.055   1.339  0.4378 -0.4212  0.2299
 6208TIP3   OH240114   2.400   5.037   4.130 -0.0692  0.0968 -0.2127
 6208TIP3    H140115   2.383   4.962   4.072 -1.6570  0.1112  0.1717
 6208TIP3    H240116   2.460   5.092   4.081 -0.8441 -0.2264 -1.5887
 6209TIP3   OH240117   5.997   4.778  14.885 -0.6282 -0.4101  0.5171
 6209TIP3    H140118   6.064   4.744  14.945  0.3801  0.6186  0.0041
 6209TIP3    H240119   5.974   4.863  14.921  0.3035  0.4148 -0.7621
 6210TIP3   OH240120   2.920   5.854  15.186 -0.2166 -0.1742  0.0459
 6210TIP3    H140121   3.012   5.868  15.208 -0.5220  1.6362  0.3015
 6210TIP3    H240122   2.883   5.942  15.178 -1.3889 -0.8110 -2.5071
 6211TIP3   OH240123   2.435   4.525  12.621 -0.2986  0.1803  0.3256
 6211TIP3    H140124   2.366   4.528  12.687 -0.8679 -1.9078 -0.0740
 6211TIP3    H240125   2.491   4.452  12.649  0.2987  0.2356 -0.6821
 6212TIP3   OH240126   6.457   3.191  13.502  0.4302 -0.2090  0.3310
 6212TIP3    H140127   6.506   3.181  13.420 -0.7468 -2.2205 -0.1937
 6212TIP3    H240128   6.488   3.120  13.558  0.1085  0.2075  1.0509
 6213TIP3   OH240129   4.509   4.797   4.470 -0.8928 -0.4611  0.1179
 6213TIP3    H140130   4.602   4.820   4.463 -0.8305 -0.6798  0.1867
 6213TIP3    H240131   4.464   4.859   4.413 -1.3180  3.1569  3.9006
 6214TIP3   OH240132   0.558   1.616  14.659  0.5069  0.6992 -0.2849
 6214TIP3    H140133   0.553   1.552  14.730 -1.4623  0.4427 -0.6024
 6214TIP3    H240134   0.641   1.597  14.615  0.4242 -0.9687  0.2243
 6215TIP3   OH240135   1.211   4.228  16.793 -0.5690 -0.3904 -0.2184
 6215TIP3    H140136   1.247   4.270  16.715  1.0740 -0.1405  0.6193
 6215TIP3    H240137   1.118   4.217  16.774 -0.9215  2.8075 -0.8767
 6216TIP3   OH240138   3.848   3.843   0.800 -0.1258 -0.0069 -0.1294
 6216TIP3    H140139   3.887   3.925   0.770 -1.2098  0.7034  0.3393
 6216TIP3    H240140   3.756   3.849   0.775 -0.4884 -0.5389  0.9920
 6217TIP3   OH240141   2.297   3.629   1.945 -0.3515  0.9559 -0.3004
 6217TIP3    H140142   2.382   3.662   1.974 -0.4411  0.2189  0.8411
 6217TIP3    H240143   2.312   3.600   1.855  0.7260  0.4184  0.0363
 6218TIP3   OH240144   3.477   0.401  11.641 -0.0934  0.1675  0.0114
 6218TIP3    H140145   3.508   0.427  11.554 -2.4333  0.6512 -0.7421
 6218TIP3    H240146   3.408   0.338  11.624  0.4179 -0.8902  1.6129
 6219TIP3   OH240147   2.619   1.363  16.922 -0.4876  0.5068 -0.2516
 6219TIP3    H140148   2.609   1.456  16.942 -0.9579  0.3077  0.5005
 6219TIP3    H240149   2.544   1.321  16.965  1.1846 -0.5415  1.8017
 6220TIP3   OH240150   0.219   4.567   3.200 -0.8511  0.4159  0.2340
 6220TIP3    H140151   0.180   4.536   3.118  1.0874  1.4149 -1.1505
 6220TIP3    H240152   0.215   4.492   3.259 -2.7659 -0.1717 -0.5644
 6221TIP3   OH240153   4.777   3.935  16.998 -0.3516 -0.3833  0.0023
 6221TIP3    H140154   4.849   3.999  17.005  0.1070 -0.9321  0.3851
 6221TIP3    H240155   4.700   3.983  17.028  0.2325 -0.3964  1.6471
 6222TIP3   OH240156   1.701   3.109   4.684  0.2855 -0.0424  0.4147
 6222TIP3    H140157   1.642   3.138   4.754  0.8396  0.9965  0.4752
 6222TIP3    H240158   1.779   3.164   4.694  0.5289 -0.1455 -0.7797
 6223TIP3   OH240159   5.714   3.887   6.649 -0.3536  0.2144  0.3838
 6223TIP3    H140160   5.672   3.823   6.591  2.0182  1.3532 -2.9490
 6223TIP3    H240161   5.745   3.836   6.723 -2.6806 -1.5673  0.2193
 6224TIP3   OH240162   4.900   3.090   2.134 -0.0130  0.1128 -0.3568
 6224TIP3    H140163   4.903   3.173   2.183 -3.8046  0.4829 -0.4744
 6224TIP3    H240164   4.922   3.115   2.044  0.7642  0.6009 -0.0420
 6225TIP3   OH240165   1.998   4.698   2.575  0.0812  0.0423 -0.1461
 6225TIP3    H140166   1.933   4.635   2.545  0.7545 -1.1888  0.8603
 6225TIP3    H240167   1.957   4.741   2.650 -0.2736  0.6026 -0.6610
 6226TIP3   OH240168   5.657   2.578  14.481 -0.3304 -0.0565 -0.6026
 6226TIP3    H140169   5.742   2.580  14.438 -1.2504 -1.5398 -2.6792
 6226TIP3    H240170   5.676   2.554  14.572  1.6577  2.8513 -0.1409
 6227TIP3   OH240171   5.052   1.200   1.278  0.2635 -0.6942  0.6509
 6227TIP3    H140172   4.977   1.235   1.230  1.0968  1.5324  0.8665
 6227TIP3    H240173   5.041   1.105   1.273 -1.3671 -0.4744 -1.2000
 6228TIP3   OH240174   5.561   0.342  13.450  0.3637  0.4368  0.2589
 6228TIP3    H140175   5.562   0.417  13.510  1.8142 -0.3282  1.2474
 6228TIP3    H240176   5.646   0.345  13.407 -1.0849  1.6771 -2.7675
 6229TIP3   OH240177   1.575   0.169   4.371 -0.3350  0.1472 -0.1565
 6229TIP3    H140178   1.624   0.189   4.291  0.9202 -1.6520  0.1136
 6229TIP3    H240179   1.628   0.203   4.442 -0.9602  0.8460 -0.0105
 6230TIP3   OH240180   1.194   0.546  15.766  0.0981 -0.0155 -0.0680
 6230TIP3    H140181   1.213   0.599  15.689 -0.6513  1.2132  0.5604
 6230TIP3    H240182   1.163   0.462  15.731 -0.6643  0.6783 -1.1031
 6231TIP3   OH240183   0.276   3.637  12.944  0.1503  0.1520  0.3891
 6231TIP3    H140184   0.282   3.611  13.036  2.5019 -0.0311  0.2521
 6231TIP3    H240185   0.282   3.555  12.895  0.3380  0.3566  0.0614
 6232TIP3   OH240186   2.297   5.285   1.634 -0.4843 -0.3851  0.5766
 6232TIP3    H140187   2.370   5.266   1.694 -1.4103 -1.1377  1.5067
 6232TIP3    H240188   2.322   5.242   1.552  0.3990 -0.0967  0.6833
 6233TIP3   OH240189   5.284   6.565  16.671  0.3587 -0.3318 -0.3903
 6233TIP3    H140190   5.259   6.606  16.588 -4.9040 -0.5439  0.7460
 6233TIP3    H240191   5.280   6.471  16.654 -1.4322 -0.3836  0.1949
 6234TIP3   OH240192   3.559   1.304   5.274  0.0015  0.8461  0.5757
 6234TIP3    H140193   3.506   1.226   5.258 -0.8656  1.2973  1.1160
 6234TIP3    H240194   3.505   1.376   5.240  1.0100  1.1722 -0.3767
 6235TIP3   OH240195   3.680   4.717  14.959  0.0638  0.0961 -0.2122
 6235TIP3    H140196   3.656   4.735  15.050  0.4230  0.3390 -0.1634
 6235TIP3    H240197   3.715   4.628  14.961 -1.1488 -0.4075 -0.3473
 6236TIP3   OH240198   3.506   4.107  17.204 -0.1184  0.3051  0.1484
 6236TIP3    H140199   3.471   4.068  17.123 -1.8377 -1.3820  1.6134
 6236TIP3    H240200   3.507   4.201  17.186 -0.7209  0.0002 -1.7406
 6237TIP3   OH240201   6.084   3.756  16.793 -0.1466  0.4030  0.4421
 6237TIP3    H140202   6.142   3.690  16.755  0.1508  0.0979  1.3914
 6237TIP3    H240203   6.134   3.791  16.867 -0.2162  1.8382 -0.1504
 6238TIP3   OH240204   2.577   4.249  15.712 -0.0467 -0.2560 -0.4616
 6238TIP3    H140205   2.515   4.294  15.654 -0.3133 -0.2476 -0.1707
 6238TIP3    H240206   2.551   4.157  15.708 -0.1686 -0.2311 -0.2229
 6239TIP3   OH240207   3.438   3.821   3.249  0.2515 -0.2114 -0.3704
 6239TIP3    H140208   3.445   3.735   3.208  0.3281  0.4132 -1.7412
 6239TIP3    H240209   3.417   3.880   3.177 -1.3654  0.6953  0.7849
 6240TIP3   OH240210   6.170   4.644   1.224 -0.5885 -0.0501  0.2340
 6240TIP3    H140211   6.192   4.733   1.250  2.6174  0.1068 -2.3150
 6240TIP3    H240212   6.240   4.590   1.260 -1.6405 -1.3242  0.4473
 6241TIP3   OH240213   6.411   6.342   4.340 -0.1118 -0.2646  0.1188
 6241TIP3    H140214   6.472   6.384   4.400  0.5810  0.4815 -1.0700
 6241TIP3    H240215   6.394   6.256   4.379  0.6984  0.0168  1.1219
 6242TIP3   OH240216   1.369   3.481   3.251 -0.0756 -0.2756 -0.2463
 6242TIP3    H140217   1.463   3.477   3.232  0.3386  0.5694  1.5107
 6242TIP3    H240218   1.351   3.573   3.270 -1.5498 -0.1849 -1.7870
 6243TIP3   OH240219   0.081   6.105   2.929  0.8700 -0.0185 -0.1949
 6243TIP3    H140220  -0.000   6.055   2.926  2.1362 -2.1975 -3.2772
 6243TIP3    H240221   0.075   6.165   2.855  2.0528 -0.2447 -0.4994
 6244TIP3   OH240222   2.163   1.655  14.870 -0.6853 -0.1596  0.1821
 6244TIP3    H140223   2.194   1.694  14.788 -1.2699 -1.5376 -0.7374
 6244TIP3    H240224   2.215   1.575  14.880 -1.8627 -0.9577  0.1667
 6245TIP3   OH240225   6.579   1.829  11.558  0.4892  0.1103  0.3494
 6245TIP3    H140226   6.580   1.761  11.626  2.7256  0.9505  1.2366
 6245TIP3    H240227   6.543   1.785  11.481 -1.9071 -0.9512  1.9447
 6246TIP3   OH240228   2.641   2.102   1.927 -0.0679 -0.7223 -0.2475
 6246TIP3    H140229   2.714   2.164   1.927  0.9462 -1.7628  2.3943
 6246TIP3    H240230   2.563   2.156   1.941  0.4987  0.1595 -0.4236
 6247TIP3   OH240231   0.801   1.194   0.178 -0.1984  0.1121 -0.5017
 6247TIP3    H140232   0.893   1.213   0.195 -0.3878 -0.0006  0.7626
 6247TIP3    H240233   0.784   1.232   0.092  0.0155  3.8186  0.8972
 6248TIP3   OH240234   4.929   4.201   0.416 -0.3238  0.0036 -0.4916
 6248TIP3    H140235   4.870   4.179   0.344 -0.0742 -0.0502 -0.6806
 6248TIP3    H240236   4.969   4.117   0.440 -1.7673 -0.3276  0.9377
 6249TIP3   OH240237   3.651   5.188  15.942  0.0690 -0.0352 -0.6316
 6249TIP3    H140238   3.568   5.168  15.899 -0.8085  0.0945  0.9280
 6249TIP3    H240239   3.705   5.110  15.928 -0.1879 -0.0087 -1.9076
 6250TIP3   OH240240   4.070   1.756  15.051 -0.0737  0.6449 -0.3207
 6250TIP3    H140241   4.003   1.711  15.103  0.8448 -0.0294  0.3059
 6250TIP3    H240242   4.020   1.816  14.995 -1.0947  1.5229  1.4280
 6251TIP3   OH240243   3.503   3.067   1.157  0.6610 -0.0631  0.5141
 6251TIP3    H140244   3.556   3.026   1.089 -0.5682 -0.4689 -0.2152
 6251TIP3    H240245   3.564   3.078   1.231  1.8210 -0.2670 -0.3847
 6252TIP3   OH240246   5.097   1.397  16.032 -0.0910  0.3666 -0.0753
 6252TIP3    H140247   5.099   1.317  15.979 -0.1636  0.8514 -0.8180
 6252TIP3    H240248   5.124   1.368  16.119  0.9904 -0.2741 -0.5992
 6253TIP3   OH240249   3.217   0.269   3.238 -0.2583  0.3456 -0.0640
 6253TIP3    H140250   3.240   0.183   3.203  0.8950  0.7466 -0.3640
 6253TIP3    H240251   3.129   0.286   3.205 -0.2243 -0.4250 -0.5723
 6254TIP3   OH240252   3.954   1.390  11.602 -0.8388  0.3852  0.4050
 6254TIP3    H140253   4.005   1.468  11.624  1.4520 -1.3836  1.7341
 6254TIP3    H240254   4.009   1.343  11.540 -0.4246 -1.9085  2.3876
 6255TIP3   OH240255   3.028   6.161  15.447 -0.0138  0.2150 -0.1575
 6255TIP3    H140256   3.100   6.209  15.406  0.1995  0.3006  0.3127
 6255TIP3    H240257   2.949   6.201  15.411  0.1188 -1.5118 -2.6400
 6256TIP3   OH240258   4.677   3.278   2.426  0.4611  0.2673  0.0731
 6256TIP3    H140259   4.650   3.369   2.435  1.4653  0.5469  0.4024
 6256TIP3    H240260   4.680   3.244   2.515  0.1656 -0.0652 -0.0412
 6257TIP3   OH240261   6.193   1.413  15.782  0.0092 -0.1894 -0.6866
 6257TIP3    H140262   6.259   1.483  15.784  1.0295 -1.0785 -1.6479
 6257TIP3    H240263   6.210   1.364  15.862  1.4880 -1.2208 -1.5775
 6258TIP3   OH240264   4.222   4.519   1.766  0.2432 -0.5278 -0.6399
 6258TIP3    H140265   4.130   4.490   1.770  0.6251 -1.6871  0.6450
 6258TIP3    H240266   4.271   4.438   1.755  1.2754 -0.2852  1.6275
 6259TIP3   OH240267   5.506   5.085  16.871 -0.0608 -0.1144  0.0575
 6259TIP3    H140268   5.564   5.065  16.944 -1.5410  0.7597  1.5489
 6259TIP3    H240269   5.510   5.007  16.815  3.9291  0.6084 -0.9576
 6260TIP3   OH240270   2.019   1.811   0.715 -0.5696  0.3078 -0.5726
 6260TIP3    H140271   2.104   1.772   0.693  0.2709  1.1694  0.9826
 6260TIP3    H240272   1.956   1.740   0.703  0.4448 -0.5283 -1.1587
 6261TIP3   OH240273   3.833   2.861   2.767  0.1574  0.2001 -0.4757
 6261TIP3    H140274   3.789   2.945   2.772 -1.2356 -0.5373  0.4422
 6261TIP3    H240275   3.919   2.877   2.806  0.3747  1.4454 -1.4068
 6262TIP3   OH240276   1.734   3.337  14.060 -0.4336 -0.4948  0.1307
 6262TIP3    H140277   1.648   3.373  14.083  1.1491  1.0579  4.8122
 6262TIP3    H240278   1.778   3.409  14.013  0.0333  0.9632  2.6059
 6263TIP3   OH240279   4.392   2.326   0.012  0.0020  0.0710 -0.6870
 6263TIP3    H140280   4.446   2.292  -0.060 -0.1859 -1.0611 -0.3087
 6263TIP3    H240281   4.445   2.311   0.090  0.2583  1.4177 -0.5832
 6264TIP3   OH240282   3.025   5.153  12.853 -0.4095  0.0636  0.3378
 6264TIP3    H140283   3.066   5.082  12.803 -4.1658 -0.8479 -1.7928
 6264TIP3    H240284   3.015   5.116  12.941 -2.7260 -2.4650 -0.8253
 6265TIP3   OH240285   5.375   4.894   1.481 -0.3972  0.3781  0.2358
 6265TIP3    H140286   5.379   4.975   1.532  0.2375  1.2998 -1.2112
 6265TIP3    H240287   5.285   4.892   1.447 -0.0594  1.1312 -0.7271
 6266TIP3   OH240288   6.022   0.323  12.688  0.3829  0.0620  0.5407
 6266TIP3    H140289   5.955   0.390  12.700  0.4618  0.3667 -0.6089
 6266TIP3    H240290   5.975   0.241  12.695 -0.6288  0.2618 -2.6374
 6267TIP3   OH240291   3.082   6.729   3.516 -0.3930  0.1920  0.4126
 6267TIP3    H140292   3.115   6.706   3.430 -1.7587  0.1729 -0.1388
 6267TIP3    H240293   3.145   6.692   3.577 -0.4469 -1.5940 -0.5286
 6268TIP3   OH240294   4.463   3.891   4.599  0.1735 -0.2705  0.5619
 6268TIP3    H140295   4.484   3.887   4.692  2.2168 -0.9276  0.1276
 6268TIP3    H240296   4.469   3.984   4.577  0.7049 -0.2281  0.8766
 6269TIP3   OH240297   3.977   1.367  10.935 -0.0919 -0.1337  0.1215
 6269TIP3    H140298   4.026   1.351  10.855 -1.2366 -0.7304 -0.4974
 6269TIP3    H240299   3.965   1.462  10.938 -0.4768 -0.1545 -0.6911
 6270TIP3   OH240300   6.539   4.599   6.121 -0.1710  0.4340  0.0137
 6270TIP3    H140301   6.600   4.591   6.193  0.0422 -0.1443 -0.2225
 6270TIP3    H240302   6.459   4.555   6.152 -0.1339  0.3274 -0.0402
 6271TIP3   OH240303   0.381   6.167  14.383 -0.5781  0.1513 -0.2446
 6271TIP3    H140304   0.347   6.257  14.389  0.4092  0.4708  0.9836
 6271TIP3    H240305   0.317   6.121  14.328 -1.8277  1.2693  0.2058
 6272TIP3   OH240306   0.946   5.666  13.188  0.1071  0.6937  0.4250
 6272TIP3    H140307   1.034   5.652  13.153 -0.2655  1.4260 -0.8311
 6272TIP3    H240308   0.907   5.578  13.191 -0.1717  0.6847 -1.9109
 6273TIP3   OH240309   1.008   6.224   5.778  0.1303  0.7659 -0.3584
 6273TIP3    H140310   0.938   6.161   5.758  1.3392 -0.3504 -1.2683
 6273TIP3    H240311   0.985   6.259   5.863 -1.2691  0.0290 -0.4019
 6274TIP3   OH240312   1.483   3.905  14.639  0.3594  0.1080  0.8878
 6274TIP3    H140313   1.466   3.936  14.728 -0.7083 -1.2165  1.1679
 6274TIP3    H240314   1.411   3.939  14.587  1.3744  1.5129  0.3387
 6275TIP3   OH240315   2.895   2.451   0.955  0.2224 -0.1677  0.0675
 6275TIP3    H140316   2.908   2.422   1.045 -0.8299  0.3471  0.4046
 6275TIP3    H240317   2.834   2.525   0.962  0.0853 -0.1504 -1.0721
 6276TIP3   OH240318   2.780   4.279  11.714  0.1265  0.2626  0.2562
 6276TIP3    H140319   2.859   4.227  11.727 -0.2961 -0.6869 -0.8461
 6276TIP3    H240320   2.739   4.242  11.636 -2.1065 -0.1727  1.5292
 6277TIP3   OH240321   3.890   5.740  12.867 -0.0945  0.5354  0.4325
 6277TIP3    H140322   3.797   5.753  12.882  0.2221  0.7100  2.5373
 6277TIP3    H240323   3.894   5.678  12.794 -1.8882 -0.9968  1.5526
 6278TIP3   OH240324   0.252   2.848  14.201  0.5520 -0.6273  0.2744
 6278TIP3    H140325   0.278   2.795  14.126  0.4077 -0.1454 -0.1311
 6278TIP3    H240326   0.320   2.915  14.208 -0.4882  0.5985 -0.7541
 6279TIP3   OH240327   5.983   1.283   0.630 -0.1408  0.8224 -0.2312
 6279TIP3    H140328   5.914   1.224   0.660  1.0000  0.2567  1.4088
 6279TIP3    H240329   6.006   1.251   0.543 -0.3644 -0.4127  0.1412
 6280TIP3   OH240330   4.428   4.830   4.195  0.1944  0.3557  0.3634
 6280TIP3    H140331   4.347   4.827   4.143  1.2573  1.3168 -1.4669
 6280TIP3    H240332   4.445   4.923   4.207  2.5823  0.3598 -2.0027
 6281TIP3   OH240333   0.542   0.525  17.036  0.0772 -0.3786  0.2218
 6281TIP3    H140334   0.500   0.575  16.966  2.5429  1.3116 -0.1753
 6281TIP3    H240335   0.471   0.473  17.074 -2.2263  1.8843 -0.6955
 6282TIP3   OH240336   6.408   4.177   1.385  0.6901 -0.0880  0.1632
 6282TIP3    H140337   6.343   4.189   1.316 -1.1973 -1.8518  1.5073
 6282TIP3    H240338   6.464   4.106   1.354  0.3546 -0.3255  0.1016
 6283TIP3   OH240339   5.769   5.836   0.980  0.8346 -0.1346 -0.4144
 6283TIP3    H140340   5.707   5.900   0.946 -0.6066 -0.6613  1.0727
 6283TIP3    H240341   5.811   5.879   1.054  0.1208 -0.7605  0.3698
 6284TIP3   OH240342   1.893   2.825  13.576 -0.5507 -0.0474 -0.3118
 6284TIP3    H140343   1.907   2.876  13.655  0.8765 -1.6487  0.5398
 6284TIP3    H240344   1.959   2.858  13.514  0.2724 -0.7104  0.1871
 6285TIP3   OH240345   3.959   1.012   5.539  0.8208 -0.5740  0.3018
 6285TIP3    H140346   3.960   0.916   5.548  0.0144 -0.5303  1.0384
 6285TIP3    H240347   3.994   1.044   5.622 -0.2700 -0.2205  0.6430
 6286TIP3   OH240348   3.742   3.870   1.080  0.4766 -0.0763 -0.0534
 6286TIP3    H140349   3.753   3.870   0.985  1.6802 -1.0772  0.0563
 6286TIP3    H240350   3.711   3.781   1.101 -1.6065  0.6894  0.3392
 6287TIP3   OH240351   0.964   1.884  14.296  0.3662  0.5944  0.2594
 6287TIP3    H140352   0.871   1.900  14.312 -0.0604 -1.3779  0.0442
 6287TIP3    H240353   0.988   1.814  14.358  0.4486 -2.2174 -2.6672
 6288TIP3   OH240354   4.368   0.186  13.006  0.7396  0.2338  0.1026
 6288TIP3    H140355   4.452   0.188  12.959  0.8456 -0.5089  0.2476
 6288TIP3    H240356   4.389   0.217  13.094  1.0716 -0.8508  0.4294
 6289TIP3   OH240357   3.485   1.831  12.434  0.6084  0.0376 -0.1959
 6289TIP3    H140358   3.554   1.776  12.397  1.4074 -0.2497  1.6136
 6289TIP3    H240359   3.439   1.775  12.496 -0.8560  0.4235 -0.9014
 6290TIP3   OH240360   4.402   1.472   4.864 -0.3242  0.5057 -0.2774
 6290TIP3    H140361   4.478   1.499   4.914 -0.1785  0.2199 -0.3384
 6290TIP3    H240362   4.401   1.530   4.788  0.6994 -0.4452 -1.0451
 6291TIP3   OH240363   0.789   5.442  13.205 -0.4050  0.1361 -0.4097
 6291TIP3    H140364   0.722   5.410  13.265  1.4143 -2.4124  0.4508
 6291TIP3    H240365   0.760   5.414  13.118 -1.7125  1.4685 -0.4489
 6292TIP3   OH240366   1.384   4.575   1.300  0.5002  0.5016 -0.1799
 6292TIP3    H140367   1.367   4.512   1.370 -0.2645  0.8780 -0.0158
 6292TIP3    H240368   1.411   4.521   1.226  0.3242  0.0184  0.0977
 6293TIP3   OH240369   5.003   5.914  13.590 -0.0255 -0.2602 -0.7470
 6293TIP3    H140370   4.950   5.994  13.594  0.2025 -0.1628  1.8344
 6293TIP3    H240371   4.939   5.843  13.585 -0.5105 -0.1307  2.1368
 6294TIP3   OH240372   5.612   3.367  16.123 -0.1668 -0.3663  0.0883
 6294TIP3    H140373   5.519   3.390  16.121 -0.4618 -1.5250 -1.5422
 6294TIP3    H240374   5.621   3.310  16.200 -1.0286 -1.0233 -0.2794
 6295TIP3   OH240375   2.927   3.338   5.806 -0.2783 -0.2855  0.4241
 6295TIP3    H140376   2.960   3.299   5.887 -1.7355 -3.1976 -0.2435
 6295TIP3    H240377   2.966   3.285   5.737  0.6439  1.9159 -0.8512
 6296TIP3   OH240378   1.872   4.660   2.870  0.2129  0.2923  0.4334
 6296TIP3    H140379   1.893   4.744   2.830  0.5473  0.8202  1.6684
 6296TIP3    H240380   1.778   4.648   2.853  0.4545  0.2217 -0.9533
 6297TIP3   OH240381   0.759   2.690   6.527  0.0977 -0.2950  0.0387
 6297TIP3    H140382   0.676   2.668   6.484 -0.8167 -1.3660  2.2261
 6297TIP3    H240383   0.733   2.745   6.601  1.1513 -1.7216  1.5324
 6298TIP3   OH240384   5.440   2.503   0.674  0.2381 -0.1898 -0.2283
 6298TIP3    H140385   5.516   2.446   0.683 -0.0559 -0.6336 -0.5135
 6298TIP3    H240386   5.472   2.590   0.698 -0.0477 -0.9146  3.3637
 6299TIP3   OH240387   6.177   4.417   4.692 -0.2505  0.2810 -0.0322
 6299TIP3    H140388   6.137   4.443   4.609 -1.7408 -0.8328  0.2903
 6299TIP3    H240389   6.143   4.479   4.756  2.6072  2.5480 -0.4950
 6300TIP3   OH240390   1.152   1.028  15.429  0.7347 -0.2564  0.2830
 6300TIP3    H140391   1.209   0.964  15.386 -0.1142 -1.0746  0.3358
 6300TIP3    H240392   1.127   0.986  15.512 -0.4995 -0.2405 -0.0549
 6301TIP3   OH240393   3.305   0.377  10.897  0.3042  0.6921  0.0859
 6301TIP3    H140394   3.304   0.437  10.823  1.7728  0.6673  0.0211
 6301TIP3    H240395   3.397   0.362  10.915  0.0023  0.8875  2.0797
 6302TIP3   OH240396   0.396   0.058   1.575 -0.5624  0.2623 -1.0394
 6302TIP3    H140397   0.369   0.000   1.503 -0.4046 -0.4575 -0.5223
 6302TIP3    H240398   0.316   0.071   1.625 -0.1005 -1.5050  0.2352
 6303TIP3   OH240399   0.126   5.695  12.106 -0.0110 -0.4686 -0.2896
 6303TIP3    H140400   0.147   5.611  12.147 -0.5546 -0.6721 -0.4172
 6303TIP3    H240401   0.050   5.676  12.051 -0.2025  0.1349 -0.2345
 6304TIP3   OH240402   4.082   2.852   5.388 -0.3607 -0.0778 -0.1729
 6304TIP3    H140403   4.173   2.871   5.368 -0.3639 -0.1202 -0.2285
 6304TIP3    H240404   4.056   2.787   5.323  0.2529 -1.8336  1.2566
 6305TIP3   OH240405   2.255   5.383  11.885 -0.2495  0.2407  0.2446
 6305TIP3    H140406   2.317   5.436  11.835  0.0305  0.2511  0.6010
 6305TIP3    H240407   2.234   5.435  11.962  1.9809 -1.1438  1.9349
 6306TIP3   OH240408   2.657   0.736   2.648  0.4545  0.5130  0.6372
 6306TIP3    H140409   2.617   0.685   2.577 -1.0292  1.0119  1.0663
 6306TIP3    H240410   2.671   0.823   2.609  2.8432 -0.1126 -0.0495
 6307TIP3   OH240411   2.862   4.302  12.522  0.5601 -0.0496  1.2795
 6307TIP3    H140412   2.933   4.365  12.538 -0.4110  0.9862  1.5759
 6307TIP3    H240413   2.858   4.250  12.603  0.7712  0.0900  1.3819
 6308TIP3   OH240414   1.974   4.873   0.088  0.3792  0.6667 -0.3604
 6308TIP3    H140415   2.067   4.864   0.108  0.5297  1.7705 -0.5233
 6308TIP3    H240416   1.942   4.783   0.084  0.9440  0.2956  1.9564
 6309TIP3   OH240417   3.000   0.707  14.839 -0.8185  0.0265 -0.0155
 6309TIP3    H140418   3.041   0.781  14.883 -1.2272 -0.4685  1.2181
 6309TIP3    H240419   3.025   0.717  14.747  1.4459  0.1413  0.5683
 6310TIP3   OH240420   0.752   1.548   0.834 -0.5665 -0.8713 -0.7215
 6310TIP3    H140421   0.741   1.572   0.741 -0.8165 -1.0946 -0.7514
 6310TIP3    H240422   0.756   1.632   0.879  0.9320 -0.7309 -1.0735
 6311TIP3   OH240423   2.689   2.818   2.335  0.1776  0.2125  0.1649
 6311TIP3    H140424   2.731   2.836   2.419 -0.5262  1.1717  0.3245
 6311TIP3    H240425   2.624   2.751   2.354  1.8419 -1.5669 -0.1549
 6312TIP3   OH240426   0.595   6.817   0.879 -0.0534 -0.0019  0.0949
 6312TIP3    H140427   0.573   6.725   0.865  3.0077 -0.7853 -0.1461
 6312TIP3    H240428   0.600   6.826   0.975 -0.0232 -0.1598  0.1087
 6313TIP3   OH240429   3.528   0.375   3.429 -0.4991  0.6148 -0.4996
 6313TIP3    H140430   3.593   0.306   3.438 -0.6639  0.3626 -1.1572
 6313TIP3    H240431   3.537   0.428   3.508  1.1983  1.1802 -1.0323
 6314TIP3   OH240432   0.142   1.747   2.470 -0.4803  0.1535 -0.0954
 6314TIP3    H140433   0.233   1.775   2.457 -0.2921 -1.0543 -1.7336
 6314TIP3    H240434   0.101   1.821   2.515  1.1923  0.9130  0.2802
 6315TIP3   OH240435   6.232   2.602   4.700  0.0175  0.0660 -0.4736
 6315TIP3    H140436   6.184   2.521   4.719 -0.4210  0.5583  0.5866
 6315TIP3    H240437   6.322   2.583   4.725  0.0069 -0.2412 -0.6633
 6316TIP3   OH240438   3.065   4.646  14.285 -0.2418  0.2654  0.2427
 6316TIP3    H140439   3.137   4.611  14.337  1.7969 -0.7788 -3.0280
 6316TIP3    H240440   3.016   4.569  14.257 -1.6241  0.8462  0.9356
 6317TIP3   OH240441   3.805   5.188  17.233  0.0058  0.8474  0.2115
 6317TIP3    H140442   3.897   5.185  17.261 -0.3587 -0.2532  1.4259
 6317TIP3    H240443   3.809   5.210  17.140  1.5191  0.3855  0.1343
 6318TIP3   OH240444   0.634   3.296   6.441  0.2539  0.2692 -0.1239
 6318TIP3    H140445   0.572   3.295   6.514 -0.4570 -1.0783 -0.7121
 6318TIP3    H240446   0.718   3.317   6.481 -0.1697 -0.1677  1.0392
 6319TIP3   OH240447   0.088   4.728   5.513 -0.2422  0.3597 -0.0202
 6319TIP3    H140448   0.077   4.816   5.477  0.5974 -0.1339 -1.5388
 6319TIP3    H240449   0.082   4.670   5.438 -2.6420 -1.0920  1.1640
 6320TIP3   OH240450   2.794   6.042   3.101 -0.1744 -0.4604  0.0220
 6320TIP3    H140451   2.878   6.079   3.126 -0.7748  0.4495  0.7601
 6320TIP3    H240452   2.740   6.118   3.080 -0.4513 -1.0878 -1.6586
 6321TIP3   OH240453   1.492   1.682  15.317 -0.2189  0.0374 -0.4957
 6321TIP3    H140454   1.449   1.725  15.242  0.9109  0.7012 -0.7947
 6321TIP3    H240455   1.473   1.589  15.305  0.3467  0.0692 -1.9101
 6322TIP3   OH240456   3.541   1.837   0.808  0.4304 -0.6937 -0.0849
 6322TIP3    H140457   3.496   1.840   0.893  1.2894  0.9074  0.3606
 6322TIP3    H240458   3.625   1.880   0.824  0.9869 -1.1833 -1.5442
 6323TIP3   OH240459   6.734   4.319  11.083 -0.5971 -0.8168 -0.5384
 6323TIP3    H140460   6.774   4.336  11.169 -2.5049 -1.2088  0.4857
 6323TIP3    H240461   6.687   4.400  11.063 -0.0343 -0.6735 -1.2995
 6324TIP3   OH240462   2.799   0.896  15.852  0.2842  0.1099 -0.3639
 6324TIP3    H140463   2.717   0.851  15.873  0.4742 -0.6980 -1.2469
 6324TIP3    H240464   2.778   0.951  15.777  0.5991 -0.3163 -0.7755
 6325TIP3   OH240465   1.674   0.275   3.063 -0.4675  0.0267 -0.1053
 6325TIP3    H140466   1.729   0.331   3.118  0.9427 -0.7857 -0.6136
 6325TIP3    H240467   1.586   0.310   3.072  0.1545  1.4607  0.6614
 6326TIP3   OH240468   1.078   0.351   3.566  0.1206 -0.0790  0.6925
 6326TIP3    H140469   1.012   0.349   3.496  0.4312 -1.0708  0.4136
 6326TIP3    H240470   1.157   0.314   3.526  0.5745  0.2059  1.3056
 6327TIP3   OH240471   3.202   5.054  16.927  0.4443  0.1931 -0.1686
 6327TIP3    H140472   3.218   5.005  16.846  0.8036 -0.5809  0.3552
 6327TIP3    H240473   3.232   4.995  16.996  1.5492  1.4338  0.4551
 6328TIP3   OH240474   2.663   1.958   0.470 -0.3395 -0.1954  0.9621
 6328TIP3    H140475   2.721   1.953   0.546  2.5026 -1.5985 -1.1142
 6328TIP3    H240476   2.688   2.040   0.427 -1.2209  0.0818  0.9505
 6329TIP3   OH240477   5.259   4.818   4.889  0.4111  0.6185 -0.0017
 6329TIP3    H140478   5.263   4.763   4.967  0.4095 -0.1874 -0.5550
 6329TIP3    H240479   5.181   4.787   4.842  0.2467  1.2891 -0.1847
 6330TIP3   OH240480   4.012   3.341   2.160 -0.3279 -0.1586 -0.3504
 6330TIP3    H140481   3.959   3.294   2.225  1.6559 -1.2586  0.5610
 6330TIP3    H240482   4.076   3.276   2.131  0.2180  0.9831 -1.7800
 6331TIP3   OH240483   6.723   6.722  16.780  0.4778  0.1718  0.6881
 6331TIP3    H140484   6.764   6.799  16.821  1.4667  0.1693 -0.2419
 6331TIP3    H240485   6.792   6.655  16.782 -0.0739 -0.4040  0.6701
 6332TIP3   OH240486   5.504   1.164  16.261 -0.6589  0.5529  0.2424
 6332TIP3    H140487   5.532   1.073  16.265  0.1584  0.8153  1.1737
 6332TIP3    H240488   5.468   1.175  16.173 -0.0956 -0.4751 -0.1342
 6333TIP3   OH240489   0.400   5.608   2.686 -0.4950  0.7883  0.5907
 6333TIP3    H140490   0.455   5.642   2.615  1.4187 -0.1969  1.5334
 6333TIP3    H240491   0.433   5.652   2.764 -0.1691 -0.7709  1.3573
 6334TIP3   OH240492   1.677   3.425   3.462 -0.5464  0.1445  0.3336
 6334TIP3    H140493   1.680   3.345   3.409 -0.4511  0.8052 -0.6776
 6334TIP3    H240494   1.740   3.410   3.532 -0.0150 -0.3833 -0.2507
 6335TIP3   OH240495   0.721   4.876  14.547 -0.0733 -0.2906 -0.6406
 6335TIP3    H140496   0.627   4.893  14.537 -0.1625  0.3644  1.0291
 6335TIP3    H240497   0.727   4.820  14.624  0.9651  0.6296 -0.0214
 6336TIP3   OH240498   3.896   6.771  12.157  0.1960  0.2163 -0.5616
 6336TIP3    H140499   3.819   6.733  12.114 -0.9504  0.2496  1.3563
 6336TIP3    H240500   3.885   6.866  12.147 -1.6408  0.4092  2.1439
 6337TIP3   OH240501   5.123   6.479   3.686 -0.1005 -0.0445  0.1636
 6337TIP3    H140502   5.151   6.521   3.767 -2.0446 -2.0408  2.0170
 6337TIP3    H240503   5.048   6.531   3.657  0.3614  0.4485 -0.1583
 6338TIP3   OH240504   1.567   3.184  11.575 -0.5635 -0.1003  0.3817
 6338TIP3    H140505   1.642   3.215  11.523 -0.2617 -0.3458  0.6642
 6338TIP3    H240506   1.569   3.089  11.564 -1.0699 -0.0767  0.0756
 6339TIP3   OH240507   0.613   2.558  12.397  0.1343 -0.7631 -0.0667
 6339TIP3    H140508   0.618   2.501  12.321  0.4715 -0.3906 -0.3261
 6339TIP3    H240509   0.591   2.499  12.469  1.4542 -1.4015 -0.1440
 6340TIP3   OH240510   1.684   0.701   2.913  0.3895 -0.2802 -0.2729
 6340TIP3    H140511   1.742   0.700   2.988 -0.5756 -0.6115  0.4916
 6340TIP3    H240512   1.714   0.775   2.859  0.9487  0.0957  0.5450
 6341TIP3   OH240513   2.102   4.011  12.654 -0.1499 -1.0055  0.5791
 6341TIP3    H140514   2.131   4.086  12.602  0.1982  0.3966  2.6886
 6341TIP3    H240515   2.160   3.939  12.627  0.0878 -0.3080 -0.8404
 6342TIP3   OH240516   1.960   0.913  11.837  0.2720 -0.1858 -0.6660
 6342TIP3    H140517   1.958   0.822  11.807  2.3655 -0.9543  1.2234
 6342TIP3    H240518   1.878   0.951  11.804 -1.0702 -2.9646 -0.8516
 6343TIP3   OH240519   1.759   2.327  11.450  0.4990  0.0019  0.4295
 6343TIP3    H140520   1.757   2.299  11.358  0.5985 -1.3339  0.8143
 6343TIP3    H240521   1.808   2.409  11.449 -0.4734  0.6075 -0.8510
 6344TIP3   OH240522   0.839   3.731   3.830  0.0368  0.1661 -0.1720
 6344TIP3    H140523   0.850   3.669   3.758 -0.0853  0.1492 -0.1763
 6344TIP3    H240524   0.928   3.747   3.861 -0.0096 -0.9426  0.6084
 6345TIP3   OH240525   2.690   3.425  11.147 -0.1423  0.4423 -0.6917
 6345TIP3    H140526   2.679   3.379  11.064 -1.2404  0.3839 -0.5193
 6345TIP3    H240527   2.626   3.496  11.145 -0.7922 -0.0863  0.4584
 6346TIP3   OH240528   5.310   5.919  14.974 -0.0548  0.6674 -0.4645
 6346TIP3    H140529   5.244   5.850  14.978  1.2196 -0.5852 -0.2331
 6346TIP3    H240530   5.386   5.877  14.935  1.3556  1.4588  1.2950
 6347TIP3   OH240531   4.455   1.853  14.463  0.5343 -0.2027 -0.0867
 6347TIP3    H140532   4.363   1.845  14.490  0.5106 -1.2239 -0.4477
 6347TIP3    H240533   4.490   1.765  14.470  0.7271 -0.3916 -2.6442
 6348TIP3   OH240534   5.797   4.332  10.725  0.4514  0.1937 -0.3023
 6348TIP3    H140535   5.707   4.359  10.740  0.5243  0.2453  0.0529
 6348TIP3    H240536   5.823   4.377  10.645  0.5728  1.1760  0.2797
 6349TIP3   OH240537   0.616   3.410   0.926  0.1147 -0.1460 -0.4701
 6349TIP3    H140538   0.641   3.434   0.837  1.6442 -0.4945 -0.1700
 6349TIP3    H240539   0.697   3.419   0.977 -1.2760  2.7950  1.5189
 6350TIP3   OH240540   2.883   3.509   3.930  0.5085 -0.1695  0.3938
 6350TIP3    H140541   2.821   3.578   3.952 -0.0178 -0.5950  0.2459
 6350TIP3    H240542   2.884   3.506   3.835  0.9503  0.0029  0.3875
 6351TIP3   OH240543   0.219   0.960  15.426 -0.0198 -0.0123  0.2314
 6351TIP3    H140544   0.236   1.052  15.405 -1.6716  0.1155 -0.7376
 6351TIP3    H240545   0.285   0.911  15.377 -0.0355  0.5975 -0.4128
 6352TIP3   OH240546   1.667   4.004  16.504 -0.0237  0.4328 -0.5018
 6352TIP3    H140547   1.584   4.050  16.492  0.4473  1.9666  1.4915
 6352TIP3    H240548   1.724   4.068  16.547  1.7092 -1.0585 -0.4357
 6353TIP3   OH240549   3.236   1.890  16.095  0.1885 -0.3864  0.1873
 6353TIP3    H140550   3.213   1.838  16.018  1.5017 -0.0389 -0.4700
 6353TIP3    H240551   3.273   1.827  16.156  0.8015 -0.4013 -0.1899
 6354TIP3   OH240552   4.580   1.432  13.913  0.7155 -0.1471 -0.1198
 6354TIP3    H140553   4.542   1.520  13.912 -1.8360 -1.1640 -0.1334
 6354TIP3    H240554   4.521   1.381  13.968  1.0978 -2.2628 -1.5351
 6355TIP3   OH240555   5.540   3.825   2.238 -0.1090  0.2775 -0.3416
 6355TIP3    H140556   5.607   3.886   2.209 -0.8528  1.4561  0.3292
 6355TIP3    H240557   5.532   3.841   2.332 -1.4912  0.3343 -0.4442
 6356TIP3   OH240558   1.969   0.755  14.918 -0.4854 -0.5308  0.1746
 6356TIP3    H140559   1.923   0.684  14.963 -0.5524 -0.6034 -0.0079
 6356TIP3    H240560   2.007   0.714  14.841 -1.8360 -0.0544 -0.7743
 6357TIP3   OH240561   3.314   3.150   3.281 -0.4201 -0.7640 -0.5338
 6357TIP3    H140562   3.245   3.200   3.237 -0.5472 -0.8700 -0.4556
 6357TIP3    H240563   3.267   3.083   3.330 -0.2401 -1.1716 -0.9053
 6358TIP3   OH240564   5.595   6.629   4.217  0.4861 -0.1869  0.2418
 6358TIP3    H140565   5.536   6.554   4.231  0.3233 -0.3717 -1.2537
 6358TIP3    H240566   5.550   6.703   4.257 -0.0850 -0.5934  0.3634
 6359TIP3   OH240567   4.390   1.121   0.959 -0.3933 -0.2296  0.4893
 6359TIP3    H140568   4.321   1.056   0.976  0.2402 -0.6708  1.4640
 6359TIP3    H240569   4.369   1.156   0.873 -0.9463 -1.4867  0.0947
 6360TIP3   OH240570   2.302   0.133   2.349  0.2460 -0.2090 -0.2476
 6360TIP3    H140571   2.264   0.047   2.331  1.7887 -0.7569 -1.0517
 6360TIP3    H240572   2.229   0.194   2.340 -0.5007 -1.2428 -1.4868
 6361TIP3   OH240573   4.194   2.669  14.484 -0.1295  0.0618  0.1845
 6361TIP3    H140574   4.112   2.681  14.437 -0.1479  1.0420  0.4427
 6361TIP3    H240575   4.257   2.644  14.417 -0.4141  0.2998 -0.1720
 6362TIP3   OH240576   5.134   4.478   0.799 -0.1245 -0.0509 -0.2818
 6362TIP3    H140577   5.197   4.453   0.732 -1.1725 -0.4268 -1.1602
 6362TIP3    H240578   5.122   4.400   0.852 -1.1358 -0.5270 -1.1816
 6363TIP3   OH240579   2.353   4.894   5.578  0.3974 -0.1131 -0.4439
 6363TIP3    H140580   2.345   4.801   5.557 -2.6145 -0.4515  1.5208
 6363TIP3    H240581   2.445   4.906   5.601  0.5304 -3.0726  1.0332
 6364TIP3   OH240582   4.377   4.763  11.781 -0.2697  0.2301  0.2280
 6364TIP3    H140583   4.298   4.817  11.778  0.3660  1.1400 -1.3080
 6364TIP3    H240584   4.431   4.796  11.709  0.6273 -1.7472 -0.0498
 6365TIP3   OH240585   4.764   3.608  14.473  0.4160 -0.4407 -0.2049
 6365TIP3    H140586   4.810   3.657  14.541 -0.0357 -0.7119  0.3085
 6365TIP3    H240587   4.716   3.540  14.521 -0.0386 -0.5372 -0.7813
 6366TIP3   OH240588   3.229   1.135   0.553  0.3174  0.2212 -0.2483
 6366TIP3    H140589   3.138   1.164   0.547 -0.2634 -1.7078 -2.2571
 6366TIP3    H240590   3.231   1.075   0.627 -0.4221 -0.7746 -1.0062
 6367TIP3   OH240591   5.658   2.078  15.416 -0.6078 -0.0354  0.6761
 6367TIP3    H140592   5.580   2.043  15.374 -0.9754  1.5086  0.0030
 6367TIP3    H240593   5.688   2.147  15.357  0.3992  0.4197  1.6796
 6368TIP3   OH240594   3.199   3.459  15.405 -0.0340 -0.1581  0.1788
 6368TIP3    H140595   3.159   3.407  15.475 -1.7326  0.0673 -0.5872
 6368TIP3    H240596   3.213   3.396  15.334 -0.5854  0.0902 -0.1563
 6369TIP3   OH240597   2.198   6.250   0.317  0.9678  0.2649  0.2438
 6369TIP3    H140598   2.187   6.344   0.335  2.5574  0.2835  1.3711
 6369TIP3    H240599   2.135   6.231   0.247  0.4812  2.1276  0.1240
 6370TIP3   OH240600   3.333   6.332  12.624  0.5260  0.1776  0.5956
 6370TIP3    H140601   3.305   6.244  12.649  0.2499  0.8069  2.7061
 6370TIP3    H240602   3.263   6.389  12.655  1.7108  1.3160  1.2670
 6371TIP3   OH240603   2.312   2.450   1.680 -1.0522  0.0117  0.7403
 6371TIP3    H140604   2.268   2.524   1.721 -0.9339  0.0083  0.8748
 6371TIP3    H240605   2.392   2.439   1.731 -1.2126 -0.3979  0.9084
 6372TIP3   OH240606   1.142   4.191   5.781  0.0365 -0.7086 -0.2130
 6372TIP3    H140607   1.081   4.246   5.831 -0.3152 -0.0422 -1.3323
 6372TIP3    H240608   1.210   4.252   5.752  0.4162 -1.1538 -0.2528
 6373TIP3   OH240609   2.585   3.678   2.612 -0.2535 -0.2827 -0.5876
 6373TIP3    H140610   2.501   3.667   2.655  0.6579  0.4615  1.4959
 6373TIP3    H240611   2.578   3.764   2.569 -0.0863  0.4721  0.8326
 6374TIP3   OH240612   6.008   5.392   1.623 -0.2380 -0.2847 -0.1108
 6374TIP3    H140613   6.014   5.310   1.574  0.8913 -0.5180  0.3844
 6374TIP3    H240614   5.961   5.369   1.702 -0.7155 -0.2466 -0.3789
 6375TIP3   OH240615   1.789   6.215   3.372 -0.1880 -0.6041 -0.4297
 6375TIP3    H140616   1.870   6.243   3.330  0.5574 -0.5189  0.9869
 6375TIP3    H240617   1.727   6.286   3.353  0.7276  0.4438  0.3334
 6376TIP3   OH240618   4.582   3.591   1.557 -0.2272  0.0673  0.8904
 6376TIP3    H140619   4.556   3.519   1.499  0.3152  0.7829 -0.2768
 6376TIP3    H240620   4.565   3.558   1.646 -1.9879 -0.6912  0.3126
 6377TIP3   OH240621   1.255   5.903  13.720 -0.0393 -0.4119 -0.1034
 6377TIP3    H140622   1.267   5.957  13.642 -3.5043  3.2060  1.4970
 6377TIP3    H240623   1.304   5.950  13.788 -0.7816 -0.9142  0.7919
 6378TIP3   OH240624   4.953   6.421   5.416 -0.8880 -0.0573 -0.5430
 6378TIP3    H140625   4.921   6.426   5.507  1.4101 -2.5754  0.5216
 6378TIP3    H240626   4.946   6.329   5.393  0.2186  0.2623 -2.3282
 6379TIP3   OH240627   4.006   1.903   5.915 -0.6369 -0.1420 -0.0821
 6379TIP3    H140628   3.936   1.913   5.980 -0.5698  0.0279 -0.0336
 6379TIP3    H240629   4.073   1.965   5.944  0.0376 -1.1371  0.5349
 6380TIP3   OH240630   6.111   0.093  15.508 -0.0239  0.1402 -0.4220
 6380TIP3    H140631   6.072   0.011  15.537  2.5399 -1.1291 -0.2078
 6380TIP3    H240632   6.188   0.066  15.457 -0.6519  2.4094 -2.7760
 6381TIP3   OH240633   5.359   5.809  15.539 -0.1549  0.3327  0.2957
 6381TIP3    H140634   5.400   5.894  15.552  0.7793  0.4199 -2.4803
 6381TIP3    H240635   5.314   5.816  15.454  0.0867 -1.9533 -0.1091
 6382TIP3   OH240636   0.318   4.602  13.189 -0.1141  0.3034  0.3102
 6382TIP3    H140637   0.234   4.601  13.143  0.1058 -0.6894 -0.0933
 6382TIP3    H240638   0.356   4.687  13.167 -0.3528  0.1540 -0.7358
 6383TIP3   OH240639   2.262   5.089  12.281  0.6459  0.0727  0.0025
 6383TIP3    H140640   2.285   5.141  12.359 -0.1413  0.3806  0.0420
 6383TIP3    H240641   2.201   5.023  12.314  0.2857  0.2234 -0.3597
 6384TIP3   OH240642   5.418   0.899  15.201 -0.0119  0.4000 -0.5608
 6384TIP3    H140643   5.500   0.898  15.251 -0.8115 -2.0713  0.8965
 6384TIP3    H240644   5.433   0.839  15.129 -0.2270  0.7084 -0.8631
 6385TIP3   OH240645   6.402   3.942   4.560  0.3973 -0.0500 -0.7401
 6385TIP3    H140646   6.397   3.979   4.648  1.9207  0.1925 -0.7328
 6385TIP3    H240647   6.349   4.001   4.506 -0.4520 -0.1421 -0.0090
 6386TIP3   OH240648   6.691   6.536  14.889 -0.7715 -0.0888 -0.2177
 6386TIP3    H140649   6.743   6.484  14.827 -0.9942 -0.3685 -0.1725
 6386TIP3    H240650   6.728   6.624  14.884  0.3074 -0.4888  0.4895
 6387TIP3   OH240651   2.437   3.168  16.202  0.8918  0.7663 -0.1237
 6387TIP3    H140652   2.526   3.140  16.225  0.9548  0.4284 -0.7520
 6387TIP3    H240653   2.380   3.106  16.247  0.9946  0.5616 -0.2735
 6388TIP3   OH240654   1.671   4.366   0.433  0.0887 -0.2112  0.5726
 6388TIP3    H140655   1.692   4.311   0.508  2.4932 -0.3109 -0.1045
 6388TIP3    H240656   1.729   4.336   0.364 -0.3514  1.4922 -0.6107
 6389TIP3   OH240657   6.748   3.222  14.680 -0.2324  0.2956 -0.2955
 6389TIP3    H140658   6.768   3.182  14.765  0.1002 -0.3632 -0.6735
 6389TIP3    H240659   6.653   3.235  14.682 -0.3759 -0.6923 -0.2333
 6390TIP3   OH240660   3.089   5.492   2.824 -0.6529  0.5207 -0.4781
 6390TIP3    H140661   3.164   5.520   2.877  0.3270 -0.2209 -1.4209
 6390TIP3    H240662   3.013   5.532   2.867  0.2466  1.0889  0.6510
 6391TIP3   OH240663   6.796   3.475  12.984  0.0827 -0.0473 -0.2499
 6391TIP3    H140664   6.771   3.520  12.904 -0.2354 -0.0574 -0.1582
 6391TIP3    H240665   6.806   3.544  13.050 -2.6384 -0.2495  0.4889
 6392TIP3   OH240666   6.118   5.992   1.426  0.0738  0.1982  0.2486
 6392TIP3    H140667   6.026   6.008   1.406  0.0883 -0.6980 -0.5946
 6392TIP3    H240668   6.121   5.901   1.455  0.3533  0.8926  2.6517
 6393TIP3   OH240669   2.760   2.763  12.072 -0.2327 -0.2996 -0.3064
 6393TIP3    H140670   2.671   2.733  12.056 -0.5449 -0.9722  2.2071
 6393TIP3    H240671   2.786   2.719  12.153  2.5491 -0.4168 -1.1443
 6394TIP3   OH240672   6.016   4.137   4.286  0.2018 -0.8728  0.1439
 6394TIP3    H140673   5.946   4.193   4.256  1.4028  0.7672  0.2740
 6394TIP3    H240674   6.013   4.061   4.228 -1.1026 -0.4166 -0.4067
 6395TIP3   OH240675   3.156   1.030  16.052 -0.4773  0.3234  0.0213
 6395TIP3    H140676   3.224   1.093  16.077  2.4386 -2.7512  0.4947
 6395TIP3    H240677   3.183   0.999  15.965 -1.4520 -0.7768  0.0893
 6396TIP3   OH240678   3.711   5.381  10.702 -0.5938 -0.5257 -0.1959
 6396TIP3    H140679   3.712   5.308  10.764  4.2849  0.4247  1.3400
 6396TIP3    H240680   3.654   5.446  10.742 -2.5549 -2.2384 -0.0467
 6397TIP3   OH240681   3.440   4.305   3.315 -0.7343  0.2397  0.0118
 6397TIP3    H140682   3.423   4.211   3.323 -0.6992  0.2603  0.3197
 6397TIP3    H240683   3.526   4.317   3.356 -1.2978  0.6095  1.1004
 6398TIP3   OH240684   5.250   0.783   0.043  0.0426  0.2266 -0.5877
 6398TIP3    H140685   5.343   0.801   0.056  0.0921 -0.6357  0.3158
 6398TIP3    H240686   5.248   0.709  -0.017 -0.0893  0.6327 -1.0987
 6399TIP3   OH240687   0.400   3.220  13.018  0.3777 -0.1032 -0.1274
 6399TIP3    H140688   0.377   3.127  13.026  0.5495 -0.4279 -2.6418
 6399TIP3    H240689   0.390   3.240  12.925  0.9604  2.2589  0.2399
 6400TIP3   OH240690   4.319   5.483   6.329 -0.0444 -0.0148 -0.0618
 6400TIP3    H140691   4.313   5.394   6.361 -0.8465 -0.0465 -0.2844
 6400TIP3    H240692   4.364   5.476   6.244  2.3797  0.1044  1.1241
 6401TIP3   OH240693   4.804   5.291   2.470  0.4826  0.0047  0.4797
 6401TIP3    H140694   4.715   5.287   2.505  0.5159 -0.7848  0.4936
 6401TIP3    H240695   4.809   5.376   2.426 -0.9276 -0.7182 -1.2367
 6402TIP3   OH240696   2.222   4.543   1.513 -0.7093 -0.3010 -0.2482
 6402TIP3    H140697   2.226   4.639   1.516 -0.1560 -0.3220 -0.2429
 6402TIP3    H240698   2.239   4.522   1.421 -0.1978 -0.4224 -0.1253
 6403TIP3   OH240699   4.724   1.697   0.334 -0.5733  0.3871 -0.6237
 6403TIP3    H140700   4.723   1.790   0.312 -0.0946  0.3613 -0.7570
 6403TIP3    H240701   4.655   1.659   0.279 -0.0932  0.4980 -1.3082
 6404TIP3   OH240702   2.289   6.017  17.024  0.6827  0.6782 -0.3245
 6404TIP3    H140703   2.202   6.049  17.048 -0.7187 -1.1797 -2.5208
 6404TIP3    H240704   2.296   5.931  17.065  2.5760  1.7619  1.8406
 6405TIP3   OH240705   4.689   3.793  15.933  0.7437  0.1356  0.0176
 6405TIP3    H140706   4.613   3.754  15.891 -0.2760  2.8663 -0.8745
 6405TIP3    H240707   4.656   3.828  16.016  0.2630  3.5467 -1.4507
 6406TIP3   OH240708   2.483   1.842  16.239  0.6021 -0.0080  0.2337
 6406TIP3    H140709   2.441   1.808  16.161 -1.6278  0.9388  0.9214
 6406TIP3    H240710   2.415   1.839  16.306  1.1496  2.9155  1.0801
 6407TIP3   OH240711   4.974   0.016  13.082 -0.2294  0.0618  0.0433
 6407TIP3    H140712   4.915   0.091  13.084 -0.2969  0.0004  0.4716
 6407TIP3    H240713   5.052   0.045  13.129  0.7606  0.6935 -1.8896
 6408TIP3   OH240714   2.247   0.869   2.097 -0.6577  0.2236  0.5350
 6408TIP3    H140715   2.162   0.829   2.079 -1.8284  2.7142  0.1568
 6408TIP3    H240716   2.302   0.796   2.127 -2.4762 -1.7131 -0.5847
 6409TIP3   OH240717   1.664   5.635  14.053 -0.5145 -0.1153 -0.0600
 6409TIP3    H140718   1.641   5.721  14.017 -0.4336  0.0141  0.1952
 6409TIP3    H240719   1.759   5.637  14.061 -0.4757 -0.3829 -0.4365
 6410TIP3   OH240720   0.188   2.518  11.660  0.2773  0.2642 -0.4159
 6410TIP3    H140721   0.159   2.529  11.750 -0.5643  1.3265 -0.7942
 6410TIP3    H240722   0.145   2.589  11.612  3.1732  1.6988 -1.1303
 6411TIP3   OH240723   3.484   3.747  11.490 -0.2928  0.7090  0.7470
 6411TIP3    H140724   3.525   3.785  11.412  0.9592  2.7454  2.2723
 6411TIP3    H240725   3.515   3.657  11.493  2.1145  1.4686  0.4533
 6412TIP3   OH240726   3.491   6.739  13.252 -0.2162  0.6736  0.5855
 6412TIP3    H140727   3.451   6.740  13.338 -1.4149 -0.9812  0.0963
 6412TIP3    H240728   3.557   6.670  13.256 -1.8837 -1.0876 -0.4256
 6413TIP3   OH240729   2.242   6.237   2.644 -0.3454  0.4870  0.6698
 6413TIP3    H140730   2.189   6.198   2.713  0.0372  0.9980  1.2583
 6413TIP3    H240731   2.179   6.261   2.576 -0.9222  1.3377  1.4784
 6414TIP3   OH240732   1.444   5.759  15.554  0.3416 -0.0775 -0.5201
 6414TIP3    H140733   1.382   5.708  15.606 -0.3082  0.8359 -0.3788
 6414TIP3    H240734   1.454   5.709  15.472 -1.1985  0.1600 -0.8752
 6415TIP3   OH240735   2.552   0.992   5.031  0.4066  0.1004 -0.2089
 6415TIP3    H140736   2.647   0.999   5.034  0.4236 -0.2527  2.3632
 6415TIP3    H240737   2.535   0.898   5.023  0.2719  0.0984  0.1049
 6416TIP3   OH240738   2.786   4.825  12.167 -0.2258  0.6041  0.8962
 6416TIP3    H140739   2.770   4.905  12.215  1.7138  3.1025 -2.1946
 6416TIP3    H240740   2.863   4.787  12.208 -2.0929 -0.7456  3.4154
 6417TIP3   OH240741   3.901   2.941   1.326 -0.5404  0.4639 -0.0681
 6417TIP3    H140742   3.958   2.910   1.256  1.9794  1.6572  1.3225
 6417TIP3    H240743   3.863   2.861   1.364  0.5010 -0.4000 -0.8012
 6418TIP3   OH240744   5.615   4.377   4.312  0.0016 -0.0176  0.2804
 6418TIP3    H140745   5.623   4.282   4.321 -0.8791  0.0010  1.4327
 6418TIP3    H240746   5.563   4.404   4.388 -0.2333  1.3201 -0.3373
 6419TIP3   OH240747   0.419   3.236   5.667 -0.0251  0.1890  0.0035
 6419TIP3    H140748   0.427   3.181   5.745  1.2450  0.5420  0.1511
 6419TIP3    H240749   0.337   3.283   5.678  0.3362  0.5448  1.3506
 6420TIP3   OH240750   6.757   2.563  16.818  0.2269  0.0429  0.2584
 6420TIP3    H140751   6.762   2.484  16.871  0.9670  0.6783  1.1680
 6420TIP3    H240752   6.663   2.583  16.813  0.0285 -0.9173 -0.0418
 6421TIP3   OH240753   3.150   3.093   4.169  0.6710 -0.1071  0.2283
 6421TIP3    H140754   3.111   3.180   4.183 -1.4243 -1.0976  1.1410
 6421TIP3    H240755   3.159   3.057   4.258  3.3915 -0.1332  0.0238
 6422TIP3   OH240756   1.233   3.636  11.012  0.4476  0.4737 -0.2482
 6422TIP3    H140757   1.309   3.589  11.047 -0.0725  0.6671  1.1953
 6422TIP3    H240758   1.261   3.727  11.010 -0.2527  0.7976  1.8924
 6423TIP3   OH240759   3.318   3.023  13.983 -0.0495  0.9764  0.5234
 6423TIP3    H140760   3.230   3.034  14.019  0.9492  1.5311  2.9986
 6423TIP3    H240761   3.367   3.098  14.016  1.7446 -0.1501  0.5534
 6424TIP3   OH240762   0.144   5.743   0.314  0.0526  0.3132 -0.3825
 6424TIP3    H140763   0.130   5.773   0.404  0.6819  1.0148 -0.5035
 6424TIP3    H240764   0.150   5.824   0.263  1.3465 -0.0137 -0.8023
 6425TIP3   OH240765   5.886   1.941   4.400 -0.0727 -0.1018 -0.2620
 6425TIP3    H140766   5.973   1.902   4.398  0.1128  0.2939 -0.0791
 6425TIP3    H240767   5.901   2.031   4.431 -0.6865 -0.4067  0.9695
 6426TIP3   OH240768   5.902   0.010  15.259 -0.1715  0.2024 -0.3574
 6426TIP3    H140769   5.997   0.022  15.265 -0.4576  1.8531  3.0939
 6426TIP3    H240770   5.886  -0.073  15.305 -0.4205 -0.0985 -0.9762
 6427TIP3   OH240771   2.155   4.415  11.883  0.2141  0.1016 -0.3138
 6427TIP3    H140772   2.189   4.350  11.945  0.4202 -0.6672 -1.2151
 6427TIP3    H240773   2.140   4.493  11.937 -0.2728 -0.7489  0.8486
 6428TIP3   OH240774   6.334   2.274  15.986 -0.3157 -0.5452  0.0359
 6428TIP3    H140775   6.338   2.206  15.919 -0.5685  0.1707 -0.7215
 6428TIP3    H240776   6.363   2.353  15.941 -1.0383  0.0648  0.6190
 6429TIP3   OH240777   4.494   3.629   6.195 -0.8071  0.0507 -0.4311
 6429TIP3    H140778   4.464   3.561   6.255  1.2348 -0.9704 -0.4850
 6429TIP3    H240779   4.419   3.688   6.187 -1.5555 -0.4227  2.1398
 6430TIP3   OH240780   0.194   1.378   0.710  0.4411 -0.5127 -0.0759
 6430TIP3    H140781   0.203   1.386   0.615  2.8111 -0.0980  0.1369
 6430TIP3    H240782   0.239   1.454   0.745 -0.5460 -0.5657  1.4211
 6431TIP3   OH240783   4.675   0.858  17.119 -0.2088 -0.7328  0.6323
 6431TIP3    H140784   4.621   0.780  17.137  0.6995 -1.6258 -0.3744
 6431TIP3    H240785   4.729   0.868  17.197 -1.6363  0.0462  1.5684
 6432TIP3   OH240786   0.205   2.644  15.632 -0.1135  0.1644  0.4114
 6432TIP3    H140787   0.122   2.690  15.622  0.0241  0.5889  1.1335
 6432TIP3    H240788   0.242   2.640  15.544  0.3106  2.2800  0.4481
 6433TIP3   OH240789   1.764   4.467   3.082  0.2347  0.4738 -0.0036
 6433TIP3    H140790   1.843   4.460   3.028  1.5031 -1.1070  1.8917
 6433TIP3    H240791   1.721   4.381   3.072 -0.7291  0.9681 -0.2271
 6434TIP3   OH240792   4.728   1.963  15.589 -0.3839 -0.9223 -0.3617
 6434TIP3    H140793   4.641   1.922  15.595 -0.6380 -0.3517 -0.0868
 6434TIP3    H240794   4.783   1.895  15.550 -0.7848 -1.5523  0.1436
 6435TIP3   OH240795   2.350   4.048  15.745 -0.8885  0.2687  0.1824
 6435TIP3    H140796   2.300   4.078  15.820 -1.2226 -1.6689  0.8063
 6435TIP3    H240797   2.392   3.967  15.776  1.4979  1.0496 -0.7542
 6436TIP3   OH240798   3.493   2.851   4.178 -0.0658  0.2518  0.2233
 6436TIP3    H140799   3.499   2.946   4.192  0.7493  0.6856 -2.6055
 6436TIP3    H240800   3.535   2.813   4.256 -0.7499  2.1537  1.5951
 6437TIP3   OH240801   4.139   4.218  12.950 -0.0060 -0.1559 -0.3727
 6437TIP3    H140802   4.124   4.253  12.862 -1.2279 -0.4586 -0.3049
 6437TIP3    H240803   4.069   4.153  12.962  0.5933 -0.6533  0.5392
 6438TIP3   OH240804   1.288   6.630   5.365  0.2425 -0.0655 -0.2238
 6438TIP3    H140805   1.256   6.719   5.379 -0.2358  0.1359 -2.3159
 6438TIP3    H240806   1.208   6.578   5.352  0.5404 -0.7436  0.5654
 6439TIP3   OH240807   0.981   4.842  15.917 -0.1009  0.3905 -0.0525
 6439TIP3    H140808   0.968   4.799  16.001  0.4028  0.4518  0.0576
 6439TIP3    H240809   0.937   4.927  15.926 -1.8301 -0.4097 -0.5555
 6440TIP3   OH240810   3.619   5.833  13.283  0.8515  0.0106 -0.5575
 6440TIP3    H140811   3.712   5.813  13.293  0.5186 -1.0603  0.6144
 6440TIP3    H240812   3.589   5.777  13.211  0.6614 -1.2669  0.4882
 6441TIP3   OH240813   3.043   3.550  12.773 -0.1111 -0.1520 -0.2825
 6441TIP3    H140814   3.046   3.589  12.686 -0.2273  0.8684  0.1572
 6441TIP3    H240815   2.971   3.487  12.769 -0.9935  0.8508 -0.5421
 6442TIP3   OH240816   5.337   3.473   0.303  0.6856 -0.0385  0.0929
 6442TIP3    H140817   5.407   3.450   0.242 -0.9250 -0.8401 -1.5478
 6442TIP3    H240818   5.265   3.415   0.279 -0.2309  0.0594  2.3907
 6443TIP3   OH240819   1.689   4.765   4.148  0.5480 -0.3835 -0.3384
 6443TIP3    H140820   1.630   4.819   4.096 -0.4791 -0.4097  0.7371
 6443TIP3    H240821   1.754   4.826   4.182  1.8739 -0.5343 -2.4477
 6444TIP3   OH240822   6.215   5.208  14.207 -0.1454 -0.2404  0.6568
 6444TIP3    H140823   6.142   5.166  14.160  0.2723 -0.0230 -0.2183
 6444TIP3    H240824   6.250   5.139  14.263 -0.3530 -0.6646  0.2747
 6445TIP3   OH240825   3.658   0.573  13.733  0.1061 -0.5981 -0.6112
 6445TIP3    H140826   3.598   0.557  13.661 -0.2069  0.1967 -0.5267
 6445TIP3    H240827   3.650   0.666  13.752 -0.5914 -0.9667  1.1288
 6446TIP3   OH240828   0.479   6.760  15.787 -0.2916  0.3364 -0.2257
 6446TIP3    H140829   0.467   6.738  15.880 -1.0284  1.5040 -0.0323
 6446TIP3    H240830   0.426   6.695  15.741 -0.1297 -0.0928  0.1782
 6447TIP3   OH240831   1.802   0.572   0.306 -0.0508  0.4304 -0.3435
 6447TIP3    H140832   1.719   0.601   0.344  0.8832  1.9992  0.6273
 6447TIP3    H240833   1.865   0.583   0.377  0.5063 -3.8863  0.0416
 6448TIP3   OH240834   2.160   1.741   0.082 -0.0042 -0.3407  0.0217
 6448TIP3    H140835   2.244   1.697   0.094  0.4107  0.8885  2.0253
 6448TIP3    H240836   2.173   1.829   0.117 -1.6169  0.5047 -1.3218
 6449TIP3   OH240837   5.136   2.338  14.049  0.4348 -0.1585  0.1742
 6449TIP3    H140838   5.070   2.330  13.981  0.6964 -2.1476  0.1017
 6449TIP3    H240839   5.179   2.422  14.030 -0.1407 -0.2028 -1.5147
 6450TIP3   OH240840   2.517   3.520  16.210 -0.0273 -0.4720  0.0403
 6450TIP3    H140841   2.609   3.502  16.193 -0.2609 -1.0115 -0.7007
 6450TIP3    H240842   2.514   3.547  16.302  0.6664 -2.0162  0.5456
 6451TIP3   OH240843   2.513   2.592  12.710 -0.4423 -0.4656  0.5149
 6451TIP3    H140844   2.435   2.642  12.734 -0.1668  0.4164 -0.3634
 6451TIP3    H240845   2.568   2.595  12.789 -1.0412 -0.5903  0.9398
 6452TIP3   OH240846   3.275   6.746   3.998 -0.1044  0.2166  0.4319
 6452TIP3    H140847   3.329   6.812   4.041  0.1043  0.2851  0.0624
 6452TIP3    H240848   3.253   6.684   4.068 -2.4918  2.0412  1.4319
 6453TIP3   OH240849   4.264   3.336   4.235  0.2977  0.3676 -0.0311
 6453TIP3    H140850   4.188   3.290   4.269  1.4614 -1.4303  0.2854
 6453TIP3    H240851   4.231   3.382   4.158 -1.1400 -0.2241  0.1889
 6454TIP3   OH240852   6.802   0.844  15.352 -0.1901  0.6708  0.4445
 6454TIP3    H140853   6.830   0.843  15.261  0.6531 -0.3585  0.6845
 6454TIP3    H240854   6.883   0.861  15.401 -0.3047 -0.4490  1.0592
 6455TIP3   OH240855   1.823   1.732   3.454  0.1729 -0.0865 -0.2952
 6455TIP3    H140856   1.751   1.670   3.452 -0.2533  0.2859  1.6886
 6455TIP3    H240857   1.785   1.813   3.487  1.3769  0.2772  0.2840
 6456TIP3   OH240858   4.567   3.579   5.192 -0.1435  0.4467 -0.5668
 6456TIP3    H140859   4.642   3.527   5.164 -0.7389 -0.2086 -0.9624
 6456TIP3    H240860   4.605   3.648   5.247  0.5724 -0.8946  0.6880
 6457TIP3   OH240861   3.621   5.811  15.955 -0.0787  0.0543  0.2473
 6457TIP3    H140862   3.668   5.741  15.911  0.6580  0.4504  0.3924
 6457TIP3    H240863   3.532   5.777  15.967  0.0361 -0.5147 -0.4569
 6458TIP3   OH240864   4.623   5.847   1.847 -0.3071 -0.1270 -0.0211
 6458TIP3    H140865   4.580   5.889   1.773 -0.7956  0.8603  0.8131
 6458TIP3    H240866   4.568   5.868   1.923 -0.1994 -1.6982  0.5351
 6459TIP3   OH240867   0.657   6.768   3.391  0.4130 -0.2804 -0.2022
 6459TIP3    H140868   0.611   6.692   3.355 -0.6974  0.7068 -0.9453
 6459TIP3    H240869   0.719   6.793   3.322  1.3254 -0.9497  0.3542
 6460TIP3   OH240870   2.669   5.940  11.955  0.4448  0.5016 -0.2854
 6460TIP3    H140871   2.732   5.905  11.892  1.5107 -0.4215  1.2249
 6460TIP3    H240872   2.711   6.018  11.991 -0.3648  1.3025 -0.9978
 6461TIP3   OH240873   0.384   5.597  12.295  0.1049  0.5474  0.5064
 6461TIP3    H140874   0.292   5.573  12.309 -0.6142  1.5520 -1.9358
 6461TIP3    H240875   0.381   5.689  12.269  1.7989  0.5793  0.3536
 6462TIP3   OH240876   4.944   1.294  13.456 -0.3221 -0.0277  0.2107
 6462TIP3    H140877   5.015   1.231  13.465 -0.2883  0.0616  0.5774
 6462TIP3    H240878   4.938   1.310  13.362 -0.4594 -0.7291  0.0900
 6463TIP3   OH240879   4.401   5.221   1.617 -0.3190  0.0947 -0.2898
 6463TIP3    H140880   4.381   5.138   1.573  3.5660 -1.0732 -0.2350
 6463TIP3    H240881   4.338   5.225   1.690 -1.1449 -2.3798 -0.7683
 6464TIP3   OH240882   0.717   2.610   0.511  1.2670 -0.0716  0.2765
 6464TIP3    H140883   0.775   2.653   0.573  0.5202  2.9710 -0.9527
 6464TIP3    H240884   0.630   2.617   0.551  1.1235 -0.5168  0.0531
 6465TIP3   OH240885   3.411   5.249  16.762 -0.0086 -0.2237  0.8788
 6465TIP3    H140886   3.449   5.161  16.760 -0.2014 -0.2859 -0.7487
 6465TIP3    H240887   3.338   5.246  16.701  0.0058  1.0861  0.7605
 6466TIP3   OH240888   4.101   1.970   4.263 -0.3012  0.2133 -0.7049
 6466TIP3    H140889   4.151   1.997   4.186 -1.4213 -0.9341 -1.8940
 6466TIP3    H240890   4.071   2.052   4.302  1.5584  0.8840 -0.5569
 6467TIP3   OH240891   1.318   2.160   1.674 -0.0583  0.4356  0.2413
 6467TIP3    H140892   1.259   2.152   1.749 -1.5080  1.6843 -0.6993
 6467TIP3    H240893   1.306   2.079   1.625  0.6077 -0.2206  1.1299
 6468TIP3   OH240894   1.671   0.964  12.779 -0.3091  0.2650 -0.1781
 6468TIP3    H140895   1.606   0.972  12.709 -1.1131  2.2517  0.7076
 6468TIP3    H240896   1.726   1.042  12.769  0.3735 -0.0981  0.6316
 6469TIP3   OH240897   6.503   6.387   2.771 -0.0765  0.3501 -0.4035
 6469TIP3    H140898   6.438   6.452   2.741 -2.3059 -0.5792  1.9863
 6469TIP3    H240899   6.461   6.303   2.757  0.3418 -0.2671  1.6519
 6470TIP3   OH240900   1.187   3.747  12.605 -0.3526 -0.1678 -0.2197
 6470TIP3    H140901   1.265   3.754  12.549  0.2236 -2.7374  0.1698
 6470TIP3    H240902   1.184   3.831  12.652  0.2091  1.3286 -2.6786
 6471TIP3   OH240903   4.882   1.009  12.146 -0.0262  0.4576  0.2309
 6471TIP3    H140904   4.806   0.957  12.171  0.7965 -0.7349  0.3133
 6471TIP3    H240905   4.940   0.948  12.100  0.8889  1.3357  0.1619
 6472TIP3   OH240906   4.021   6.392  12.850 -0.1810 -0.3973  0.3407
 6472TIP3    H140907   4.058   6.308  12.824  0.8762  0.4296 -1.0182
 6472TIP3    H240908   4.043   6.400  12.943 -0.3834 -1.6469  0.5102
 6473TIP3   OH240909   4.671   2.491   6.586 -0.0882  0.8079  0.1910
 6473TIP3    H140910   4.755   2.535   6.593 -0.3329  1.4193 -0.5446
 6473TIP3    H240911   4.687   2.418   6.527  0.8825 -1.5959  3.1789
 6474TIP3   OH240912   3.833   4.727   1.596 -0.2807 -0.1516  0.4113
 6474TIP3    H140913   3.793   4.736   1.510 -0.5957 -1.6036  0.3809
 6474TIP3    H240914   3.880   4.809   1.610 -0.1123  0.0503 -1.2007
 6475TIP3   OH240915   3.567   2.793   2.872  0.4318 -0.5246  0.5954
 6475TIP3    H140916   3.659   2.817   2.857  0.3699 -0.3732  0.4577
 6475TIP3    H240917   3.538   2.755   2.789  0.4065 -0.6928  0.6803
 6476TIP3   OH240918   4.604   3.526   1.843  0.8025 -0.6391 -0.1846
 6476TIP3    H140919   4.679   3.585   1.855  0.9589 -0.8594 -0.0641
 6476TIP3    H240920   4.641   3.438   1.857  0.5740 -0.7642 -0.3729
 6477TIP3   OH240921   0.122   5.467   5.115  0.4586 -0.0993 -0.3119
 6477TIP3    H140922   0.197   5.525   5.123  0.5006  0.0139 -1.3450
 6477TIP3    H240923   0.116   5.449   5.021 -0.7083 -0.2265 -0.2248
 6478TIP3   OH240924   4.017   4.948   1.620  0.1214  0.3146  0.3639
 6478TIP3    H140925   4.095   4.934   1.674 -0.1548  0.6780  0.8643
 6478TIP3    H240926   3.996   5.040   1.633 -1.2495 -0.1167  1.4035
 6479TIP3   OH240927   6.757   2.073  17.000 -0.3632 -0.0202  0.4089
 6479TIP3    H140928   6.716   1.990  16.977 -2.5982  1.1598 -0.1873
 6479TIP3    H240929   6.799   2.057  17.085 -0.6310 -1.7620  0.2370
 6480TIP3   OH240930   1.344   2.952  11.404  0.0250 -0.0075 -0.3306
 6480TIP3    H140931   1.413   3.001  11.359 -0.0361 -0.2345 -0.6758
 6480TIP3    H240932   1.387   2.916  11.481 -0.0196  0.8833  0.1135
 6481TIP3   OH240933   0.655   2.372  13.335 -0.8604 -0.7653 -0.2175
 6481TIP3    H140934   0.686   2.447  13.284 -1.6042 -1.4272 -1.6912
 6481TIP3    H240935   0.567   2.396  13.362 -0.4782 -0.4274  0.7764
 6482TIP3   OH240936   0.970   6.314  15.680 -0.4406  0.1086 -0.5313
 6482TIP3    H140937   1.016   6.374  15.740 -0.3132  1.3486 -1.8293
 6482TIP3    H240938   0.996   6.226  15.710  1.7598  0.7466 -0.4305
 6483TIP3   OH240939   5.959   5.360   6.279 -0.0018 -0.1773 -0.0371
 6483TIP3    H140940   6.018   5.412   6.335 -0.0436 -0.2573  0.0811
 6483TIP3    H240941   5.887   5.336   6.337 -0.6550  0.7633 -0.4288
 6484TIP3   OH240942   2.131   1.813  13.158  0.0686 -0.3745 -0.2292
 6484TIP3    H140943   2.154   1.720  13.152  1.6272 -0.1351  1.2090
 6484TIP3    H240944   2.181   1.844  13.234 -0.0067  1.7625 -1.0114
 6485TIP3   OH240945   2.385   5.350   3.465  0.1463 -0.3423 -0.7909
 6485TIP3    H140946   2.415   5.272   3.512 -0.0842 -0.2394 -0.4663
 6485TIP3    H240947   2.299   5.369   3.503  2.1933  3.0505  2.8205
 6486TIP3   OH240948   3.711   4.594   0.916  0.1908  0.3736  0.1934
 6486TIP3    H140949   3.695   4.688   0.904 -0.5147  0.2035 -0.2191
 6486TIP3    H240950   3.665   4.572   0.997  0.5910  0.4326  0.4430
 6487TIP3   OH240951   4.445   3.846   3.748 -0.0112 -0.0002  0.0353
 6487TIP3    H140952   4.530   3.865   3.788 -0.6532  0.7459  1.1111
 6487TIP3    H240953   4.459   3.856   3.654  0.7262  1.6535  0.2871
 6488TIP3   OH240954   1.902   6.783   3.178 -0.2778 -0.4949  0.4363
 6488TIP3    H140955   1.828   6.761   3.122 -1.7394 -2.7658  3.0313
 6488TIP3    H240956   1.863   6.832   3.251  1.5623  2.4476 -0.3943
 6489TIP3   OH240957   0.350   5.966  15.193  0.2183 -0.2887 -0.1184
 6489TIP3    H140958   0.437   5.936  15.218  0.2419  0.8730  1.3674
 6489TIP3    H240959   0.297   5.953  15.273 -0.0145  2.5255  0.2889
 6490TIP3   OH240960   6.194   1.957   6.733 -0.5699  0.2522  0.0059
 6490TIP3    H140961   6.117   2.010   6.755 -0.4768  1.0989 -1.5873
 6490TIP3    H240962   6.255   2.018   6.693  0.3692 -0.6896 -0.0452
 6491TIP3   OH240963   0.214   6.441   0.329  0.1110  0.5908  0.1262
 6491TIP3    H140964   0.199   6.534   0.316  0.6536  0.6472 -0.1270
 6491TIP3    H240965   0.280   6.418   0.263 -0.3517 -0.0674 -0.1174
 6492TIP3   OH240966   1.778   1.886  11.534  0.0576  0.0011 -0.0548
 6492TIP3    H140967   1.754   1.922  11.449  0.7660  1.4772  0.3442
 6492TIP3    H240968   1.846   1.945  11.567 -0.8221 -0.0351  1.9298
 6493TIP3   OH240969   5.644   5.404  11.270 -0.3252  0.4341 -0.0288
 6493TIP3    H140970   5.634   5.346  11.345 -0.4396  1.6043  0.8830
 6493TIP3    H240971   5.569   5.463  11.274 -0.1400  0.7466 -0.8475
 6494TIP3   OH240972   5.484   5.374   5.954 -0.2487 -0.6572  0.6743
 6494TIP3    H140973   5.535   5.401   5.877  1.7832 -0.6982  1.9494
 6494TIP3    H240974   5.506   5.439   6.021 -1.7431 -0.8044  1.3516
 6495TIP3   OH240975   4.631   3.222   2.671  0.6005  0.0703 -0.0000
 6495TIP3    H140976   4.656   3.277   2.745 -1.2115  0.2162  0.5578
 6495TIP3    H240977   4.537   3.234   2.663  0.2968 -2.1389 -0.5338
 6496TIP3   OH240978   2.972   3.099  14.726 -0.2841  0.1366  0.0013
 6496TIP3    H140979   2.931   3.090  14.640 -0.4046  1.2463 -0.0730
 6496TIP3    H240980   2.972   3.011  14.762  0.9950 -0.6042 -1.6964
 6497TIP3   OH240981   3.039   3.661  12.516 -0.3525 -0.2043  0.5306
 6497TIP3    H140982   3.059   3.750  12.487  2.2662 -1.0408 -0.5657
 6497TIP3    H240983   3.014   3.615  12.436 -2.2352 -0.3818  1.1749
 6498TIP3   OH240984   0.180   3.733   1.802 -0.4684  0.5685  0.5829
 6498TIP3    H140985   0.221   3.716   1.887 -1.3861  1.5060  1.2418
 6498TIP3    H240986   0.206   3.823   1.782  0.9752 -0.1192 -0.8786
 6499TIP3   OH240987   1.702   4.884   3.880 -0.1477 -0.2399 -0.2621
 6499TIP3    H140988   1.769   4.816   3.882  0.5303  0.3873  2.9220
 6499TIP3    H240989   1.750   4.966   3.889 -1.2304  0.1954  2.4742
 6500TIP3   OH240990   4.956   2.461  15.722  0.1627  0.1344 -1.0379
 6500TIP3    H140991   4.901   2.394  15.682  0.0711  0.0592 -0.7882
 6500TIP3    H240992   5.045   2.427  15.713  0.4923  1.4893 -3.9103
 6501TIP3   OH240993   6.147   0.521   3.979  0.7109  0.1648 -0.5616
 6501TIP3    H140994   6.165   0.539   4.072 -1.6229  0.2751 -0.0740
 6501TIP3    H240995   6.194   0.590   3.932  2.1428 -0.0356  0.4836
 6502TIP3   OH240996   3.326   1.414   5.421  0.8952  0.2328 -0.0159
 6502TIP3    H140997   3.275   1.494   5.420 -0.4288 -0.5788  0.3265
 6502TIP3    H240998   3.359   1.406   5.510  0.4936  0.0734  0.1189
 6503TIP3   OH240999   4.526   3.896   3.495 -0.3882  0.0495  0.0309
 6503TIP3    H141000   4.441   3.932   3.470 -0.6377  1.0438  2.1197
 6503TIP3    H241001   4.588   3.940   3.436 -1.3516 -1.7433 -2.5128
 6504TIP3   OH241002   2.465   5.234  10.654 -0.0230  0.0347 -0.6533
 6504TIP3    H141003   2.477   5.268  10.743  0.9163 -0.9658 -0.3665
 6504TIP3    H241004   2.481   5.309  10.597 -0.6233  0.6880  0.0173
 6505TIP3   OH241005   4.774   1.519  16.346  0.0686 -0.2000  0.4351
 6505TIP3    H141006   4.760   1.509  16.440 -0.5328 -0.1285  0.3584
 6505TIP3    H241007   4.812   1.606  16.337 -1.1094  0.3416  0.5082
 6506TIP3   OH241008   4.196   1.152  12.963 -0.5137 -0.1622  0.5608
 6506TIP3    H141009   4.115   1.181  13.005 -0.2517  1.9808 -0.2936
 6506TIP3    H241010   4.167   1.108  12.883 -0.8754  0.2629  0.4497
 6507TIP3   OH241011   6.152   5.458  12.982 -0.1094  0.0247  0.4242
 6507TIP3    H141012   6.161   5.397  12.909  2.1501  0.3738  0.3235
 6507TIP3    H241013   6.060   5.453  13.007 -0.4848 -1.6410 -1.0991
 6508TIP3   OH241014   4.928   2.196  12.921  0.3213  0.0050 -0.2555
 6508TIP3    H141015   5.012   2.238  12.938 -0.1474  1.3877 -1.1947
 6508TIP3    H241016   4.942   2.104  12.942  2.1168  0.1793 -0.5914
 6509TIP3   OH241017   4.457   0.281  11.173 -0.0923  0.1229 -0.8493
 6509TIP3    H141018   4.453   0.358  11.230 -0.6996  0.8374 -1.8125
 6509TIP3    H241019   4.408   0.307  11.095 -0.3846 -1.2880 -1.1620
 6510TIP3   OH241020   1.823   2.561  15.070 -0.0169 -0.0066 -0.2779
 6510TIP3    H141021   1.752   2.555  15.006 -0.5863  0.4338  0.2959
 6510TIP3    H241022   1.802   2.494  15.135  1.1325 -1.1976 -1.0757
 6511TIP3   OH241023   4.031   5.522  15.337  0.7924 -0.2180 -0.1498
 6511TIP3    H141024   4.060   5.439  15.375  2.0227  0.8330  1.3444
 6511TIP3    H241025   4.098   5.585  15.364 -0.6735  1.4816 -0.3057
 6512TIP3   OH241026   3.999   3.521  13.320  0.1398 -0.4532 -0.3924
 6512TIP3    H141027   3.990   3.617  13.328 -1.8339 -0.4718 -1.7897
 6512TIP3    H241028   3.981   3.489  13.409  1.0935  0.4610  0.1598
 6513TIP3   OH241029   4.779   5.106  11.230 -0.0139  0.1684 -0.3105
 6513TIP3    H141030   4.724   5.121  11.153  0.0548  0.3445 -0.3269
 6513TIP3    H241031   4.798   5.012  11.228 -0.5774  0.0470 -0.1253
 6514TIP3   OH241032   6.598   4.642  12.345 -0.6956 -0.5565  0.1524
 6514TIP3    H141033   6.643   4.717  12.384  1.9718 -1.6301 -0.7011
 6514TIP3    H241034   6.509   4.646  12.382 -0.7306  3.0713  0.0147
 6515TIP3   OH241035   0.678   6.743   1.877 -0.1982  0.4938 -0.2801
 6515TIP3    H141036   0.619   6.770   1.807  0.3689 -2.5302 -2.0957
 6515TIP3    H241037   0.639   6.663   1.912  0.6615  0.7629  1.4169
 6516TIP3   OH241038   4.368   6.139  14.432  0.6297  0.0775  0.2488
 6516TIP3    H141039   4.334   6.227  14.443  2.1393  0.8720 -1.0528
 6516TIP3    H241040   4.300   6.093  14.383  0.9104  1.3260 -1.3915
 6517TIP3   OH241041   4.762   0.756   4.891  0.8095 -0.7485  0.2519
 6517TIP3    H141042   4.779   0.847   4.867 -0.9804 -0.8449 -1.6356
 6517TIP3    H241043   4.750   0.758   4.986 -2.3210  1.6181 -0.0175
 6518TIP3   OH241044   0.713   5.845  12.560  0.2382 -0.6588 -0.3264
 6518TIP3    H141045   0.769   5.819  12.633  0.3746  1.5833  0.4635
 6518TIP3    H241046   0.628   5.806  12.579  0.2072  0.0828  1.1985
 6519TIP3   OH241047   1.701   3.182  16.771 -0.0791 -0.2240  0.2857
 6519TIP3    H141048   1.751   3.258  16.741  0.0038 -0.1620  0.5826
 6519TIP3    H241049   1.659   3.149  16.691  0.3947 -0.2519  0.0414
 6520TIP3   OH241050   4.623   1.870   5.528 -0.0934  0.2353  0.6562
 6520TIP3    H141051   4.670   1.952   5.540 -0.9442  0.9294 -0.4774
 6520TIP3    H241052   4.542   1.881   5.578 -0.3044  0.1777  0.3318
 6521TIP3   OH241053   0.814   3.465  15.342 -0.3060  0.0592 -0.4572
 6521TIP3    H141054   0.799   3.370  15.343  0.0164  0.0073  0.3920
 6521TIP3    H241055   0.909   3.474  15.355 -0.5559  0.5257  1.1629
 6522TIP3   OH241056   5.543   5.057   4.426  0.3064 -0.2073 -0.2677
 6522TIP3    H141057   5.563   5.139   4.471 -0.3711  0.6558 -1.4763
 6522TIP3    H241058   5.560   4.989   4.491  1.5027  0.8363  0.5622
 6523TIP3   OH241059   2.606   3.000  15.836  0.3075  0.2118  0.2941
 6523TIP3    H141060   2.598   3.073  15.898 -0.5255  0.3785  0.0063
 6523TIP3    H241061   2.592   2.922  15.888  0.4395  0.2995  0.4633
 6524TIP3   OH241062   1.693   5.718  17.048  0.3671  0.0193  0.2208
 6524TIP3    H141063   1.599   5.727  17.062  0.4224  2.7625 -0.5783
 6524TIP3    H241064   1.732   5.729  17.135 -0.0283 -0.7605  0.4976
 6525TIP3   OH241065   4.110   6.323   3.588 -0.1058  0.5529 -0.3387
 6525TIP3    H141066   4.199   6.350   3.566 -0.0824  0.4253 -0.4001
 6525TIP3    H241067   4.090   6.371   3.669 -0.2671  1.1770 -0.7454
 6526TIP3   OH241068   6.153   0.425  14.876 -0.3098 -0.0030 -0.0447
 6526TIP3    H141069   6.126   0.417  14.785 -1.4600  1.2446  0.1685
 6526TIP3    H241070   6.078   0.464  14.921  1.2563  2.1570  0.8639
 6527TIP3   OH241071   1.281   4.449   1.519 -0.5408  0.2847 -0.7326
 6527TIP3    H141072   1.333   4.486   1.590 -0.3744  0.1604 -0.7865
 6527TIP3    H241073   1.190   4.463   1.545 -0.4829  0.1198 -0.4307
 6528TIP3   OH241074   6.550   3.051   3.836  0.4634 -0.0003  0.0885
 6528TIP3    H141075   6.530   3.051   3.743 -1.6935  0.4017  0.5073
 6528TIP3    H241076   6.588   3.138   3.852 -0.6727  0.5505 -0.1345
 6529TIP3   OH241077   3.777   1.368   1.321 -0.1968  0.0816  0.6311
 6529TIP3    H141078   3.804   1.327   1.239  0.2836  0.7722  0.4301
 6529TIP3    H241079   3.835   1.444   1.330 -1.7856  1.3698  0.4196
 6530TIP3   OH241080   3.802   3.792  16.404  0.3658 -0.2714 -0.3091
 6530TIP3    H141081   3.820   3.778  16.311 -0.4750  0.4652 -0.5979
 6530TIP3    H241082   3.808   3.704  16.443  0.6731 -0.5955 -1.0591
 6531TIP3   OH241083   3.240   4.415   4.558 -0.9410  0.1353  0.0909
 6531TIP3    H141084   3.228   4.501   4.518 -1.2692  0.0150 -0.0714
 6531TIP3    H241085   3.225   4.429   4.651  1.0183  0.6690  0.3830
 6532TIP3   OH241086   4.867   1.565   1.396 -0.3855  0.0333 -0.1395
 6532TIP3    H141087   4.780   1.555   1.358 -1.6161  1.4595  2.0528
 6532TIP3    H241088   4.867   1.654   1.432  2.2740  0.3320 -0.6821
 6533TIP3   OH241089   3.991   0.782  13.617  0.3035 -0.3028 -0.0743
 6533TIP3    H141090   4.042   0.734  13.682  0.6668 -1.2304 -1.0188
 6533TIP3    H241091   4.041   0.863  13.603  0.6964 -0.5047  0.1384
 6534TIP3   OH241092   3.440   0.301  13.752 -0.1361  0.3585  0.0087
 6534TIP3    H141093   3.396   0.379  13.789 -0.4820 -0.3555  1.1635
 6534TIP3    H241094   3.370   0.235  13.747  0.1868  0.0720 -0.8310
 6535TIP3   OH241095   1.974   1.671  13.900  0.3434 -0.0432  0.1157
 6535TIP3    H141096   1.906   1.620  13.856  0.4268  0.6955 -0.9143
 6535TIP3    H241097   2.010   1.727  13.831  0.3008  1.3651  1.1797
 6536TIP3   OH241098   3.842   3.498   5.745  0.1413  0.5498  0.4691
 6536TIP3    H141099   3.837   3.523   5.837  0.2026  2.4920 -0.0079
 6536TIP3    H241100   3.928   3.457   5.736 -0.1269 -0.2598  1.3878
 6537TIP3   OH241101   4.037   5.520  14.576  0.1814 -0.4206  0.1054
 6537TIP3    H141102   4.068   5.431  14.559  0.9491 -0.3356  1.0364
 6537TIP3    H241103   4.116   5.570  14.595 -0.2626  0.4286 -0.2337
 6538TIP3   OH241104   1.572   2.571   3.710  0.1496  0.7710  0.0741
 6538TIP3    H141105   1.631   2.496   3.712  1.3155  1.6635 -0.0392
 6538TIP3    H241106   1.571   2.604   3.800 -0.5299  0.5012  0.1712
 6539TIP3   OH241107   4.496   0.354  11.828 -0.3963  0.0116  0.5887
 6539TIP3    H141108   4.426   0.331  11.767 -0.3894  0.5173  0.3864
 6539TIP3    H241109   4.576   0.324  11.785 -0.1116  2.4823 -0.8137
 6540TIP3   OH241110   3.342   6.217  11.972 -0.2377 -0.3485  0.5038
 6540TIP3    H141111   3.256   6.248  12.001 -0.5608 -0.3915 -0.3737
 6540TIP3    H241112   3.404   6.262  12.029 -0.7308  1.3569 -0.2376
 6541TIP3   OH241113   0.259   4.479   3.789  0.0822  0.0362 -0.1032
 6541TIP3    H141114   0.209   4.436   3.858  1.0003  1.4627  1.5211
 6541TIP3    H241115   0.211   4.560   3.770  2.1910  2.0400  2.3268
 6542TIP3   OH241116   5.557   2.653   5.923  0.3232 -0.1770 -0.3763
 6542TIP3    H141117   5.542   2.564   5.955 -0.0820 -0.3174 -0.9288
 6542TIP3    H241118   5.649   2.671   5.943  0.0700 -0.2265  0.9071
 6543TIP3   OH241119   3.701   4.924  15.661  0.2639 -0.0556 -0.4255
 6543TIP3    H141120   3.774   4.932  15.723 -0.4686  1.1846  0.3233
 6543TIP3    H241121   3.680   5.015  15.638  0.0288 -0.4642 -1.9333
 6544TIP3   OH241122   4.885   6.325   4.554 -0.0733 -0.6200  0.2799
 6544TIP3    H141123   4.908   6.314   4.646  0.1210  1.8186  0.5870
 6544TIP3    H241124   4.963   6.364   4.514  0.2234 -2.5353 -1.2098
 6545TIP3   OH241125   3.307   2.940  15.629  0.2110  0.3783  0.4915
 6545TIP3    H141126   3.359   2.871  15.587 -0.7315  0.5580 -1.0480
 6545TIP3    H241127   3.223   2.899  15.648  0.5233  0.3802  2.0454
 6546TIP3   OH241128   2.434   4.567  15.376 -0.2248  0.3469  0.2230
 6546TIP3    H141129   2.452   4.612  15.458 -0.7101 -1.4792  1.3803
 6546TIP3    H241130   2.455   4.476  15.393  1.5681  0.1766 -2.3076
 6547TIP3   OH241131   4.157   1.850  17.086  0.5581 -0.3742  0.5131
 6547TIP3    H141132   4.079   1.869  17.035  0.1398  0.6726  1.4814
 6547TIP3    H241133   4.216   1.806  17.025 -0.8471 -1.3706 -0.1831
 6548TIP3   OH241134   4.939   4.266  14.604 -0.3617  0.5117 -0.4200
 6548TIP3    H141135   4.869   4.322  14.571 -2.5363 -0.6473  1.8961
 6548TIP3    H241136   5.007   4.327  14.634 -0.1936  1.6525 -2.9138
 6549TIP3   OH241137   2.079   1.221   3.454  0.0759  0.1778  0.4583
 6549TIP3    H141138   2.165   1.180   3.459  0.1301  0.3352  0.9213
 6549TIP3    H241139   2.097   1.310   3.423  0.1605  0.4348  1.2265
 6550TIP3   OH241140   4.675   2.540  12.814  0.2038 -0.1704 -0.1293
 6550TIP3    H141141   4.711   2.458  12.780 -1.1520 -0.2787 -1.4221
 6550TIP3    H241142   4.698   2.541  12.907  0.3575 -1.9518 -0.1264
 6551TIP3   OH241143   1.680   5.008  14.650 -0.2162  0.4158 -0.3347
 6551TIP3    H141144   1.760   4.977  14.609 -1.1969 -1.9600 -0.6415
 6551TIP3    H241145   1.703   5.019  14.743  0.8860  1.5550 -0.7149
 6552TIP3   OH241146   6.335   0.353  14.081  0.1936  0.7052 -0.6496
 6552TIP3    H141147   6.262   0.364  14.021 -1.1915 -0.1306  0.8168
 6552TIP3    H241148   6.377   0.272  14.053 -0.6985  0.0975 -0.2581
 6553TIP3   OH241149   6.106   5.033   5.416  0.2020 -0.0325 -0.1064
 6553TIP3    H141150   6.040   4.973   5.382 -0.9401  0.4979  1.1270
 6553TIP3    H241151   6.161   4.978   5.472  0.2517 -0.2834 -0.3954
 6554TIP3   OH241152   2.982   0.738   3.633  0.2033 -0.2510  0.3791
 6554TIP3    H141153   2.909   0.761   3.575  1.8052  2.7395 -0.6550
 6554TIP3    H241154   2.966   0.788   3.712  1.4815  1.1279 -0.1823
 6555TIP3   OH241155   2.296   3.221  13.136  0.7574 -0.1927 -0.3823
 6555TIP3    H141156   2.248   3.296  13.168  1.6343  0.1241  0.2259
 6555TIP3    H241157   2.269   3.212  13.044 -0.7616 -0.2978  0.0573
 6556TIP3   OH241158   0.278   1.880  15.065 -0.1299  0.1218 -0.0767
 6556TIP3    H141159   0.219   1.805  15.072 -1.1043  0.7073 -1.5091
 6556TIP3    H241160   0.296   1.887  14.971  2.8069 -0.4510  0.3372
 6557TIP3   OH241161   6.224   4.857   5.569 -0.0901  0.5159 -0.5330
 6557TIP3    H141162   6.317   4.843   5.587 -0.5311 -0.0316  1.5351
 6557TIP3    H241163   6.190   4.769   5.550 -0.2337  0.6986 -1.1624
 6558TIP3   OH241164   2.087   1.925  11.886  0.3212 -0.1244 -0.5451
 6558TIP3    H141165   2.133   1.842  11.902 -0.9542 -0.7470  0.0687
 6558TIP3    H241166   2.109   1.980  11.961 -0.2248 -0.5602 -0.0557
 6559TIP3   OH241167   2.911   4.132   5.100  0.0097  0.4094  0.1630
 6559TIP3    H141168   2.830   4.083   5.082 -0.3300  1.1807 -0.4504
 6559TIP3    H241169   2.976   4.064   5.117 -0.7017 -0.2324  0.4237
 6560TIP3   OH241170   5.196   0.538  17.162  0.4481 -0.2013 -0.1818
 6560TIP3    H141171   5.106   0.560  17.136  0.0319  0.3382  1.5796
 6560TIP3    H241172   5.225   0.475  17.096  0.2209  2.5014 -3.1096
 6561TIP3   OH241173   0.080   6.532  13.782 -0.2621  0.0468 -1.0048
 6561TIP3    H141174   0.091   6.449  13.735  0.6627 -0.2599 -0.2735
 6561TIP3    H241175   0.161   6.543  13.831 -0.3899  1.3763 -1.0581
 6562TIP3   OH241176   1.208   5.317   2.524  0.2993  0.1711 -0.0405
 6562TIP3    H141177   1.182   5.398   2.479 -0.8924  0.0936  0.4785
 6562TIP3    H241178   1.129   5.264   2.526  0.9059 -0.7538  0.2031
 6563TIP3   OH241179   6.448   2.757   3.082 -0.7077  0.2883 -0.5411
 6563TIP3    H141180   6.418   2.738   3.171 -2.4194  1.8647 -0.7107
 6563TIP3    H241181   6.463   2.852   3.082  0.7248  0.0962 -1.5469
 6564TIP3   OH241182   5.753   0.265  14.782 -0.1565 -0.1004 -0.2998
 6564TIP3    H141183   5.720   0.175  14.778  0.1818 -0.2428  0.0900
 6564TIP3    H241184   5.741   0.299  14.693 -2.8197  0.3908  0.1729
 6565TIP3   OH241185   1.933   2.901   6.563 -0.5833  0.1294  0.0447
 6565TIP3    H141186   2.007   2.903   6.624 -1.3139  0.8425  0.9323
 6565TIP3    H241187   1.950   2.825   6.507  0.1272 -0.5102  1.1067
 6566TIP3   OH241188   0.023   2.974  16.375  0.0152  0.4514  0.1794
 6566TIP3    H141189   0.088   2.915  16.413  0.9888  1.7026  0.5161
 6566TIP3    H241190   0.074   3.042  16.331 -1.0671  1.0677 -0.1826
 6567TIP3   OH241191   3.288   4.761   5.074  0.2062  0.0088 -0.1794
 6567TIP3    H141192   3.370   4.733   5.033 -0.6679 -0.8235 -1.4328
 6567TIP3    H241193   3.265   4.689   5.132  0.3589  0.2422  0.1723
 6568TIP3   OH241194   4.926   2.960   5.599  0.3992 -0.4514 -0.1268
 6568TIP3    H141195   4.958   2.964   5.508  1.5846 -0.8102  0.2559
 6568TIP3    H241196   4.902   2.869   5.612 -1.0738 -0.1380 -0.4867
 6569TIP3   OH241197   3.054   3.404   1.739 -0.4961 -0.4577 -0.7157
 6569TIP3    H141198   3.060   3.413   1.835  0.0819  1.1614 -0.8841
 6569TIP3    H241199   3.082   3.314   1.723  2.5136  0.1403  0.4193
 6570TIP3   OH241200   2.020   6.448   5.974 -0.4921 -0.4294  0.3228
 6570TIP3    H141201   1.942   6.457   5.920  0.3396  1.7697 -0.6424
 6570TIP3    H241202   2.087   6.413   5.915 -0.1536 -0.1081  0.5083
 6571TIP3   OH241203   4.805   5.894  13.105  0.3122  0.5645  0.2836
 6571TIP3    H141204   4.769   5.929  13.187 -0.2611 -0.5706  0.5500
 6571TIP3    H241205   4.896   5.874  13.125 -0.0684 -0.6244  0.9890
 6572TIP3   OH241206   3.476   5.221   0.463  0.0018  0.0339 -0.4815
 6572TIP3    H141207   3.420   5.170   0.405  0.9963 -0.8028 -0.7395
 6572TIP3    H241208   3.549   5.250   0.407 -0.7862  2.2373 -0.4857
 6573TIP3   OH241209   2.455   0.696  13.341 -0.0043 -0.2414  0.0888
 6573TIP3    H141210   2.480   0.741  13.422  1.7100  0.3260 -0.6983
 6573TIP3    H241211   2.414   0.763  13.287 -2.8722 -1.0257  1.1141
 6574TIP3   OH241212   1.101   5.073  13.254  0.1317  0.2386  0.2964
 6574TIP3    H141213   1.171   5.030  13.303  0.2207 -1.0114 -0.8748
 6574TIP3    H241214   1.039   5.003  13.236  0.6693  0.3682 -2.3792
 6575TIP3   OH241215   5.701   5.975   4.582 -0.3133 -0.3685  0.2459
 6575TIP3    H141216   5.674   6.054   4.628 -2.8632 -0.1520 -1.3979
 6575TIP3    H241217   5.635   5.909   4.607  0.1963 -1.1874 -0.5078
 6576TIP3   OH241218   4.413   1.235  16.397 -0.5003 -0.4274  0.0136
 6576TIP3    H141219   4.506   1.252  16.412 -0.7507  0.4310  0.7394
 6576TIP3    H241220   4.386   1.303  16.335 -0.7039 -0.4610  0.0646
 6577TIP3   OH241221   0.133   1.607   2.741 -0.1180  0.5838 -0.3687
 6577TIP3    H141222   0.131   1.677   2.675  1.5536  0.4865 -0.5776
 6577TIP3    H241223   0.173   1.647   2.818 -2.5993  0.8628  0.8761
 6578TIP3   OH241224   2.926   3.894   0.154 -0.2129  0.3181  0.4088
 6578TIP3    H141225   2.859   3.851   0.100 -0.3799 -1.5635  2.0318
 6578TIP3    H241226   2.882   3.913   0.237  1.1134 -0.5988  1.3678
 6579TIP3   OH241227   6.699   2.782   0.996 -0.2046 -0.1615 -0.0045
 6579TIP3    H141228   6.648   2.833   0.933 -0.4751 -0.6346 -0.1654
 6579TIP3    H241229   6.646   2.705   1.014  0.2178 -0.4024  0.2252
 6580TIP3   OH241230   3.773   5.154  12.811  0.0671  0.9264 -0.2813
 6580TIP3    H141231   3.855   5.185  12.850  0.1833  0.2551  0.0129
 6580TIP3    H241232   3.749   5.223  12.748  0.7492  1.2170 -0.2297
 6581TIP3   OH241233   1.131   1.266  13.167 -0.1739  0.5485 -0.3445
 6581TIP3    H141234   1.045   1.240  13.198 -0.6847  2.9896  0.4469
 6581TIP3    H241235   1.192   1.216  13.222 -1.0172 -1.0896 -0.8189
 6582TIP3   OH241236   1.742   3.389  15.107  0.0839 -0.4098  0.2359
 6582TIP3    H141237   1.715   3.479  15.091  0.0889 -0.3097  0.7667
 6582TIP3    H241238   1.834   3.387  15.083  0.2425 -0.1145  0.8042
 6583TIP3   OH241239   5.912   0.214  11.717 -0.4713  0.2218 -0.3984
 6583TIP3    H141240   5.817   0.208  11.719 -0.4715  0.2767  2.0234
 6583TIP3    H241241   5.939   0.204  11.808  1.8983 -0.4510 -1.1076
 6584TIP3   OH241242   1.316   3.962   5.946 -0.6936 -0.8225  0.4004
 6584TIP3    H141243   1.373   4.028   5.906 -0.1740 -0.7946  1.1642
 6584TIP3    H241244   1.372   3.918   6.010 -1.5949 -0.6001  1.3735
 6585TIP3   OH241245   4.605   0.579  17.082 -0.2944  0.7499 -0.2475
 6585TIP3    H141246   4.674   0.549  17.141 -0.2758  2.2983  0.5758
 6585TIP3    H241247   4.638   0.558  16.995 -0.2700 -1.4724  0.2359
 6586TIP3   OH241248   3.075   6.142   4.005  0.3190 -0.1233  0.0210
 6586TIP3    H141249   3.160   6.186   3.997  1.1228 -1.9207 -2.3777
 6586TIP3    H241250   3.097   6.053   4.034 -0.5306 -1.0404 -1.9794
 6587TIP3   OH241251   5.115   0.195   3.082  0.2552  0.1430 -0.7696
 6587TIP3    H141252   5.175   0.174   3.011 -1.1529 -2.1049 -1.4079
 6587TIP3    H241253   5.051   0.255   3.044  1.0982  1.2160 -0.5482
 6588TIP3   OH241254   3.167   5.436   2.386 -0.3412  0.1562  0.1665
 6588TIP3    H141255   3.260   5.456   2.375  0.5385 -1.5174  3.3701
 6588TIP3    H241256   3.125   5.475   2.309  2.7315  2.6280 -0.4802
 6589TIP3   OH241257   0.147   6.592   5.544  0.3579  0.2161  0.2129
 6589TIP3    H141258   0.086   6.638   5.486  0.4752  2.6403  1.8706
 6589TIP3    H241259   0.091   6.537   5.599  0.2036 -1.6872 -1.6975
 6590TIP3   OH241260   6.165   0.784  12.617 -0.0412  0.1255 -0.5080
 6590TIP3    H141261   6.118   0.794  12.534 -0.1121 -1.2467 -0.6587
 6590TIP3    H241262   6.237   0.724  12.596  1.1128  1.3206 -0.0159
 6591TIP3   OH241263   6.229   3.030  11.540 -0.7474 -0.1964 -0.3706
 6591TIP3    H141264   6.178   3.094  11.490 -0.4248 -0.1798 -0.6802
 6591TIP3    H241265   6.201   3.042  11.630  0.0510  1.0816 -0.2749
 6592TIP3   OH241266   2.053   4.411  15.398 -0.7237 -0.4017  0.1337
 6592TIP3    H141267   1.987   4.395  15.331  1.5109  1.3353 -2.7389
 6592TIP3    H241268   2.026   4.357  15.472 -3.5073 -2.2654 -2.0338
 6593TIP3   OH241269   4.550   6.592  12.877 -0.2477 -0.1894 -0.0975
 6593TIP3    H141270   4.606   6.523  12.841  0.8249  1.1853 -1.1839
 6593TIP3    H241271   4.475   6.596  12.817 -0.3874 -0.5018  0.0543
 6594TIP3   OH241272   5.385   1.909   5.451  0.3816  0.0828  0.0744
 6594TIP3    H141273   5.464   1.864   5.421 -0.3369 -1.4661  0.4127
 6594TIP3    H241274   5.410   2.002   5.454  2.8738 -0.5399  2.2020
 6595TIP3   OH241275   6.725   5.641  12.389  0.5068 -0.1981  0.0843
 6595TIP3    H141276   6.676   5.648  12.307  1.0666 -0.5921 -0.2965
 6595TIP3    H241277   6.707   5.723  12.435 -0.6750 -0.4335  0.0617
 6596TIP3   OH241278   3.754   5.660   3.072 -0.1204 -0.5193 -0.3718
 6596TIP3    H141279   3.824   5.713   3.033 -1.1945 -0.7437 -2.8245
 6596TIP3    H241280   3.731   5.597   3.003 -2.4094 -0.7607  0.5230
 6597TIP3   OH241281   3.314   4.984   5.242  0.5353 -0.1977  0.2180
 6597TIP3    H141282   3.306   4.928   5.166  0.4914  1.2670 -0.8991
 6597TIP3    H241283   3.260   4.943   5.309  0.0741 -1.1736 -0.7367
 6598TIP3   OH241284   3.012   1.046   1.988  0.1565 -0.0911 -0.2423
 6598TIP3    H141285   3.003   1.126   1.936 -2.0902  0.1279  0.3732
 6598TIP3    H241286   3.024   1.078   2.078 -1.3552 -0.3667  0.1007
 6599TIP3   OH241287   4.104   1.179   4.481 -0.1266 -0.0855  0.0425
 6599TIP3    H141288   4.081   1.222   4.564 -0.3644 -0.6887  0.2936
 6599TIP3    H241289   4.031   1.120   4.464  0.5788 -1.0066  0.1327
 6600TIP3   OH241290   1.601   1.178  13.237 -0.4655 -0.0158  0.1959
 6600TIP3    H141291   1.647   1.124  13.173  0.1232  2.2056 -1.3903
 6600TIP3    H241292   1.585   1.261  13.192 -2.0205  0.8950  2.2244
 6601TIP3   OH241293   5.640   6.205  12.786  0.0683  0.0359  0.0954
 6601TIP3    H141294   5.548   6.206  12.812  0.5119  0.6279  1.8156
 6601TIP3    H241295   5.646   6.271  12.717 -0.6093  0.8273  0.7660
 6602TIP3   OH241296   4.847   0.243   1.204  0.6042 -0.9224 -0.1317
 6602TIP3    H141297   4.832   0.151   1.185 -1.1506 -0.3675 -1.7526
 6602TIP3    H241298   4.832   0.288   1.121 -2.7403  1.2132  1.4017
 6603TIP3   OH241299   1.302   5.538  13.735  0.6728 -0.6774  0.5385
 6603TIP3    H141300   1.348   5.581  13.663  1.6846  0.1584  1.6423
 6603TIP3    H241301   1.370   5.494  13.785 -0.0478 -1.4714  0.8631
 6604TIP3   OH241302   4.014   4.791   2.251  0.0166 -0.3385 -0.0902
 6604TIP3    H141303   4.087   4.731   2.270 -1.2221 -1.8609  0.0521
 6604TIP3    H241304   4.027   4.815   2.159  0.6336 -0.6762 -0.0988
 6605TIP3   OH241305   2.485   4.718  11.469 -0.0189 -0.6099  0.5657
 6605TIP3    H141306   2.412   4.772  11.438  0.7752  0.7147  0.8960
 6605TIP3    H241307   2.465   4.702  11.561  0.3130  0.1364  0.7744
 6606TIP3   OH241308   4.473   6.132  16.911  0.3051  0.3348 -0.2335
 6606TIP3    H141309   4.410   6.204  16.907  1.5999  1.6760  1.7361
 6606TIP3    H241310   4.440   6.074  16.980  0.5109  0.3226 -0.1440
 6607TIP3   OH241311   3.908   6.222  13.928  0.1838  1.0036 -0.4374
 6607TIP3    H141312   3.822   6.190  13.952  0.0964  0.0224 -1.9371
 6607TIP3    H241313   3.966   6.190  13.998 -0.2303 -0.7569 -0.8526
 6608TIP3   OH241314   0.392   2.803  14.858 -0.1183 -0.4174 -0.0549
 6608TIP3    H141315   0.315   2.845  14.818  1.3350  1.3989 -1.0811
 6608TIP3    H241316   0.402   2.847  14.942  0.0739 -0.3473 -0.1165
 6609TIP3   OH241317   4.799   6.291   1.445  0.0760 -0.2334 -1.1481
 6609TIP3    H141318   4.747   6.368   1.422  0.3702  0.3656  0.0907
 6609TIP3    H241319   4.735   6.223   1.466 -0.2167  0.2240 -0.5268
 6610TIP3   OH241320   3.466   1.199  13.164  0.3824 -0.5680 -0.7324
 6610TIP3    H141321   3.430   1.157  13.085 -2.5650  0.6731 -0.1843
 6610TIP3    H241322   3.528   1.135  13.199 -0.7362 -2.5961 -2.2184
 6611TIP3   OH241323   4.548   6.623   3.318  0.7880  0.1330 -0.4327
 6611TIP3    H141324   4.589   6.605   3.233  0.5940  0.0080 -0.5008
 6611TIP3    H241325   4.474   6.563   3.321 -1.0267  2.1986 -1.4749
 6612TIP3   OH241326   4.991   3.926   3.581 -0.3935  0.0965  0.5594
 6612TIP3    H141327   4.937   3.938   3.660 -0.5938  1.6658  0.2102
 6612TIP3    H241328   5.080   3.946   3.610 -0.6491  2.0815  0.1125
 6613TIP3   OH241329   6.668   5.534   5.213 -0.2438 -0.4025 -0.2434
 6613TIP3    H141330   6.633   5.622   5.197 -1.6432 -0.8883  0.0086
 6613TIP3    H241331   6.739   5.525   5.149 -0.0276  0.9246 -0.2313
 6614TIP3   OH241332   5.506   4.463   0.676 -0.5334  0.3354 -0.1388
 6614TIP3    H141333   5.550   4.403   0.736 -0.9043 -1.8296 -1.9193
 6614TIP3    H241334   5.445   4.512   0.732 -0.8492 -1.5683  1.2739
 6615TIP3   OH241335   4.743   6.612   4.993 -0.6904 -0.1535  0.1365
 6615TIP3    H141336   4.748   6.557   5.071 -0.2932  0.8489  0.8473
 6615TIP3    H241337   4.833   6.644   4.981 -0.9795  0.6150 -0.0389
 6616TIP3   OH241338   4.768   0.209   2.635  0.0018 -0.3766  0.1428
 6616TIP3    H141339   4.830   0.279   2.656  0.5422 -0.5418 -0.8217
 6616TIP3    H241340   4.814   0.154   2.572 -0.8477 -0.9447 -0.0081
 6617TIP3   OH241341   1.110   6.705  14.400  0.0843  0.5023 -0.3618
 6617TIP3    H141342   1.016   6.717  14.413  0.0201 -1.2008  1.0752
 6617TIP3    H241343   1.118   6.617  14.364  1.1804  0.4107  0.0823
 6618TIP3   OH241344   6.424   2.026  17.169  0.4603 -0.1418 -0.1943
 6618TIP3    H141345   6.432   2.082  17.246 -0.5117 -0.6459  0.2891
 6618TIP3    H241346   6.348   2.060  17.122 -0.7294 -1.6055  0.6010
 6619TIP3   OH241347   1.454   5.585  15.973  0.9240 -0.2734 -0.8750
 6619TIP3    H141348   1.367   5.579  16.011  0.4772 -0.8159 -1.9139
 6619TIP3    H241349   1.513   5.549  16.039  0.5151  1.0884  0.2630
 6620TIP3   OH241350   1.997   3.226  11.232  0.4142 -0.3093  0.3655
 6620TIP3    H141351   2.028   3.316  11.243 -1.1680  0.3813 -0.4246
 6620TIP3    H241352   2.052   3.189  11.164  1.3313 -0.0800  0.9676
 6621TIP3   OH241353   2.787   2.414   3.074 -0.1835 -0.0386  0.2816
 6621TIP3    H141354   2.812   2.506   3.070 -1.3925  0.2605 -0.7205
 6621TIP3    H241355   2.805   2.379   2.987 -0.5463 -0.5308  0.3942
 6622TIP3   OH241356   5.669   1.612   1.485  0.3395  0.3953 -0.6698
 6622TIP3    H141357   5.677   1.703   1.459  4.3506  0.3054 -0.4001
 6622TIP3    H241358   5.626   1.615   1.570 -1.4112  1.7817 -1.5469
 6623TIP3   OH241359   1.308   0.851   1.716  0.7853 -0.4403  0.5128
 6623TIP3    H141360   1.327   0.825   1.626 -2.4622  0.3928 -0.5678
 6623TIP3    H241361   1.318   0.771   1.767  0.6078 -1.4374 -0.9694
 6624TIP3   OH241362   2.221   4.938   2.700 -0.5364 -0.1268 -0.2850
 6624TIP3    H141363   2.228   5.029   2.729  1.4331 -0.2302 -0.2770
 6624TIP3    H241364   2.283   4.931   2.628 -1.4467 -1.2115 -0.9942
 6625TIP3   OH241365   2.751   3.625   3.042  0.5036 -0.3589 -0.2751
 6625TIP3    H141366   2.680   3.670   3.086 -0.2966 -1.2048 -0.6546
 6625TIP3    H241367   2.749   3.536   3.077  1.0968 -0.5103 -0.6009
 6626TIP3   OH241368   3.963   1.485  14.105  0.4853  0.6997 -0.2158
 6626TIP3    H141369   3.933   1.476  14.196  0.5383  0.3293 -0.2352
 6626TIP3    H241370   4.048   1.528  14.113  2.2594 -2.5822  0.1859
 6627TIP3   OH241371   2.623   1.691   4.665 -0.2352  0.2790  0.4296
 6627TIP3    H141372   2.599   1.677   4.757  0.6783 -2.4485  0.3369
 6627TIP3    H241373   2.585   1.617   4.619  0.9008  0.6033 -1.1026
 6628TIP3   OH241374   6.275   6.024  15.000 -0.1616  0.2902  0.5824
 6628TIP3    H141375   6.340   6.070  15.053 -0.3792  0.5283  0.6456
 6628TIP3    H241376   6.308   5.935  14.992 -0.2970  0.1575  1.4114
 6629TIP3   OH241377   4.270   4.556   3.903  0.0825 -0.6498  0.1374
 6629TIP3    H141378   4.270   4.645   3.936  2.2422 -0.1375 -1.0926
 6629TIP3    H241379   4.177   4.535   3.891 -0.6474  0.2287  3.3921
 6630TIP3   OH241380   1.402   5.861   0.265  0.6556  0.2520 -0.2181
 6630TIP3    H141381   1.391   5.781   0.315  0.7351  0.1414 -0.3774
 6630TIP3    H241382   1.388   5.931   0.328 -0.6186  0.1175 -0.3248
 6631TIP3   OH241383   1.696   6.347  13.460  0.2383 -0.2697  0.3122
 6631TIP3    H141384   1.748   6.396  13.396 -0.3022 -0.7155 -0.4744
 6631TIP3    H241385   1.621   6.314  13.411 -0.1391 -0.6995  1.1540
 6632TIP3   OH241386   1.635   2.934  17.183 -0.6332  0.5214 -0.0055
 6632TIP3    H141387   1.620   2.953  17.091 -1.3085  3.7847  0.6330
 6632TIP3    H241388   1.551   2.899  17.215 -1.5685  2.6005 -0.0058
 6633TIP3   OH241389   0.295   1.216   4.424 -0.4753 -0.5729  0.1763
 6633TIP3    H141390   0.343   1.205   4.342 -0.1913 -2.0011  0.4916
 6633TIP3    H241391   0.250   1.132   4.436 -1.1183 -0.1160  1.0993
 6634TIP3   OH241392   5.607   6.313  12.161 -0.4591 -0.1232 -0.3134
 6634TIP3    H141393   5.640   6.384  12.105  0.9857 -0.5189 -0.0240
 6634TIP3    H241394   5.587   6.356  12.245  0.0439  0.0217 -0.2624
 6635TIP3   OH241395   0.109   4.229   2.195  0.2158 -0.1572  0.1005
 6635TIP3    H141396   0.092   4.317   2.230 -0.1118 -0.3728  0.4964
 6635TIP3    H241397   0.121   4.175   2.273  0.1436 -0.5196 -0.1392
 6636TIP3   OH241398   4.772   5.501  16.305  0.0768  0.3677 -0.3983
 6636TIP3    H141399   4.820   5.476  16.384 -1.5416 -0.9577  0.2267
 6636TIP3    H241400   4.800   5.438  16.239 -2.3934 -1.9240  0.5918
 6637TIP3   OH241401   4.707   5.164  16.498  0.3749  0.0876 -0.1342
 6637TIP3    H141402   4.681   5.197  16.412  1.2457 -0.2580 -0.5443
 6637TIP3    H241403   4.626   5.166  16.550 -0.2868 -0.1803 -1.1114
 6638TIP3   OH241404   3.739   4.505  13.833 -0.4414 -0.8843  0.6508
 6638TIP3    H141405   3.755   4.478  13.923  1.4909 -1.4634  0.1836
 6638TIP3    H241406   3.722   4.599  13.839  0.9208 -0.6559  1.5390
 6639TIP3   OH241407   4.849   4.270   3.889 -0.6882  0.2293 -0.1371
 6639TIP3    H141408   4.827   4.288   3.797  0.1671  0.4869 -0.3059
 6639TIP3    H241409   4.869   4.357   3.925  1.4456 -0.0992 -0.3940
 6640TIP3   OH241410   1.519   3.563  10.594  0.3446  0.0183 -0.2405
 6640TIP3    H141411   1.467   3.610  10.529  1.0260  0.2776 -0.6052
 6640TIP3    H241412   1.548   3.484  10.548 -1.5112 -1.2329  0.6251
 6641TIP3   OH241413   1.015   3.079  15.227  0.3826 -0.0081  0.5438
 6641TIP3    H141414   1.100   3.074  15.184 -0.1060 -0.3415 -0.4169
 6641TIP3    H241415   1.000   2.990  15.260 -0.4211 -0.4624 -0.9632
 6642TIP3   OH241416   2.367   6.668   2.705 -0.2756  0.0595  0.2234
 6642TIP3    H141417   2.397   6.759   2.714 -0.5117  0.2668 -0.9236
 6642TIP3    H241418   2.445   6.621   2.676 -0.0385 -0.2013  1.2564
 6643TIP3   OH241419   2.785   0.065  13.547 -0.6043 -0.1487 -0.4646
 6643TIP3    H141420   2.743   0.128  13.489  0.2878  1.5079  0.6121
 6643TIP3    H241421   2.767   0.097  13.635  1.5422 -0.2530  0.0590
 6644TIP3   OH241422   0.420   4.790   3.071  0.5651 -0.1541 -0.2539
 6644TIP3    H141423   0.415   4.768   3.164  0.0380  0.6863 -0.0682
 6644TIP3    H241424   0.509   4.822   3.058  1.0274 -1.4365 -0.3166
 6645TIP3   OH241425   0.454   2.000   3.030  0.3796 -0.0017  0.0757
 6645TIP3    H141426   0.527   2.023   2.972  0.5031 -2.1420 -0.7181
 6645TIP3    H241427   0.390   2.069   3.017  2.0564  1.7079  0.4652
 6646TIP3   OH241428   5.289   0.460   5.183 -0.3962  0.0036 -0.5343
 6646TIP3    H141429   5.225   0.510   5.234  1.4719  2.7367 -0.6625
 6646TIP3    H241430   5.238   0.391   5.141 -3.0786  1.4984  0.0654
 6647TIP3   OH241431   1.418   0.109  17.015  0.5468  0.0578 -0.0797
 6647TIP3    H141432   1.411   0.204  17.020 -0.2595  0.0795 -1.0964
 6647TIP3    H241433   1.345   0.083  16.958  0.6611 -1.1831  0.3037
 6648TIP3   OH241434   6.018   4.801  15.917 -0.3021  0.2411  0.2612
 6648TIP3    H141435   6.044   4.747  15.843  2.1489  0.1862  1.0840
 6648TIP3    H241436   5.936   4.761  15.948 -0.2722 -0.9773 -1.1298
 6649TIP3   OH241437   3.243   2.797   2.056 -1.1274 -0.1862 -0.1977
 6649TIP3    H141438   3.216   2.801   2.148 -0.9334 -2.1736 -0.0134
 6649TIP3    H241439   3.332   2.762   2.059 -2.0851 -3.0300 -1.1820
 6650TIP3   OH241440   1.622   5.595   3.912 -0.0774  0.5682 -0.3657
 6650TIP3    H141441   1.594   5.547   3.834  2.2585  0.3905 -1.1753
 6650TIP3    H241442   1.678   5.665   3.878  0.7696  0.6557  1.1292
 6651TIP3   OH241443   0.532   5.400  15.633 -0.7909  0.3623  0.3223
 6651TIP3    H141444   0.628   5.395  15.627 -0.7973  1.4139 -1.4999
 6651TIP3    H241445   0.506   5.319  15.676  0.9760  0.5260  1.8358
 6652TIP3   OH241446   5.767   2.774   5.262 -0.1764 -0.2864  0.1987
 6652TIP3    H141447   5.721   2.807   5.185  0.4764  0.5797  0.1697
 6652TIP3    H241448   5.727   2.689   5.279  0.9030 -1.3608 -2.2109
 6653TIP3   OH241449   4.680   6.321  15.550 -0.0351  0.3887  0.0574
 6653TIP3    H141450   4.716   6.398  15.594  1.4552 -0.3019  0.1165
 6653TIP3    H241451   4.717   6.324  15.462  2.0279 -1.4855  0.7747
 6654TIP3   OH241452   5.135   1.102  13.483  0.1081  0.4044  0.1753
 6654TIP3    H141453   5.072   1.030  13.482  1.2460 -0.6246 -0.0950
 6654TIP3    H241454   5.205   1.072  13.542  1.2392  0.6927 -0.9610
 6655TIP3   OH241455   5.795   5.894   4.945  0.5462 -0.4807 -0.2159
 6655TIP3    H141456   5.811   5.843   4.865  0.4105  1.3907 -1.5092
 6655TIP3    H241457   5.864   5.867   5.005 -1.0978 -4.1738  0.2720
 6656TIP3   OH241458   1.916   5.021   4.553 -0.1040  0.3352  0.0140
 6656TIP3    H141459   1.951   4.935   4.578 -1.4275 -0.8684 -1.9776
 6656TIP3    H241460   1.930   5.076   4.630  1.3485 -1.4848  1.1401
 6657TIP3   OH241461   1.594   2.818  11.167 -0.0454 -0.5677  0.5894
 6657TIP3    H141462   1.597   2.910  11.196  2.5050 -0.9052  1.7216
 6657TIP3    H241463   1.680   2.804  11.126 -1.0071 -2.0477 -1.0538
 6658TIP3   OH241464   3.577   0.471  14.118 -0.4169 -0.2102  0.8212
 6658TIP3    H141465   3.594   0.428  14.034  0.4945  0.6334  0.5624
 6658TIP3    H241466   3.533   0.553  14.095 -1.0765 -0.4353  1.2408
 6659TIP3   OH241467   2.156   3.466   3.759  0.1447 -0.2687 -0.5561
 6659TIP3    H141468   2.200   3.540   3.718 -0.1032 -0.3349 -0.9468
 6659TIP3    H241469   2.080   3.504   3.803  1.1269 -0.0057  0.9944
 6660TIP3   OH241470   3.592   6.289  16.490 -0.4089  0.0729  0.1628
 6660TIP3    H141471   3.628   6.339  16.416 -0.8263  1.4307  0.8429
 6660TIP3    H241472   3.500   6.275  16.467 -0.9115  1.7356  1.0124
 6661TIP3   OH241473   6.317   6.717   1.740 -0.5174 -0.1828 -0.6506
 6661TIP3    H141474   6.279   6.655   1.677 -2.9200  0.7834 -0.2489
 6661TIP3    H241475   6.284   6.688   1.825 -0.6333  0.8994 -0.3178
 6662TIP3   OH241476   3.001   1.267  11.756  0.1084  0.3959  0.1809
 6662TIP3    H141477   2.991   1.361  11.768 -0.5404  0.2776  0.5827
 6662TIP3    H241478   3.065   1.241  11.822  0.7472  0.6474 -0.3301
 6663TIP3   OH241479   4.021   6.094  13.231  0.2303 -0.3793  0.4400
 6663TIP3    H141480   4.018   6.045  13.313 -0.4110 -0.2603  0.4895
 6663TIP3    H241481   3.932   6.090  13.197  0.4379 -0.2338 -0.1396
 6664TIP3   OH241482   0.621   1.964  13.604  0.1817 -0.5385 -0.1132
 6664TIP3    H141483   0.567   1.917  13.666  0.7404 -1.2359 -0.1388
 6664TIP3    H241484   0.661   2.035  13.655 -0.1856 -0.4583  0.0649
 6665TIP3   OH241485   3.676   2.630  16.329  0.8031  0.1941  0.3777
 6665TIP3    H141486   3.605   2.601  16.272 -0.1922  0.6117  1.3626
 6665TIP3    H241487   3.632   2.658  16.409  2.1844 -0.7369  1.5141
 6666TIP3   OH241488   5.989   1.078  12.612 -0.1647 -0.3625 -0.3585
 6666TIP3    H141489   6.010   1.004  12.556 -1.0030 -0.1897 -0.9154
 6666TIP3    H241490   6.071   1.127  12.619  0.5147 -1.5525  0.3621
 6667TIP3   OH241491   6.047   1.084   5.791  0.8154  0.0985 -0.1094
 6667TIP3    H141492   5.989   1.017   5.827  0.3527  0.4500 -0.1745
 6667TIP3    H241493   6.113   1.098   5.858  0.2513  0.3892  0.3937
 6668TIP3   OH241494   6.299   0.533   1.052 -0.3278 -0.8096 -0.2633
 6668TIP3    H141495   6.310   0.544   0.958  0.9271  0.0238 -0.0319
 6668TIP3    H241496   6.265   0.617   1.083 -2.0571 -1.5125 -0.1389
 6669TIP3   OH241497   1.357   0.944   1.116 -0.8504  0.3508 -0.3201
 6669TIP3    H141498   1.400   0.883   1.056 -0.7908  0.9175 -0.8642
 6669TIP3    H241499   1.275   0.900   1.140 -0.7298 -0.0183 -0.5750
 6670TIP3   OH241500   0.920   0.689  16.220 -0.0407 -0.3133  0.0177
 6670TIP3    H141501   0.980   0.644  16.279  1.6028  0.6157 -0.8750
 6670TIP3    H241502   0.953   0.669  16.132  0.7487  2.5341 -0.4168
 6671TIP3   OH241503   3.579   3.574  16.282 -0.1003  0.2031 -0.5714
 6671TIP3    H141504   3.521   3.499  16.270  0.0088  0.0283 -0.0171
 6671TIP3    H241505   3.604   3.571  16.374 -0.7183  1.3695 -0.3493
 6672TIP3   OH241506   3.155   2.729  13.757  0.6583  0.0642 -0.7718
 6672TIP3    H141507   3.229   2.698  13.705  1.6926  0.0840  0.6396
 6672TIP3    H241508   3.160   2.679  13.839  0.0613  1.1998 -0.0111
 6673TIP3   OH241509   3.546   3.467   4.175  0.2261 -0.1767  0.2888
 6673TIP3    H141510   3.595   3.536   4.219  0.3392 -1.1199  1.7132
 6673TIP3    H241511   3.597   3.447   4.097  0.3793  1.0878  0.0497
 6674TIP3   OH241512   0.192   6.788  14.309  0.1377  0.1843 -0.1360
 6674TIP3    H141513   0.227   6.750  14.228 -0.9218 -0.3603 -0.3562
 6674TIP3    H241514   0.240   6.870  14.320  2.6984 -1.2867  0.4772
 6675TIP3   OH241515   0.826   4.179   4.910 -0.1738 -0.6485  0.2445
 6675TIP3    H141516   0.799   4.134   4.830  2.7921  0.2769 -1.4051
 6675TIP3    H241517   0.845   4.108   4.972 -0.5384 -1.4598 -0.5529
 6676TIP3   OH241518   4.812   0.972   2.682  0.4653 -0.5861 -0.4849
 6676TIP3    H141519   4.852   0.895   2.640  1.4083  0.9412 -2.5722
 6676TIP3    H241520   4.721   0.969   2.655  0.0327 -1.9000  0.9581
 6677TIP3   OH241521   5.025   3.211   2.749  0.3310  0.8362  0.8130
 6677TIP3    H141522   4.981   3.295   2.762 -0.5431  0.3918  0.8366
 6677TIP3    H241523   5.103   3.215   2.804 -1.0611  0.6238  2.8820
 6678TIP3   OH241524   1.418   4.794   2.700 -0.1594 -0.1490  0.3633
 6678TIP3    H141525   1.348   4.779   2.763 -0.5212 -0.9946 -0.2119
 6678TIP3    H241526   1.379   4.771   2.615  0.3129  0.9538 -0.1770
 6679TIP3   OH241527   6.708   2.429  15.182 -0.4336 -0.0302  0.3380
 6679TIP3    H141528   6.765   2.478  15.123 -0.7923  0.1875  0.1681
 6679TIP3    H241529   6.762   2.415  15.260 -0.5937  1.4087  0.7496
 6680TIP3   OH241530   5.411   5.621   0.953 -0.4166 -0.2645  0.3669
 6680TIP3    H141531   5.495   5.629   0.908  0.6875 -4.1775  1.3317
 6680TIP3    H241532   5.430   5.647   1.043 -0.2421 -0.9946  0.5479
 6681TIP3   OH241533   1.396   1.138   4.567 -0.4465 -0.5742 -0.3112
 6681TIP3    H141534   1.353   1.112   4.486  0.6616  0.9347 -1.4492
 6681TIP3    H241535   1.351   1.218   4.594 -0.4928 -0.8014  0.3137
 6682TIP3   OH241536   1.200   5.976   3.743  0.3256 -0.3859 -0.2921
 6682TIP3    H141537   1.170   5.912   3.807 -0.5834 -0.3409 -0.6655
 6682TIP3    H241538   1.285   5.943   3.715  0.6635 -0.4975  0.7980
 6683TIP3   OH241539   0.853   5.284  16.361  0.1471 -1.2830 -0.7029
 6683TIP3    H141540   0.913   5.244  16.299  0.5889  1.1972 -1.9895
 6683TIP3    H241541   0.814   5.358  16.314 -1.5284 -0.9034  1.1269
 6684TIP3   OH241542   4.465   6.486   1.088 -0.7410 -0.2213  0.3655
 6684TIP3    H141543   4.555   6.453   1.101 -1.2159 -1.2054  1.3618
 6684TIP3    H241544   4.476   6.579   1.069  0.5687 -0.5805 -0.8454
 6685TIP3   OH241545   1.761   0.351  10.602  0.8275 -0.1739  0.1229
 6685TIP3    H141546   1.689   0.301  10.641  1.0857 -0.2213  0.5348
 6685TIP3    H241547   1.766   0.318  10.512  0.1213  0.0606 -0.0122
 6686TIP3   OH241548   4.723   2.834   4.858 -0.0715 -0.0854  0.4743
 6686TIP3    H141549   4.727   2.784   4.776 -0.4746  0.3581  0.1740
 6686TIP3    H241550   4.697   2.922   4.830  0.5691  0.2754  0.9980
 6687TIP3   OH241551   3.519   6.431  13.903 -0.0519 -0.2128 -0.2029
 6687TIP3    H141552   3.603   6.386  13.906  0.1645  0.2135  0.1796
 6687TIP3    H241553   3.482   6.417  13.991  0.0899  0.4973 -0.0311
 6688TIP3   OH241554   2.642   4.043   5.677 -0.1628 -0.2764 -0.2513
 6688TIP3    H141555   2.649   4.092   5.759  1.0094  1.2669 -1.2173
 6688TIP3    H241556   2.691   3.962   5.692 -0.0531 -0.0565  0.6019
 6689TIP3   OH241557   1.350   4.922   0.490  0.1544  0.0607 -0.0655
 6689TIP3    H141558   1.285   4.912   0.420  0.5477  0.3872 -0.4884
 6689TIP3    H241559   1.323   5.002   0.535 -0.3391 -0.3762  0.4217
 6690TIP3   OH241560   2.375   1.627  14.525 -0.0362  0.3086 -0.6507
 6690TIP3    H141561   2.299   1.585  14.484 -0.1267  0.3463 -0.5252
 6690TIP3    H241562   2.397   1.700  14.469  0.6235 -0.3730 -1.3104
 6691TIP3   OH241563   4.421   0.563   5.249 -0.3378  0.0718  0.2292
 6691TIP3    H141564   4.328   0.578   5.268 -0.3700  1.2976 -0.7711
 6691TIP3    H241565   4.422   0.486   5.192 -0.6451 -0.5367  1.0272
 6692TIP3   OH241566   1.623   1.690   1.373  0.2374  0.0315 -0.7180
 6692TIP3    H141567   1.626   1.610   1.321  3.1483  1.5336 -3.2257
 6692TIP3    H241568   1.715   1.714   1.385 -0.3616  1.1311  3.2074
 6693TIP3   OH241569   0.722   4.728  10.315 -0.3158 -0.5281 -0.2664
 6693TIP3    H141570   0.698   4.643  10.279  0.6088  0.3056 -3.0965
 6693TIP3    H241571   0.649   4.786  10.293  0.1797 -0.0403 -0.6701
 6694TIP3   OH241572   4.228   2.047   6.013  0.6950  0.3987 -0.0569
 6694TIP3    H141573   4.258   2.034   6.103 -0.1367 -0.1182  0.1514
 6694TIP3    H241574   4.256   2.136   5.992 -1.0369  1.3713  1.4978
 6695TIP3   OH241575   2.478   3.137  15.387 -0.0743 -0.1591 -0.4152
 6695TIP3    H141576   2.393   3.099  15.406  0.0647 -0.7249 -0.8727
 6695TIP3    H241577   2.529   3.125  15.467  0.0241 -1.1289 -0.6066
 6696TIP3   OH241578   3.802   6.563  11.193  0.2433  0.1070 -0.0632
 6696TIP3    H141579   3.819   6.539  11.102 -0.3956  0.2978 -0.2365
 6696TIP3    H241580   3.888   6.589  11.227  0.3552  0.7507 -0.8239
 6697TIP3   OH241581   1.783   4.658   3.463 -0.0460 -0.7217  0.1011
 6697TIP3    H141582   1.787   4.662   3.368  3.1379 -0.4554  0.1511
 6697TIP3    H241583   1.745   4.743   3.489  0.5498 -0.1477 -0.8800
 6698TIP3   OH241584   1.899   1.005   0.151  0.0039 -0.6963 -0.6428
 6698TIP3    H141585   1.812   1.001   0.112  1.1813 -0.6322 -3.4792
 6698TIP3    H241586   1.923   0.914   0.167  0.0432 -0.8121 -1.3563
 6699TIP3   OH241587   0.391   0.346   1.902  0.0400 -0.0094 -0.2137
 6699TIP3    H141588   0.369   0.414   1.838 -0.0513  0.5899  0.4296
 6699TIP3    H241589   0.468   0.303   1.866  0.4812  0.8584 -0.3562
 6700TIP3   OH241590   4.933   1.721   2.502 -0.0969  0.4739 -0.3796
 6700TIP3    H141591   4.876   1.676   2.564 -0.7939  1.5614 -0.2128
 6700TIP3    H241592   4.976   1.789   2.553 -0.5270  1.2535 -1.0413
 6701TIP3   OH241593   0.340   4.635  15.541 -0.5911 -0.7958  0.4305
 6701TIP3    H141594   0.287   4.657  15.464  0.7763 -1.5280 -0.7845
 6701TIP3    H241595   0.291   4.566  15.585 -2.8125  1.5212  1.9033
 6702TIP3   OH241596   1.686   0.633   4.554  0.4258  0.0835 -0.0709
 6702TIP3    H141597   1.681   0.588   4.469 -0.3932 -0.7819  0.4280
 6702TIP3    H241598   1.614   0.597   4.605  0.5490  1.0351  0.7980
 6703TIP3   OH241599   2.266   2.630   4.056 -0.3873  0.5181 -0.5306
 6703TIP3    H141600   2.264   2.720   4.024 -1.8676 -0.6047 -3.9850
 6703TIP3    H241601   2.174   2.607   4.070  0.0025 -0.3198  0.9459
 6704TIP3   OH241602   2.634   5.675  13.283 -0.4305  0.3045  0.8358
 6704TIP3    H141603   2.572   5.619  13.236  1.6390 -1.1769 -0.3150
 6704TIP3    H241604   2.667   5.735  13.216  4.1862 -3.2217 -0.5869
 6705TIP3   OH241605   6.384   4.303   1.648 -0.0787 -0.6508 -0.2336
 6705TIP3    H141606   6.330   4.230   1.677  1.1147 -2.2781 -1.9445
 6705TIP3    H241607   6.378   4.303   1.553  2.0270 -0.2125 -0.4279
 6706TIP3   OH241608   1.055   3.238   3.145  0.3130 -0.0262  0.4192
 6706TIP3    H141609   1.009   3.155   3.137 -1.4351  0.9562 -0.4948
 6706TIP3    H241610   1.006   3.286   3.212 -1.8800  2.0812 -2.4004
 6707TIP3   OH241611   1.218   4.205  13.525  0.5726  0.4636 -0.4656
 6707TIP3    H141612   1.139   4.153  13.513  0.1130  1.2051 -0.7661
 6707TIP3    H241613   1.245   4.189  13.616  1.3131 -1.4514 -0.9794
 6708TIP3   OH241614   3.310   3.135  14.955  0.3735 -0.0224 -0.2227
 6708TIP3    H141615   3.264   3.140  14.871 -1.3184  0.2857  0.6578
 6708TIP3    H241616   3.344   3.223  14.969 -3.0256  1.2514  1.2702
 6709TIP3   OH241617   6.135   6.736   5.545 -0.1290  0.0500  0.4596
 6709TIP3    H141618   6.050   6.748   5.504 -0.2244  0.1511  0.6802
 6709TIP3    H241619   6.128   6.653   5.593 -0.3404  0.4017  1.0477
 6710TIP3   OH241620   5.398   5.700  15.981  0.4218  0.0788 -0.2347
 6710TIP3    H141621   5.462   5.690  16.052  0.9690 -0.8987 -0.8374
 6710TIP3    H241622   5.431   5.644  15.911  0.2077  1.5006 -1.5033
 6711TIP3   OH241623   5.481   4.982   5.194 -0.1872 -0.4441  0.0451
 6711TIP3    H141624   5.515   5.034   5.266 -0.7471  0.0915 -0.0603
 6711TIP3    H241625   5.479   4.892   5.227 -0.5206 -0.1936  0.7338
 6712TIP3   OH241626   5.998   3.954  13.099  0.3518 -0.5177  0.2172
 6712TIP3    H141627   5.988   4.049  13.101 -1.2898 -0.6710  0.7411
 6712TIP3    H241628   6.057   3.938  13.026 -0.3492  0.8285 -0.6946
 6713TIP3   OH241629   6.493   3.744  14.916  0.1678 -0.2258  0.3937
 6713TIP3    H141630   6.489   3.825  14.865  0.7505  0.3210  1.1775
 6713TIP3    H241631   6.587   3.725  14.922  0.0714 -0.5987  0.7632
 6714TIP3   OH241632   2.181   4.996  13.835  0.1106  0.0521  0.0775
 6714TIP3    H141633   2.147   4.935  13.901  1.0828  0.2009  0.7299
 6714TIP3    H241634   2.274   4.975  13.828  0.0015 -0.0754 -1.3871
 6715TIP3   OH241635   6.379   3.039  13.750  0.0848 -0.9096 -0.4985
 6715TIP3    H141636   6.311   3.096  13.713 -0.3535 -0.3324  1.1141
 6715TIP3    H241637   6.388   3.069  13.840  2.2325 -1.2214 -0.5670
 6716TIP3   OH241638   3.495   5.854  14.917  1.3208  0.1214  0.0685
 6716TIP3    H141639   3.571   5.906  14.943  0.8878 -0.0957  1.9203
 6716TIP3    H241640   3.528   5.764  14.911  1.0372 -0.1659  2.0304
 6717TIP3   OH241641   0.605   5.393  12.118  0.5966 -0.0713 -0.3366
 6717TIP3    H141642   0.529   5.364  12.068 -0.2374  0.4614  0.5872
 6717TIP3    H241643   0.667   5.321  12.112 -0.5600 -1.1355  0.1004
 6718TIP3   OH241644   6.785   3.235  14.236  0.6471 -0.0466  0.6288
 6718TIP3    H141645   6.787   3.141  14.215  0.6579 -0.1830  1.2198
 6718TIP3    H241646   6.697   3.263  14.212  0.2111 -0.4972  1.6308
 6719TIP3   OH241647   5.066   1.340  13.719 -0.0615  0.2939  0.0875
 6719TIP3    H141648   5.037   1.321  13.630  0.6011 -0.5823  0.0478
 6719TIP3    H241649   4.986   1.354  13.769 -0.5613 -1.7735 -0.0740
 6720TIP3   OH241650   4.903   4.192  12.851  0.0041 -0.3984 -0.1062
 6720TIP3    H141651   4.822   4.143  12.863 -0.0474 -0.0223  1.2955
 6720TIP3    H241652   4.943   4.194  12.938  0.8325  0.5944 -0.4887
 6721TIP3   OH241653   3.389   4.377  13.996 -0.1224 -0.1916 -0.3523
 6721TIP3    H141654   3.371   4.470  13.984 -0.7642  0.0822  2.0996
 6721TIP3    H241655   3.336   4.352  14.073 -0.8337 -2.8538 -1.5817
 6722TIP3   OH241656   2.606   5.139   3.969  0.6063  0.3543  0.0725
 6722TIP3    H141657   2.674   5.140   3.901  1.2410  1.5550  0.6962
 6722TIP3    H241658   2.646   5.183   4.044  0.4370 -2.2154  1.7907
 6723TIP3   OH241659   4.165   0.306  16.850  0.7709 -0.1750 -0.0137
 6723TIP3    H141660   4.118   0.256  16.783 -0.0002 -1.0794  1.1796
 6723TIP3    H241661   4.252   0.319  16.812  0.3232 -0.5748 -1.2331
 6724TIP3   OH241662   2.692   0.931  13.297  0.0291 -0.3454  0.2784
 6724TIP3    H141663   2.679   0.975  13.381 -0.3002  0.1640 -0.0381
 6724TIP3    H241664   2.777   0.887  13.306 -0.4247 -1.0568  1.2040
 6725TIP3   OH241665   2.916   3.487  14.021 -0.0510 -0.0890 -0.5692
 6725TIP3    H141666   3.001   3.497  14.065 -0.4246 -1.5276  0.5671
 6725TIP3    H241667   2.857   3.460  14.091 -0.9977 -1.0644 -1.7105
 6726TIP3   OH241668   5.426   5.121  11.279  0.0423  0.0512 -0.4990
 6726TIP3    H141669   5.490   5.115  11.350 -1.0077 -2.4879  0.3408
 6726TIP3    H241670   5.427   5.034  11.239 -1.3925  0.6081 -1.8255
 6727TIP3   OH241671   2.023   6.235  14.384  0.7006  0.2560 -0.4084
 6727TIP3    H141672   2.017   6.159  14.325  1.3228 -0.5126  0.4909
 6727TIP3    H241673   1.956   6.295  14.352  0.9272 -0.1938 -1.8177
 6728TIP3   OH241674   5.763   3.041   5.356  0.0352 -0.4121 -0.1317
 6728TIP3    H141675   5.753   2.948   5.332  0.4640  0.2703 -3.4762
 6728TIP3    H241676   5.839   3.070   5.306 -1.1031  2.1364 -0.5194
 6729TIP3   OH241677   6.626   0.449  13.716  0.2336  0.6098  0.0196
 6729TIP3    H141678   6.554   0.494  13.760 -0.8282 -1.4692  0.5448
 6729TIP3    H241679   6.583   0.383  13.661  1.6455 -2.9853  2.8537
 6730TIP3   OH241680   2.803   0.316  15.851 -0.5205  0.1414  0.3865
 6730TIP3    H141681   2.846   0.402  15.850 -0.3475  0.0591  0.5747
 6730TIP3    H241682   2.768   0.305  15.762  0.4037 -0.0685  0.0402
 6731TIP3   OH241683   5.804   1.652   2.554  0.2706 -0.2120 -0.0622
 6731TIP3    H141684   5.769   1.740   2.568 -0.8513 -0.7261  0.5032
 6731TIP3    H241685   5.886   1.666   2.507  0.2550  1.1506  0.2761
 6732TIP3   OH241686   6.534   6.570   3.129  0.5885  0.0309  0.1446
 6732TIP3    H141687   6.603   6.504   3.123  0.1422 -0.4709  0.4218
 6732TIP3    H241688   6.579   6.654   3.114  1.0947 -0.3649 -0.5870
 6733TIP3   OH241689   6.358   0.598  12.507  0.5751 -0.0413  0.7630
 6733TIP3    H141690   6.448   0.626  12.496  0.7528 -0.5665  0.8570
 6733TIP3    H241691   6.350   0.520  12.453 -0.2016  0.7575 -0.3311
 6734TIP3   OH241692   0.350   3.621  16.352  0.0620  1.2289  0.3415
 6734TIP3    H141693   0.445   3.607  16.361  0.1008  0.7891 -0.6320
 6734TIP3    H241694   0.333   3.702  16.400  1.2126  2.2411 -0.9005
 6735TIP3   OH241695   2.264   0.209  11.527 -0.1054  0.3726 -0.4362
 6735TIP3    H141696   2.347   0.168  11.504  0.1923  1.1644 -0.8073
 6735TIP3    H241697   2.284   0.263  11.604 -0.3142  0.4307 -0.4206
 6736TIP3   OH241698   4.682   4.533   1.960 -0.0847 -0.0323 -0.2151
 6736TIP3    H141699   4.668   4.492   2.045 -2.5574 -0.9268 -0.9628
 6736TIP3    H241700   4.622   4.608   1.959 -1.7047 -1.2622 -1.8909
 6737TIP3   OH241701   5.712   1.363  13.977  0.3481  0.1147  0.1977
 6737TIP3    H141702   5.717   1.416  13.898  1.4470  1.1131  0.9170
 6737TIP3    H241703   5.755   1.415  14.044 -0.8742 -0.5677  1.5524
 6738TIP3   OH241704   0.623   1.168  16.005 -0.5089  0.0716 -0.5282
 6738TIP3    H141705   0.546   1.150  15.950  0.8228 -0.1522 -2.3993
 6738TIP3    H241706   0.675   1.231  15.955  0.4829  0.3191  0.7563
 6739TIP3   OH241707   2.306   3.718  13.874  0.2261 -0.2288 -0.4329
 6739TIP3    H141708   2.372   3.786  13.865 -1.9081  2.1896  0.7234
 6739TIP3    H241709   2.309   3.669  13.792  0.9143  2.2087 -1.9709
 6740TIP3   OH241710   3.514   5.499   0.310 -0.0414  0.3554 -0.1540
 6740TIP3    H141711   3.439   5.518   0.253  0.6821  1.2239 -0.8547
 6740TIP3    H241712   3.554   5.584   0.326  1.6646 -0.2388 -1.0501
 6741TIP3   OH241713   1.317   6.559   6.564 -0.2852 -0.9657 -0.0722
 6741TIP3    H141714   1.258   6.633   6.571 -0.0417 -0.8990  2.3855
 6741TIP3    H241715   1.391   6.592   6.513 -0.7450  0.0958 -0.0787
 6742TIP3   OH241716   3.077   0.764   1.889 -0.2244  0.1790 -0.8468
 6742TIP3    H141717   3.049   0.808   1.809 -2.2971 -0.0282 -0.2930
 6742TIP3    H241718   3.053   0.824   1.960 -2.4340 -1.4131 -0.1252
 6743TIP3   OH241719   2.372   5.725   3.259  0.7618  0.0633  0.2356
 6743TIP3    H141720   2.447   5.693   3.209 -0.1117 -0.9186 -0.5090
 6743TIP3    H241721   2.298   5.673   3.226 -0.4750  1.8827  0.0172
 6744TIP3   OH241722   5.246   4.639   5.120  0.3796  0.7069  0.1638
 6744TIP3    H141723   5.266   4.546   5.127  1.6173  0.6686 -2.5390
 6744TIP3    H241724   5.178   4.654   5.185 -1.5247 -2.5784 -0.8598
 6745TIP3   OH241725   1.183   5.702   1.178  0.1795  0.5322 -0.2533
 6745TIP3    H141726   1.196   5.628   1.119  0.6034 -0.8526  1.4705
 6745TIP3    H241727   1.170   5.777   1.121  2.4229 -0.3697 -2.0935
 6746TIP3   OH241728   4.532   3.043   4.803  0.2761 -0.6069 -0.2384
 6746TIP3    H141729   4.512   3.022   4.712 -0.3456 -1.4131  0.0683
 6746TIP3    H241730   4.449   3.076   4.838  0.1236 -1.6336  0.3977
 6747TIP3   OH241731   1.067   6.627   6.215  0.5397 -0.3508  0.0410
 6747TIP3    H141732   1.053   6.705   6.269 -2.0142  0.1220 -1.1273
 6747TIP3    H241733   0.986   6.577   6.225  0.5375 -0.9114 -2.2492
 6748TIP3   OH241734   4.566   0.492   0.601 -0.7178 -0.2337 -0.6384
 6748TIP3    H141735   4.478   0.494   0.564 -1.7395 -1.6754  1.5435
 6748TIP3    H241736   4.617   0.441   0.537 -1.4973  0.4067 -1.8071
 6749TIP3   OH241737   1.656   1.749  13.641  0.1546  0.3634 -0.6697
 6749TIP3    H141738   1.603   1.670  13.655 -2.6140  2.0963 -0.5228
 6749TIP3    H241739   1.644   1.769  13.548  1.6040  0.1227 -0.9212
 6750TIP3   OH241740   1.423   3.661  15.826 -0.1724 -0.6274 -0.4034
 6750TIP3    H141741   1.449   3.582  15.872  2.5261  0.1011 -0.5011
 6750TIP3    H241742   1.474   3.661  15.745 -0.0096  1.2523 -0.3587
 6751TIP3   OH241743   5.867   4.300   2.428  0.2267  0.1293  0.4726
 6751TIP3    H141744   5.853   4.286   2.522 -0.3946 -0.0062  0.3605
 6751TIP3    H241745   5.946   4.354   2.424  1.1952 -1.1795  1.0220
 6752TIP3   OH241746   4.711   2.813  13.560  0.8172  0.3751  0.1742
 6752TIP3    H141747   4.680   2.881  13.620  3.3564  1.7190  0.1248
 6752TIP3    H241748   4.804   2.833  13.548  1.2696 -2.1441 -1.2016
 6753TIP3   OH241749   3.818   4.222   5.612  0.0913  0.1783 -0.3859
 6753TIP3    H141750   3.723   4.230   5.615 -0.0422 -1.1829 -0.3299
 6753TIP3    H241751   3.846   4.238   5.702  0.0280  1.4933 -0.5737
 6754TIP3   OH241752   5.112   0.223  14.319 -0.2205 -0.0932 -0.8014
 6754TIP3    H141753   5.165   0.171  14.379  0.2092 -0.5164 -1.5348
 6754TIP3    H241754   5.122   0.179  14.234 -3.4825 -1.5354 -0.5935
 6755TIP3   OH241755   1.655   6.199  14.515 -0.7574  0.1519  0.7692
 6755TIP3    H141756   1.744   6.186  14.546 -0.0716  3.6379  0.6705
 6755TIP3    H241757   1.656   6.168  14.424 -0.6354 -2.7635  1.6591
 6756TIP3   OH241758   1.189   5.556  15.489  0.2122  0.0426 -0.4422
 6756TIP3    H141759   1.231   5.495  15.429 -0.5014  0.4909 -1.4096
 6756TIP3    H241760   1.189   5.510  15.573 -0.9351 -1.6330 -1.2904
 6757TIP3   OH241761   0.211   6.696   2.741 -0.2479 -0.0879  0.0188
 6757TIP3    H141762   0.271   6.738   2.678  0.2229  0.2377  0.6780
 6757TIP3    H241763   0.241   6.726   2.826 -1.6410  0.4681  0.3430
 6758TIP3   OH241764   5.763   3.824   3.564  0.1042 -0.3701 -0.4053
 6758TIP3    H141765   5.787   3.900   3.618 -1.3228  0.0663 -0.3542
 6758TIP3    H241766   5.761   3.859   3.475 -1.9423  0.0598 -0.2462
 6759TIP3   OH241767   5.605   2.622   1.615 -0.2325 -0.2306  0.4045
 6759TIP3    H141768   5.546   2.654   1.547 -3.1777 -0.0440  2.8739
 6759TIP3    H241769   5.627   2.700   1.666  1.2561 -0.5138  0.2448
 6760TIP3   OH241770   0.688   4.432  12.812  0.0023  0.2170 -0.2918
 6760TIP3    H141771   0.733   4.510  12.780  1.4965 -0.5727 -0.1558
 6760TIP3    H241772   0.666   4.452  12.903 -1.3824  1.2079 -0.8045
 6761TIP3   OH241773   6.131   0.033  14.338  0.0661 -0.0895  0.3559
 6761TIP3    H141774   6.106   0.007  14.249 -0.2079  1.5165 -0.0599
 6761TIP3    H241775   6.187  -0.039  14.368  0.0906 -0.7155 -1.0742
 6762TIP3   OH241776   1.515   2.064  14.121 -0.3885  0.2385  0.2095
 6762TIP3    H141777   1.460   2.135  14.153  0.6451  0.9089  0.5713
 6762TIP3    H241778   1.462   1.985  14.131 -2.1178  1.0850 -1.5157
 6763TIP3   OH241779   5.788   1.946  12.462  0.5915 -0.3509 -0.3825
 6763TIP3    H141780   5.715   1.944  12.401 -1.4845 -0.2014  1.9170
 6763TIP3    H241781   5.780   1.866  12.513 -0.0229  1.1210  2.0289
 6764TIP3   OH241782   2.858   3.177  12.883 -0.2090  0.1175  0.1925
 6764TIP3    H141783   2.947   3.167  12.916  0.0301 -1.0430 -0.7439
 6764TIP3    H241784   2.803   3.148  12.955  0.1586  0.7994  0.7622
 6765TIP3   OH241785   1.419   4.908   4.242  0.0386  0.3717  0.0157
 6765TIP3    H141786   1.367   4.859   4.305 -1.3457 -0.1374 -1.4681
 6765TIP3    H241787   1.391   4.999   4.252 -0.0845  0.3090  0.2295
 6766TIP3   OH241788   5.476   2.466   4.549 -0.3385 -0.4483 -0.0306
 6766TIP3    H141789   5.460   2.400   4.482  0.1740  1.3894 -2.0557
 6766TIP3    H241790   5.570   2.484   4.544 -0.2780 -0.2998  1.2373
 6767TIP3   OH241791   2.390   6.431   2.021 -0.1934 -0.0861 -0.2796
 6767TIP3    H141792   2.402   6.524   2.041 -1.4897  0.1628 -0.5712
 6767TIP3    H241793   2.437   6.419   1.938  2.3004 -0.3536  1.0822
 6768TIP3   OH241794   6.399   3.043  14.412  0.3351  0.0845 -0.1122
 6768TIP3    H141795   6.334   3.073  14.475  2.6610  0.6058  2.1948
 6768TIP3    H241796   6.361   2.964  14.374 -1.5590  0.2943  1.2247
 6769TIP3   OH241797   0.389   5.057  12.937  0.0416  0.7324  0.3579
 6769TIP3    H141798   0.481   5.055  12.912  0.5006 -2.1552  1.8774
 6769TIP3    H241799   0.342   5.038  12.855  1.0780 -1.3632  0.1716
 6770TIP3   OH241800   0.800   3.363   2.646  0.2476 -0.0359 -0.1648
 6770TIP3    H141801   0.859   3.288   2.643 -0.6604 -1.0518  2.9048
 6770TIP3    H241802   0.768   3.363   2.736 -4.4276  0.4158 -1.5723
 6771TIP3   OH241803   1.055   2.164  12.180 -0.1381  0.5929 -0.5318
 6771TIP3    H141804   1.034   2.219  12.255 -1.8627 -1.8670  0.9013
 6771TIP3    H241805   0.998   2.196  12.110  0.3925  1.9166 -0.3928
 6772TIP3   OH241806   6.281   6.022  14.510 -0.2004 -0.4906  0.3034
 6772TIP3    H141807   6.244   6.109  14.494  1.4613 -0.1365 -2.0529
 6772TIP3    H241808   6.216   5.961  14.474 -0.9179 -0.2080  1.0840
 6773TIP3   OH241809   3.247   1.690   0.922  0.2108 -0.4149 -0.2174
 6773TIP3    H141810   3.288   1.750   0.985  1.3581  1.4204 -2.5896
 6773TIP3    H241811   3.154   1.691   0.945  0.6162 -0.1181  1.6347
 6774TIP3   OH241812   6.639   6.046   1.100  0.3779  0.5092 -0.1614
 6774TIP3    H141813   6.730   6.019   1.115  0.1455 -1.2074 -1.4511
 6774TIP3    H241814   6.601   6.053   1.187  1.2053 -0.8297  0.3398
 6775TIP3   OH241815   1.146   6.086   6.237  0.0637 -0.2395  0.1495
 6775TIP3    H141816   1.236   6.058   6.219  0.0305 -0.2315 -0.0346
 6775TIP3    H241817   1.126   6.047   6.322  0.8233  1.1529  0.9916
 6776TIP3   OH241818   0.392   0.258  16.695  0.6758 -0.0263  0.5407
 6776TIP3    H141819   0.475   0.306  16.699  0.0675  1.0638  0.6157
 6776TIP3    H241820   0.378   0.227  16.784 -0.2744  2.1109  1.2143
 6777TIP3   OH241821   6.150   2.164   2.683 -0.5354 -0.2732 -0.1349
 6777TIP3    H141822   6.183   2.149   2.772 -0.2267 -2.4111 -0.5468
 6777TIP3    H241823   6.129   2.257   2.680  0.3969  0.0479  1.8554
 6778TIP3   OH241824   6.391   0.273   2.777  0.1910 -0.1067 -0.0234
 6778TIP3    H141825   6.482   0.301   2.763 -0.0521  0.9824  0.4542
 6778TIP3    H241826   6.340   0.331   2.720 -0.2135 -0.6387 -0.2029
 6779TIP3   OH241827   2.195   1.298   6.425  0.5942  0.3908  1.1051
 6779TIP3    H141828   2.283   1.289   6.387  0.5891  1.4829  0.7993
 6779TIP3    H241829   2.138   1.251   6.364  0.8158  0.6687  0.6805
 6780TIP3   OH241830   5.695   0.227  15.470  0.2455  0.7717  0.0175
 6780TIP3    H141831   5.627   0.176  15.425  0.4044 -0.1349  0.7606
 6780TIP3    H241832   5.748   0.161  15.515  2.0851  1.3906 -1.1545
 6781TIP3   OH241833   4.463   4.755  16.840 -0.2534 -0.2069  0.8408
 6781TIP3    H141834   4.550   4.716  16.826  0.1848  1.3327 -1.1623
 6781TIP3    H241835   4.476   4.817  16.912  0.0370 -0.7234  1.2428
 6782TIP3   OH241836   5.036   3.332   3.544  0.3167  0.1462 -0.3093
 6782TIP3    H141837   4.945   3.358   3.529  1.0856  1.6497 -2.9857
 6782TIP3    H241838   5.067   3.302   3.458  2.8842  1.5182  0.0379
 6783TIP3   OH241839   0.105   2.861  12.810  0.1565 -0.5945 -0.1741
 6783TIP3    H141840   0.195   2.837  12.788  0.5073  1.3449 -1.0709
 6783TIP3    H241841   0.061   2.778  12.826  1.9322 -1.6212 -0.3984
 6784TIP3   OH241842   1.609   4.356  13.176 -0.7923 -0.6729  0.9182
 6784TIP3    H141843   1.700   4.339  13.150 -0.6002  0.5373  0.7368
 6784TIP3    H241844   1.616   4.391  13.265 -0.8841  1.2628  0.2069
 6785TIP3   OH241845   0.531   1.932  12.908 -0.6210 -0.2953 -0.2855
 6785TIP3    H141846   0.558   1.842  12.927  0.4896 -0.1425 -1.0604
 6785TIP3    H241847   0.439   1.936  12.936  0.0490 -0.8899  2.2102
 6786TIP3   OH241848   1.117   4.851   3.710  0.0815  0.3306  0.3226
 6786TIP3    H141849   1.037   4.902   3.715 -0.7725 -0.9958  0.7837
 6786TIP3    H241850   1.106   4.782   3.776  0.6892 -1.0995 -0.9848
 6787TIP3   OH241851   0.989   3.803  12.394 -0.1938 -0.2141 -0.1917
 6787TIP3    H141852   1.047   3.797  12.471 -0.9632 -0.4279  0.3867
 6787TIP3    H241853   0.931   3.877  12.414 -0.4720 -0.3441 -0.5139
 6788TIP3   OH241854   6.480   4.594  15.647  0.3939 -0.0362  0.2475
 6788TIP3    H141855   6.480   4.500  15.632 -0.1637 -0.3209  1.7780
 6788TIP3    H241856   6.391   4.622  15.624  0.8312  0.3044 -1.1071
 6789TIP3   OH241857   0.740   4.698   1.141 -0.1187  0.1773  0.0610
 6789TIP3    H141858   0.713   4.607   1.129 -1.0950  0.0069  2.8401
 6789TIP3    H241859   0.749   4.708   1.236 -2.6279  3.6521  0.1232
 6790TIP3   OH241860   5.387   4.476  13.039 -0.6949  0.4969  0.3492
 6790TIP3    H141861   5.473   4.506  13.010 -0.0841 -1.1093  0.4375
 6790TIP3    H241862   5.325   4.524  12.984  0.1733  2.5790  1.0806
 6791TIP3   OH241863   6.461   2.334   5.715  0.2381 -0.1660  0.1389
 6791TIP3    H141864   6.416   2.309   5.634  0.1947  0.9017 -0.1954
 6791TIP3    H241865   6.452   2.259   5.772 -1.6110 -0.1689 -0.0837
 6792TIP3   OH241866   1.698   4.129   1.809 -0.3797 -0.0368  0.1778
 6792TIP3    H141867   1.702   4.155   1.901  1.3022  0.7274 -0.0692
 6792TIP3    H241868   1.779   4.081   1.794  0.2656  1.3774 -1.3018
 6793TIP3   OH241869   2.212   0.603   1.022 -0.2586  0.3324  0.2569
 6793TIP3    H141870   2.276   0.551   1.070  0.7441  0.8225 -0.5232
 6793TIP3    H241871   2.258   0.631   0.943 -0.6928  2.5792  0.7450
 6794TIP3   OH241872   1.782   5.557   0.422  0.1079  0.0128  0.1403
 6794TIP3    H141873   1.804   5.467   0.399  2.5422  0.4426  0.5849
 6794TIP3    H241874   1.848   5.611   0.378 -1.0404  1.5754  0.2156
 6795TIP3   OH241875   1.246   3.697   3.050 -0.3880 -0.1943  0.1772
 6795TIP3    H141876   1.278   3.673   2.963  2.0302  3.8234 -0.3410
 6795TIP3    H241877   1.325   3.696   3.105 -1.6770 -1.5943  2.0966
 6796TIP3   OH241878   2.379   4.589  13.450  0.2483  0.1761  0.5341
 6796TIP3    H141879   2.388   4.665  13.393  0.5660  0.9444  1.5791
 6796TIP3    H241880   2.286   4.565  13.443 -0.3090  1.8608  1.6564
 6797TIP3   OH241881   1.565   3.957  15.492 -0.0240 -0.1111 -0.3428
 6797TIP3    H141882   1.649   4.003  15.491  0.3452 -0.7741 -0.0179
 6797TIP3    H241883   1.505   4.019  15.532  0.0501  0.7993 -1.5641
 6798TIP3   OH241884   4.535   2.451  11.102 -0.0113  0.1981  0.0241
 6798TIP3    H141885   4.506   2.360  11.097  0.2854  0.0422  0.9081
 6798TIP3    H241886   4.620   2.452  11.059  0.2815 -0.0800  0.5897
 6799TIP3   OH241887   3.262   2.275  11.201  0.1732 -0.5353 -0.1789
 6799TIP3    H141888   3.232   2.237  11.284  0.5025 -0.6010 -0.0913
 6799TIP3    H241889   3.354   2.252  11.196  0.2541 -0.1647 -0.3634
 6800TIP3   OH241890   5.598   3.620  14.434  0.4020 -0.7429  0.4585
 6800TIP3    H141891   5.653   3.637  14.358  1.6251 -0.1352  1.4512
 6800TIP3    H241892   5.659   3.616  14.508 -0.8819  0.0420  1.6064
 6801TIP3   OH241893   4.927   5.568  13.902 -0.2812 -0.3742  0.0666
 6801TIP3    H141894   4.901   5.641  13.957  1.5101 -0.4453  1.1072
 6801TIP3    H241895   4.895   5.490  13.949 -1.5583 -0.3089 -0.6711
 6802TIP3   OH241896   4.597   1.350  15.486  0.4016  0.1273 -0.2424
 6802TIP3    H141897   4.526   1.364  15.548 -2.3167 -2.3164 -2.4900
 6802TIP3    H241898   4.621   1.438  15.456 -1.3598  1.0553  0.9121
 6803TIP3   OH241899   4.686   3.590   0.760 -0.2512  0.2417 -0.0907
 6803TIP3    H141900   4.591   3.582   0.762 -0.3450  1.3217  0.9252
 6803TIP3    H241901   4.704   3.631   0.675 -0.7012  0.1079 -0.2516
 6804TIP3   OH241902   6.562   4.984   2.250  0.3018  0.2101 -0.8242
 6804TIP3    H141903   6.567   4.965   2.156  1.6795 -1.7167 -0.4342
 6804TIP3    H241904   6.631   5.048   2.266  0.9290 -0.4156 -0.9574
 6805TIP3   OH241905   3.836   6.640   3.767 -0.3703 -0.0375  0.0191
 6805TIP3    H141906   3.782   6.568   3.733  0.8303 -0.3575 -1.2834
 6805TIP3    H241907   3.837   6.705   3.697  1.3587 -0.2887 -0.2352
 6806TIP3   OH241908   3.310   1.778   2.346  0.1619  0.2427 -0.1211
 6806TIP3    H141909   3.384   1.754   2.401  0.4963 -4.4037 -2.1429
 6806TIP3    H241910   3.234   1.776   2.404  1.0012 -0.3937  0.9788
 6807TIP3   OH241911   3.586   4.050  16.142 -0.2317 -0.6478  0.9499
 6807TIP3    H141912   3.508   4.105  16.144 -1.1421 -1.6852 -1.7450
 6807TIP3    H241913   3.558   3.967  16.180 -0.4087 -0.9495  0.1786
 6808TIP3   OH241914   5.865   6.187   4.850 -0.3496  0.4199 -0.3438
 6808TIP3    H141915   5.896   6.097   4.843 -0.0616  0.3431  1.5070
 6808TIP3    H241916   5.928   6.239   4.800 -0.0726 -0.3033 -0.7485
 6809TIP3   OH241917   5.042   0.766   3.262  0.4316  0.2244  0.2889
 6809TIP3    H141918   5.077   0.781   3.174 -0.9628 -3.1259 -1.0188
 6809TIP3    H241919   4.949   0.789   3.255 -0.0897 -1.6913  0.2673
 6810TIP3   OH241920   3.115   4.221   0.198  0.5769 -0.1586 -0.3199
 6810TIP3    H141921   3.130   4.296   0.256  0.3793  0.5050 -1.1034
 6810TIP3    H241922   3.071   4.157   0.253  0.4077  0.4491  0.2691
 6811TIP3   OH241923   1.387   6.499  13.533  0.8263  0.1716  0.5314
 6811TIP3    H141924   1.430   6.475  13.615 -1.5423 -0.6523  1.5933
 6811TIP3    H241925   1.337   6.421  13.508 -0.8176  1.3766 -0.0972
 6812TIP3   OH241926   0.653   5.253  13.341 -0.3505  0.2115 -0.3661
 6812TIP3    H141927   0.718   5.226  13.405 -0.0248  0.2638 -0.6733
 6812TIP3    H241928   0.569   5.228  13.380 -0.0306 -2.6688 -1.2804
 6813TIP3   OH241929   5.881   4.621  11.783 -0.1894  0.2410 -0.2575
 6813TIP3    H141930   5.848   4.630  11.873 -0.2064 -2.1252  0.0304
 6813TIP3    H241931   5.964   4.669  11.784  0.7654 -1.3079  1.6261
 6814TIP3   OH241932   1.469   0.691  11.111  0.5037 -0.8845  0.4142
 6814TIP3    H141933   1.403   0.750  11.148  2.8001  1.3889  1.2122
 6814TIP3    H241934   1.443   0.679  11.020 -0.0659  1.4453  0.2176
 6815TIP3   OH241935   1.397   4.233   0.332  0.1326 -0.4149  0.2563
 6815TIP3    H141936   1.407   4.267   0.243  0.5711 -1.8768 -0.2795
 6815TIP3    H241937   1.487   4.225   0.364 -0.0233  0.0767  0.8395
 6816TIP3   OH241938   4.726   1.378  16.112  0.4698  0.1479  0.5598
 6816TIP3    H141939   4.630   1.376  16.102  0.4598  2.6212 -0.7884
 6816TIP3    H241940   4.740   1.431  16.191  0.7687 -1.1498  1.4105
 6817TIP3   OH241941   0.597   1.443   0.153 -0.3398  0.8583 -0.4437
 6817TIP3    H141942   0.627   1.358   0.184 -0.3923  1.2371  0.7103
 6817TIP3    H241943   0.675   1.498   0.157 -0.5067  1.0877 -0.3018
 6818TIP3   OH241944   0.010   5.785  10.955  0.0155 -0.1822 -0.1333
 6818TIP3    H141945   0.049   5.871  10.937 -0.6535 -0.1269 -1.4441
 6818TIP3    H241946   0.071   5.743  11.016  0.7380  0.9246 -0.0720
 6819TIP3   OH241947   2.959   0.733   0.936 -0.0911 -0.4694 -0.0484
 6819TIP3    H141948   2.926   0.817   0.906 -0.4205 -0.3130  0.7565
 6819TIP3    H241949   3.031   0.713   0.875 -1.7624 -0.9322 -1.9893
 6820TIP3   OH241950   3.484   2.615   5.978 -0.0425 -0.4859 -0.3121
 6820TIP3    H141951   3.417   2.660   5.925  0.3196 -2.0951 -2.2607
 6820TIP3    H241952   3.446   2.529   5.996  1.2350 -1.2095 -0.9540
 6821TIP3   OH241953   0.712   2.393   2.469 -0.3637  0.4576 -0.5297
 6821TIP3    H141954   0.781   2.383   2.534  0.0744 -1.2180 -1.2047
 6821TIP3    H241955   0.758   2.413   2.388 -0.8304  1.3705 -0.5813
 6822TIP3   OH241956   2.655   6.560  17.038  0.5113  0.1152  0.9460
 6822TIP3    H141957   2.707   6.616  16.980 -1.8028  2.0060  0.5160
 6822TIP3    H241958   2.614   6.497  16.979  1.1583 -0.4619  1.0966
 6823TIP3   OH241959   4.296   1.446  12.939 -0.3790  0.2672 -0.2497
 6823TIP3    H141960   4.257   1.360  12.953  0.5311 -0.5335 -2.2703
 6823TIP3    H241961   4.339   1.467  13.022  0.3558 -1.7555 -0.0697
 6824TIP3   OH241962   3.948   4.266   2.514  0.0461  0.6181  0.5061
 6824TIP3    H141963   3.970   4.175   2.535 -1.3185 -0.5635 -2.6138
 6824TIP3    H241964   3.854   4.272   2.534  0.2605  1.5873  1.2963
 6825TIP3   OH241965   4.450   6.149  13.415 -0.2673 -0.8528 -0.5601
 6825TIP3    H141966   4.541   6.165  13.392  0.1345 -1.9323  0.1991
 6825TIP3    H241967   4.402   6.158  13.332  0.3188  1.0478 -0.7262
 6826TIP3   OH241968   5.685   5.964  14.546  0.4818 -0.3814 -0.2836
 6826TIP3    H141969   5.769   5.954  14.501 -0.4757 -0.8638 -2.0770
 6826TIP3    H241970   5.663   5.875  14.576  0.6250 -0.2470  0.2301
 6827TIP3   OH241971   2.126   3.304   5.390 -0.2917  0.2776  0.2018
 6827TIP3    H141972   2.056   3.278   5.451 -1.0542 -0.9968 -1.1632
 6827TIP3    H241973   2.193   3.344   5.446 -1.6060  0.5061  1.6869
 6828TIP3   OH241974   4.887   1.448   4.422 -1.4136 -0.5564  0.5226
 6828TIP3    H141975   4.869   1.403   4.505  1.2237  3.5975  3.7782
 6828TIP3    H241976   4.976   1.421   4.399 -0.8074  0.8440  1.0841
 6829TIP3   OH241977   1.049   3.210   3.610  0.5796  0.3288  0.0055
 6829TIP3    H141978   1.084   3.171   3.690 -0.9813  1.4895  1.3426
 6829TIP3    H241979   1.118   3.269   3.580  0.7764  0.7036  1.1398
 6830TIP3   OH241980   2.171   3.415   4.633 -0.7977  0.3262  0.8726
 6830TIP3    H141981   2.264   3.413   4.657 -1.1503 -1.2318  2.3983
 6830TIP3    H241982   2.143   3.505   4.649  0.2734  0.6134  1.1949
 6831TIP3   OH241983   6.579   3.081   1.091 -0.3430  0.2987 -0.0612
 6831TIP3    H141984   6.521   3.031   1.034 -0.5910  0.3420  0.1522
 6831TIP3    H241985   6.661   3.087   1.042 -1.6668  3.7121 -2.1967
 6832TIP3   OH241986   6.315   1.570  13.733  0.1642 -0.0208  0.2528
 6832TIP3    H141987   6.246   1.614  13.784  0.4754 -0.0161  0.6743
 6832TIP3    H241988   6.271   1.542  13.653 -0.7676 -1.4948  1.2132
 6833TIP3   OH241989   3.961   5.243   1.076  0.4476 -0.0209  0.3452
 6833TIP3    H141990   3.916   5.173   1.029 -1.2890  1.6393 -0.5877
 6833TIP3    H241991   4.053   5.215   1.079 -0.3278 -2.7565  0.8931
 6834TIP3   OH241992   0.901   3.485   2.310  0.7385  0.1500 -0.1966
 6834TIP3    H141993   0.948   3.553   2.261  1.3921 -0.5882 -0.6248
 6834TIP3    H241994   0.866   3.427   2.242  0.3967 -0.0732  0.1706
 6835TIP3   OH241995   0.857   2.916   4.692 -0.1540 -0.1304 -0.1112
 6835TIP3    H141996   0.812   2.995   4.721 -0.7259 -0.8603  1.0698
 6835TIP3    H241997   0.787   2.861   4.656  0.0500 -0.5605  0.1374
 6836TIP3   OH241998   3.136   3.515  13.096  0.8606 -0.5838 -0.4196
 6836TIP3    H141999   3.231   3.522  13.099  0.7841  0.5029  2.0918
 6836TIP3    H242000   3.106   3.599  13.061  0.7976  0.7936  2.6310
 6837TIP3   OH242001   3.066   0.074   5.960 -0.4799  0.2663 -0.1884
 6837TIP3    H142002   3.024   0.058   6.044 -0.5489 -0.5564 -0.3727
 6837TIP3    H242003   3.101  -0.011   5.934  0.7968  0.8010 -0.3096
 6838TIP3   OH242004   5.281   5.145  16.430  0.2996 -0.2054 -0.0408
 6838TIP3    H142005   5.271   5.065  16.482  1.7778 -0.6638 -0.4093
 6838TIP3    H242006   5.360   5.130  16.379  1.1408  1.8847  0.5583
 6839TIP3   OH242007   1.212   3.830   5.483  0.2037  0.0168 -0.4167
 6839TIP3    H142008   1.186   3.798   5.570 -2.1039 -0.0447 -1.0502
 6839TIP3    H242009   1.226   3.924   5.495  3.0654 -0.4476  0.6194
 6840TIP3   OH242010   4.454   2.265   2.275  0.1981  0.3405 -0.1696
 6840TIP3    H142011   4.364   2.242   2.300  0.5381  0.9537  1.7667
 6840TIP3    H242012   4.445   2.343   2.220 -0.4281  0.6488  0.3637
 6841TIP3   OH242013   6.268   2.754  16.434  0.1753 -0.1853  0.1837
 6841TIP3    H142014   6.272   2.752  16.338 -0.0758  1.5704  0.1170
 6841TIP3    H242015   6.193   2.699  16.456 -0.5197  0.4024 -0.6908
 6842TIP3   OH242016   2.681   4.106   4.775  0.0956 -0.2272  0.1658
 6842TIP3    H142017   2.605   4.112   4.718  1.2284  0.7792 -1.3285
 6842TIP3    H242018   2.650   4.057   4.851 -2.0311  0.1876 -0.3641
 6843TIP3   OH242019   5.955   6.768   5.317 -0.3464 -0.5499  0.1515
 6843TIP3    H142020   5.971   6.675   5.304  0.6043 -0.3331 -0.3414
 6843TIP3    H242021   5.994   6.810   5.241  0.4466  0.3357  1.0096
 6844TIP3   OH242022   1.975   4.046   1.041 -0.4086 -0.1064  0.7754
 6844TIP3    H142023   2.009   3.979   0.982 -0.0176  1.2971 -0.6796
 6844TIP3    H242024   1.880   4.044   1.027 -0.3024  0.3845 -0.1572
 6845TIP3   OH242025   1.958   3.325  10.323 -0.2900 -0.9165  0.0206
 6845TIP3    H142026   2.024   3.391  10.343  0.0465 -1.0882 -0.5046
 6845TIP3    H242027   2.005   3.242  10.327 -0.3762 -1.0086 -0.7559
 6846TIP3   OH242028   1.882   4.139   4.651 -0.3683 -0.0787 -0.3717
 6846TIP3    H142029   1.881   4.044   4.658 -2.3143 -0.1111 -0.6231
 6846TIP3    H242030   1.874   4.170   4.742 -1.2823 -0.1871 -0.4090
 6847TIP3   OH242031   2.982   2.535   3.348  0.5719  0.7331  0.0216
 6847TIP3    H142032   2.943   2.614   3.387 -0.1498  0.8948 -0.9915
 6847TIP3    H242033   2.909   2.489   3.308  1.1588  0.1094 -0.3612
 6848TIP3   OH242034   4.137   4.916  11.693  0.2399 -0.0063 -0.2534
 6848TIP3    H142035   4.166   4.990  11.746  1.6251 -1.4853  1.1626
 6848TIP3    H242036   4.042   4.914  11.704  0.0812  1.9887 -0.9574
 6849TIP3   OH242037   6.784   4.802  14.631 -0.0744  0.1761  0.2003
 6849TIP3    H142038   6.750   4.891  14.616  0.1231  0.3751  0.8789
 6849TIP3    H242039   6.862   4.815  14.686  0.0233 -0.4096  0.2067
 6850TIP3   OH242040   4.336   1.513  11.140  0.8242 -0.4089  0.4049
 6850TIP3    H142041   4.286   1.471  11.210  1.6153 -0.6384  0.8338
 6850TIP3    H242042   4.273   1.521  11.068 -0.0671  0.0276  1.2069
 6851TIP3   OH242043   3.181   4.824   2.545  0.2368  0.1932  0.8635
 6851TIP3    H142044   3.130   4.851   2.621 -0.2801 -2.0407  1.3982
 6851TIP3    H242045   3.125   4.760   2.501  1.4976 -0.3376 -0.0271
 6852TIP3   OH242046   3.580   2.931   0.863  0.0202 -0.2954 -0.3219
 6852TIP3    H142047   3.632   2.878   0.923 -1.5747 -1.1059  0.4006
 6852TIP3    H242048   3.535   2.866   0.807 -0.0034  0.3927 -1.1245
 6853TIP3   OH242049   2.863   2.313  11.331  0.3498  0.1607 -0.3826
 6853TIP3    H142050   2.869   2.255  11.254  1.1441  0.7893 -0.8101
 6853TIP3    H242051   2.954   2.322  11.360  0.3541  1.9029 -0.8659
 6854TIP3   OH242052   3.581   3.648  12.720  0.0556 -0.1754 -0.2321
 6854TIP3    H142053   3.626   3.731  12.707 -0.2923  0.0726  0.1257
 6854TIP3    H242054   3.537   3.657  12.804  0.1052 -0.7658 -0.1382
 6855TIP3   OH242055   1.932   3.549  14.488 -0.3216  0.1093  0.4339
 6855TIP3    H142056   1.869   3.616  14.464 -1.9140 -1.5047 -0.1247
 6855TIP3    H242057   1.931   3.487  14.415  1.0239 -0.5976  0.9634
 6856TIP3   OH242058   0.910   4.112   3.392 -0.4500 -0.1160 -0.3559
 6856TIP3    H142059   0.936   4.188   3.341  0.1199  1.3342  1.9212
 6856TIP3    H242060   0.975   4.045   3.370  0.6682  0.9528 -0.4400
 6857TIP3   OH242061   6.728   6.034  15.616 -0.1724 -0.3042 -0.0954
 6857TIP3    H142062   6.654   6.065  15.563 -1.7643 -0.1485  2.0888
 6857TIP3    H242063   6.801   6.089  15.589 -1.1817  0.4672 -1.3880
 6858TIP3   OH242064   4.721   3.156  11.529  0.4201  0.2123 -0.4007
 6858TIP3    H142065   4.750   3.178  11.441  0.8214 -2.5561 -1.0329
 6858TIP3    H242066   4.788   3.192  11.586 -0.7122  3.6013 -0.9712
 6859TIP3   OH242067   6.300   4.823  15.146  0.5366  0.3557  0.1271
 6859TIP3    H142068   6.254   4.828  15.230 -0.5476  1.0754 -0.4843
 6859TIP3    H242069   6.289   4.910  15.108  1.3141  0.1418 -0.6087
 6860TIP3   OH242070   4.006   5.333   3.326  0.4159  0.1077 -0.0070
 6860TIP3    H142071   4.045   5.363   3.408 -0.4095 -0.8282  0.7530
 6860TIP3    H242072   4.050   5.385   3.258  1.6550  0.3615  0.9525
 6861TIP3   OH242073   0.933   5.416   4.309  0.1379 -0.3343 -0.5721
 6861TIP3    H142074   0.968   5.448   4.226  0.7701  0.8083  0.1204
 6861TIP3    H242075   0.923   5.321   4.296  1.7381 -0.4174 -1.4152
 6862TIP3   OH242076   0.535   2.473  10.970 -0.6394  0.0911 -0.0013
 6862TIP3    H142077   0.549   2.404  11.034  4.5712 -0.6259 -1.3831
 6862TIP3    H242078   0.526   2.428  10.886  0.7182  0.9521 -0.6644
 6863TIP3   OH242079   5.983   2.210  16.630  0.3139  0.4571 -0.2926
 6863TIP3    H142080   6.062   2.199  16.683  1.1712 -0.0141 -1.6255
 6863TIP3    H242081   5.998   2.289  16.579 -0.5922  1.0279  0.2951
 6864TIP3   OH242082   2.521   5.116  15.906 -0.6461 -0.2411 -0.1061
 6864TIP3    H142083   2.457   5.085  15.971  0.1038  0.1534  0.8369
 6864TIP3    H242084   2.546   5.203  15.936  0.9295 -0.6985 -0.0015
 6865TIP3   OH242085   3.763   0.411   3.665 -0.5303  0.0734  0.4063
 6865TIP3    H142086   3.843   0.463   3.677 -1.3198  1.1306  1.3870
 6865TIP3    H242087   3.776   0.365   3.582  0.4349  1.4550 -0.2515
 6866TIP3   OH242088   1.226   3.317  11.564  0.0168  0.4245  0.3463
 6866TIP3    H142089   1.240   3.257  11.638  2.4818 -0.2652 -0.5856
 6866TIP3    H242090   1.259   3.401  11.595  2.1038 -0.1164 -0.2604
 6867TIP3   OH242091   3.041   2.917  15.455 -0.3400  0.1641 -0.0676
 6867TIP3    H142092   3.121   2.968  15.444  1.3167 -1.9086  1.4997
 6867TIP3    H242093   3.005   2.945  15.539 -0.3675 -0.0288 -0.0141
 6868TIP3   OH242094   1.443   5.978  11.851 -0.5427 -0.0304  0.0761
 6868TIP3    H142095   1.488   6.019  11.924  1.1705  0.3730 -1.1329
 6868TIP3    H242096   1.484   6.015  11.773 -2.3570 -0.3689 -1.1232
 6869TIP3   OH242097   4.332   0.639  17.145  0.2376  0.4462 -0.3599
 6869TIP3    H142098   4.424   0.616  17.132  0.4804  2.0354 -1.8691
 6869TIP3    H242099   4.289   0.612  17.064 -0.5757 -0.0082  0.2168
 6870TIP3   OH242100   6.275   3.932   2.479 -0.4364  0.3636  0.1971
 6870TIP3    H142101   6.277   3.895   2.390 -1.8458  1.9085 -0.5406
 6870TIP3    H242102   6.261   3.857   2.536 -0.4572 -0.5593 -0.9807
 6871TIP3   OH242103   4.177   2.178  16.694 -0.4712  0.3807 -0.5362
 6871TIP3    H142104   4.145   2.106  16.747  0.5863 -0.1544 -0.6114
 6871TIP3    H242105   4.272   2.179  16.707 -0.2617  0.6599 -1.8651
 6872TIP3   OH242106   6.560   5.326  11.333  0.2360  0.1529  0.6181
 6872TIP3    H142107   6.491   5.293  11.275  0.1914  0.1383  0.6796
 6872TIP3    H242108   6.638   5.327  11.278  0.2153  0.0429  0.5855
 6873TIP3   OH242109   2.006   0.641   4.531  0.4284 -1.0238  0.0496
 6873TIP3    H142110   1.953   0.564   4.508  0.0194 -0.6990 -0.1110
 6873TIP3    H242111   2.005   0.695   4.451 -0.4945 -0.1656  0.6195
 6874TIP3   OH242112   3.917   1.723  16.527  0.8009  0.4328  0.3093
 6874TIP3    H142113   3.887   1.809  16.555 -0.9323  0.0201 -0.1435
 6874TIP3    H242114   3.866   1.704  16.448  1.1746 -0.9808  0.3698
 6875TIP3   OH242115   6.360   1.437   2.831  0.0357 -0.2150 -0.2261
 6875TIP3    H142116   6.370   1.529   2.809  0.8153  0.1332  1.4180
 6875TIP3    H242117   6.292   1.405   2.772 -1.9058  1.9760  0.6861
 6876TIP3   OH242118   0.376   6.327  11.163  0.4820  0.2360  0.1726
 6876TIP3    H142119   0.343   6.239  11.146  2.4093 -0.7134  0.9572
 6876TIP3    H242120   0.456   6.333  11.110  2.0384  0.2972  2.3568
 6877TIP3   OH242121   0.263   0.015   2.967 -0.4373  0.3224 -0.2074
 6877TIP3    H142122   0.353  -0.013   2.983 -0.3665  0.3391 -0.5556
 6877TIP3    H242123   0.255   0.098   3.014 -0.3907  0.1345  0.1390
 6878TIP3   OH242124   2.290   5.040   3.061  0.4049 -0.3304 -0.1632
 6878TIP3    H142125   2.219   5.093   3.099  1.2566  0.6021  0.1844
 6878TIP3    H242126   2.298   5.072   2.971  0.4074 -0.4003 -0.1875
 6879TIP3   OH242127   6.658   3.868   2.180  0.4244  1.0188 -0.1919
 6879TIP3    H142128   6.606   3.902   2.253 -1.4186  3.3200 -2.3820
 6879TIP3    H242129   6.655   3.773   2.191  0.3011  1.2702  2.7017
 6880TIP3   OH242130   5.930   3.856  15.166 -0.4522  0.2112 -0.1087
 6880TIP3    H142131   5.879   3.917  15.220 -1.0323  0.9952 -1.4951
 6880TIP3    H242132   6.020   3.866  15.199 -0.8138  0.5317  0.8272
 6881TIP3   OH242133   1.131   6.480  16.145  0.1785 -0.1006  0.3899
 6881TIP3    H142134   1.041   6.478  16.177  0.3388 -0.0476  0.8651
 6881TIP3    H242135   1.179   6.528  16.213  0.3725  0.8093 -0.3651
 6882TIP3   OH242136   5.907   3.825  11.040 -0.4209 -0.0802 -0.0433
 6882TIP3    H142137   5.950   3.900  11.000  0.9796 -0.4081  0.7817
 6882TIP3    H242138   5.937   3.749  10.990 -1.1474 -0.1804 -0.3355
 6883TIP3   OH242139   0.335   5.978   2.477 -0.6026 -0.6021 -0.0966
 6883TIP3    H142140   0.381   6.006   2.556 -0.9452  0.2187 -0.1748
 6883TIP3    H242141   0.242   5.995   2.497 -0.7169 -0.6803 -0.5566
 6884TIP3   OH242142   5.260   2.544   1.438 -0.1926  0.0583  0.1310
 6884TIP3    H142143   5.321   2.617   1.428  1.0095 -1.1263 -2.2910
 6884TIP3    H242144   5.177   2.577   1.406  0.0369  0.6992  0.1808
 6885TIP3   OH242145   3.973   5.772   3.212  0.4167  0.2350  0.1690
 6885TIP3    H142146   3.953   5.865   3.201 -0.4380 -0.0184 -0.5390
 6885TIP3    H242147   3.894   5.736   3.252  0.7512 -0.1894  0.4474
 6886TIP3   OH242148   0.695   1.481  16.537 -0.3173  0.1022 -0.2731
 6886TIP3    H142149   0.639   1.556  16.560  1.9420  1.6544  0.4601
 6886TIP3    H242150   0.654   1.407  16.582 -2.4420  0.9024 -0.7539
 6887TIP3   OH242151   0.643   2.192   4.865 -0.6132  0.3081 -0.3468
 6887TIP3    H142152   0.569   2.181   4.805 -0.2440  1.1086 -0.9680
 6887TIP3    H242153   0.665   2.103   4.892 -2.4539  0.1200  0.6731
 6888TIP3   OH242154   2.759   6.399   1.646 -0.1449 -0.4090  0.5338
 6888TIP3    H142155   2.741   6.437   1.732  0.1550  0.8747  0.0569
 6888TIP3    H242156   2.674   6.368   1.615 -0.3274 -0.4912  1.1137
 6889TIP3   OH242157   4.968   4.604  14.570 -0.1685  0.5239 -0.2225
 6889TIP3    H142158   4.936   4.634  14.485  1.2912 -1.2595 -1.5027
 6889TIP3    H242159   4.889   4.580  14.619 -1.0021  0.9661 -1.3202
 6890TIP3   OH242160   4.781   3.774   4.998  0.1957  0.2483  0.0902
 6890TIP3    H142161   4.769   3.869   5.002 -0.7082  0.1623 -0.3189
 6890TIP3    H242162   4.833   3.759   4.919 -0.6529  0.3292 -0.4971
 6891TIP3   OH242163   0.591   2.645   5.351 -0.2381 -0.2872  0.2153
 6891TIP3    H142164   0.681   2.614   5.346  0.0784  0.5876  0.2794
 6891TIP3    H242165   0.566   2.657   5.259  0.0207  0.2997  0.2132
 6892TIP3   OH242166   3.424   1.083   5.189  0.3641  0.0859 -0.1032
 6892TIP3    H142167   3.336   1.045   5.188 -0.4201  1.7693  0.4566
 6892TIP3    H242168   3.467   1.048   5.111 -1.3098  0.3221 -1.1705
 6893TIP3   OH242169   4.560   6.531   0.475 -0.5691  0.0050  0.1424
 6893TIP3    H142170   4.489   6.521   0.411 -2.7320  3.6770  1.6810
 6893TIP3    H242171   4.522   6.504   0.558 -0.0680  1.6840  0.9486
 6894TIP3   OH242172   6.076   5.318   4.718  0.0377  0.4932 -0.1804
 6894TIP3    H142173   6.052   5.382   4.784  0.1414  0.6709 -0.3163
 6894TIP3    H242174   6.025   5.240   4.741 -1.3303  1.1132 -0.9338
 6895TIP3   OH242175   5.834   5.357   2.137  0.3985 -0.2006  0.0850
 6895TIP3    H142176   5.875   5.305   2.206  1.9216  1.1266  0.2278
 6895TIP3    H242177   5.761   5.401   2.180  0.7481 -0.1375  0.6216
 6896TIP3   OH242178   2.892   6.007  14.903 -0.0773 -0.0554 -0.4724
 6896TIP3    H142179   2.943   6.005  14.823  1.7868 -0.5113  0.6771
 6896TIP3    H242180   2.868   5.915  14.919  0.6479 -0.1436  0.1484
 6897TIP3   OH242181   0.188   5.835   4.576  0.4300 -0.1500  0.5236
 6897TIP3    H142182   0.283   5.839   4.591  0.5674 -0.0072 -0.2992
 6897TIP3    H242183   0.169   5.912   4.523  0.0241 -0.6833 -0.1334
 6898TIP3   OH242184   1.935   6.244  11.055  0.1231  0.2051  0.2326
 6898TIP3    H142185   1.994   6.176  11.086 -0.5470  0.0647  1.2589
 6898TIP3    H242186   1.850   6.200  11.047 -0.2293  0.8206  0.5059
 6899TIP3   OH242187   5.679   1.980  12.774  0.0108  0.0421  0.0949
 6899TIP3    H142188   5.637   1.899  12.747  0.4472 -0.4839  0.9498
 6899TIP3    H242189   5.648   2.046  12.711  0.0963 -0.8880 -0.9343
 6900TIP3   OH242190   2.760   4.467  14.507 -0.5088  0.3182  0.2344
 6900TIP3    H142191   2.821   4.472  14.434  0.6254 -1.3318  1.0089
 6900TIP3    H242192   2.680   4.432  14.469 -0.1213  0.0477 -0.3443
 6901TIP3   OH242193   2.383   2.614  16.966 -0.3277 -0.0002 -0.4661
 6901TIP3    H142194   2.330   2.676  17.016 -1.6131  0.0919 -1.8609
 6901TIP3    H242195   2.331   2.534  16.964 -0.5919  0.1822 -2.1169
 6902TIP3   OH242196   3.272   0.657  16.616 -0.0298 -0.4353  0.3650
 6902TIP3    H142197   3.258   0.626  16.705 -0.6118 -0.0409  0.4140
 6902TIP3    H242198   3.190   0.639  16.571  0.5502 -1.4623 -0.3458
 6903TIP3   OH242199   1.902   6.409  14.592 -0.0009 -0.1410 -0.1493
 6903TIP3    H142200   1.844   6.397  14.516 -1.9374 -2.0857  1.4740
 6903TIP3    H242201   1.895   6.326  14.640  1.6847  0.7623  1.8060
 6904TIP3   OH242202   1.593   4.371  14.629  0.2519 -0.4777  0.9138
 6904TIP3    H142203   1.528   4.319  14.583 -0.8922  0.0809  1.8360
 6904TIP3    H242204   1.580   4.460  14.597 -0.0497 -0.2137  1.7521
 6905TIP3   OH242205   2.488   2.131   1.358  0.3294  0.2458  0.4682
 6905TIP3    H142206   2.473   2.037   1.346 -0.8314  0.4535  0.2349
 6905TIP3    H242207   2.574   2.146   1.319 -0.0733 -0.4791 -0.7652
 6906TIP3   OH242208   4.969   6.289   4.120 -0.1025 -0.0921 -0.4752
 6906TIP3    H142209   5.051   6.263   4.079 -0.6287 -0.3162 -1.4061
 6906TIP3    H242210   4.990   6.294   4.214  0.4212 -2.3032 -0.4189
 6907TIP3   OH242211   3.765   3.447  13.510  0.4296  0.2486 -0.2037
 6907TIP3    H142212   3.711   3.446  13.431  1.5512 -0.5977 -1.0036
 6907TIP3    H242213   3.780   3.539  13.529  1.6869  0.5051 -2.1193
 6908TIP3   OH242214   6.693   2.668  11.443 -0.3790  0.3716 -0.0354
 6908TIP3    H142215   6.675   2.754  11.405 -0.8666 -0.1274 -0.9639
 6908TIP3    H242216   6.742   2.621  11.375 -1.3007 -0.5491 -0.0879
 6909TIP3   OH242217   3.354   5.759   1.637 -0.5134  0.1910  0.6136
 6909TIP3    H142218   3.369   5.673   1.677  0.8393  1.4839  3.0254
 6909TIP3    H242219   3.441   5.797   1.627 -1.0897  1.3024 -0.4676
 6910TIP3   OH242220   2.958   6.606  16.506  0.2064 -0.2560 -0.5349
 6910TIP3    H142221   2.892   6.668  16.534  0.5259  0.4977 -1.3901
 6910TIP3    H242222   2.911   6.545  16.449 -0.2022 -1.1078  0.6645
 6911TIP3   OH242223   0.943   5.195  13.445  0.2928  0.0636 -0.0025
 6911TIP3    H142224   1.005   5.165  13.378  0.2747  0.3474 -0.1464
 6911TIP3    H242225   0.921   5.285  13.419  2.6485  1.3581  2.0296
 6912TIP3   OH242226   2.622   6.249  13.139 -0.5299 -0.6736  0.4907
 6912TIP3    H142227   2.686   6.178  13.147 -0.0625 -0.4294 -0.7188
 6912TIP3    H242228   2.561   6.219  13.071 -0.9010 -0.3325  0.6664
 6913TIP3   OH242229   1.619   6.342   4.174  0.1982 -0.7996 -0.0196
 6913TIP3    H142230   1.529   6.358   4.145 -0.2441 -1.6612  0.8051
 6913TIP3    H242231   1.644   6.422   4.219  0.0504 -0.3446 -0.7250
 6914TIP3   OH242232   0.808   4.371  13.678 -0.0670 -0.2440  0.3312
 6914TIP3    H142233   0.870   4.399  13.611  0.0016 -0.8084  0.1523
 6914TIP3    H242234   0.857   4.306  13.729 -0.4699 -0.6006  0.2635
 6915TIP3   OH242235   5.200   1.674  12.599 -0.7551  0.1203 -0.3589
 6915TIP3    H142236   5.178   1.594  12.553  0.5912 -0.3704 -0.1949
 6915TIP3    H242237   5.229   1.645  12.686  0.0797  0.7417 -0.4144
 6916TIP3   OH242238   4.542   5.371   2.182  0.0075  0.5919  0.1063
 6916TIP3    H142239   4.518   5.435   2.116  2.0490  0.4245 -0.8415
 6916TIP3    H242240   4.470   5.375   2.246  0.1932  4.0093  0.2665
 6917TIP3   OH242241   1.847   3.665   4.385  0.1954  0.6909  0.0910
 6917TIP3    H142242   1.877   3.732   4.324  1.3302 -1.4271 -1.8439
 6917TIP3    H242243   1.781   3.615   4.336  0.9430 -0.9187  0.6533
 6918TIP3   OH242244   3.391   6.705  12.971 -0.3132 -0.3226  0.0142
 6918TIP3    H142245   3.340   6.625  12.983  1.5664 -2.1695 -2.9451
 6918TIP3    H242246   3.444   6.712  13.051 -2.1978 -0.6179  1.3446
 6919TIP3   OH242247   3.048   2.690   5.749 -0.2427  0.4822 -0.3597
 6919TIP3    H142248   3.025   2.647   5.666  1.3320 -0.5483 -0.3226
 6919TIP3    H242249   3.056   2.618   5.812  1.6269  0.8778 -0.0789
 6920TIP3   OH242250   5.652   1.976  16.426 -0.7838 -0.8337  0.3151
 6920TIP3    H142251   5.732   1.956  16.474 -1.0188 -1.9156  0.2731
 6920TIP3    H242252   5.633   1.897  16.376 -0.5946  0.2058 -1.5124
 6921TIP3   OH242253   2.975   6.397  11.732  0.7848  0.2221 -0.0706
 6921TIP3    H142254   2.989   6.360  11.644  0.2247  0.2797 -0.1887
 6921TIP3    H242255   2.900   6.348  11.766  0.9513  0.2566  0.3487
 6922TIP3   OH242256   0.452   5.234  11.855 -0.3269  0.2266 -0.4173
 6922TIP3    H142257   0.418   5.270  11.773  0.5793  1.0654 -0.4375
 6922TIP3    H242258   0.523   5.176  11.828 -1.3179 -1.0852 -0.3362
 6923TIP3   OH242259   3.105   4.616  11.826  0.0813  0.0017 -0.5900
 6923TIP3    H142260   3.060   4.698  11.843 -0.2946 -0.6961  2.4396
 6923TIP3    H242261   3.051   4.572  11.760  0.0114  1.8994 -1.8698
 6924TIP3   OH242262   0.255   5.161  14.559 -0.1462 -0.6201 -0.0284
 6924TIP3    H142263   0.226   5.252  14.570 -0.1564 -0.5532 -0.5435
 6924TIP3    H242264   0.226   5.139  14.470  0.4678 -0.8971 -0.1621
 6925TIP3   OH242265   0.998   5.352   4.895 -0.0227 -0.3132 -0.0254
 6925TIP3    H142266   1.035   5.440   4.890 -1.2944  0.2658  0.3658
 6925TIP3    H242267   1.046   5.310   4.966  1.3473 -0.3345 -0.9211
 6926TIP3   OH242268   1.751   5.441  10.458  0.4584  0.0290  0.1658
 6926TIP3    H142269   1.815   5.495  10.411  1.0448 -0.9462 -0.1955
 6926TIP3    H242270   1.679   5.501  10.477  0.3714  0.5666 -1.6550
 6927TIP3   OH242271   2.788   4.740   0.630 -0.4108  0.1426  0.3191
 6927TIP3    H142272   2.841   4.791   0.569 -0.2486  1.5030  1.5328
 6927TIP3    H242273   2.795   4.787   0.713 -1.9726 -0.7065  0.9857
 6928TIP3   OH242274   2.201   2.566   5.644  0.3416 -0.2374 -0.2043
 6928TIP3    H142275   2.156   2.626   5.585  1.3491  1.2676  0.5037
 6928TIP3    H242276   2.291   2.561   5.611  1.8055  2.9153  2.6167
 6929TIP3   OH242277   1.764   4.756   3.178 -0.6993  0.2634  0.2688
 6929TIP3    H142278   1.773   4.665   3.151 -1.4389 -0.0360  0.9995
 6929TIP3    H242279   1.854   4.790   3.179 -0.5289 -0.0675 -1.2492
 6930TIP3   OH242280   5.521   4.189  15.396 -0.3061  0.4043  0.4628
 6930TIP3    H142281   5.602   4.139  15.390 -0.9662 -0.7206  0.5628
 6930TIP3    H242282   5.468   4.142  15.461 -0.7852  1.4921  0.8969
 6931TIP3   OH242283   0.380   2.967   0.162  0.0719 -0.1385 -0.2418
 6931TIP3    H142284   0.400   3.051   0.205  0.9533 -0.2717 -0.3590
 6931TIP3    H242285   0.397   2.901   0.229  2.0304 -0.3884 -0.9017
 6932TIP3   OH242286   3.418   3.911   1.039  0.3211  0.2102  0.4977
 6932TIP3    H142287   3.363   3.988   1.055 -0.5127 -0.4800  1.0845
 6932TIP3    H242288   3.363   3.837   1.067 -0.4774 -0.9797 -3.6422
 6933TIP3   OH242289   5.190   2.413   5.864 -0.0919  0.4498  0.3185
 6933TIP3    H142290   5.218   2.404   5.955 -0.2625 -0.7564  0.2704
 6933TIP3    H242291   5.112   2.358   5.858  1.4165 -1.7048 -1.1712
 6934TIP3   OH242292   2.585   4.440   6.015 -0.0238 -0.1473  0.0711
 6934TIP3    H142293   2.523   4.370   6.031 -0.4779  0.2598  0.1030
 6934TIP3    H242294   2.624   4.458   6.101 -1.1943  0.8431  0.4183
 6935TIP3   OH242295   0.604   5.642  12.860 -0.5223 -0.4333 -0.2606
 6935TIP3    H142296   0.629   5.559  12.819 -3.1701 -1.5964  0.2797
 6935TIP3    H242297   0.545   5.683  12.797 -2.0113 -0.6756  0.9245
 6936TIP3   OH242298   1.948   1.329   4.656 -0.1585  0.1558  0.3332
 6936TIP3    H142299   1.961   1.420   4.629  1.1770 -0.0994  0.0615
 6936TIP3    H242300   2.034   1.299   4.685 -0.3761 -1.2784 -0.3915
 6937TIP3   OH242301   2.827   0.021   3.190  0.3252  0.1392 -0.5151
 6937TIP3    H142302   2.785   0.096   3.148 -1.8391 -0.7556 -0.1137
 6937TIP3    H242303   2.825   0.043   3.284  3.6507  1.4084 -0.6049
 6938TIP3   OH242304   1.466   4.064  13.378 -0.2151 -0.0163  0.2056
 6938TIP3    H142305   1.484   4.008  13.453 -0.9969 -0.7125 -0.1081
 6938TIP3    H242306   1.381   4.102  13.396 -0.6407 -0.5806 -0.5445
 6939TIP3   OH242307   6.351   0.238   2.441  0.3326  0.1404 -0.1805
 6939TIP3    H142308   6.348   0.169   2.508  1.8732  0.5072  0.3200
 6939TIP3    H242309   6.445   0.246   2.421 -0.1345 -0.7597 -3.2431
 6940TIP3   OH242310   3.392   4.480   5.758  0.2195 -0.2876  0.1594
 6940TIP3    H142311   3.417   4.399   5.802  0.7975  1.0612  2.4811
 6940TIP3    H242312   3.467   4.538   5.771 -1.7228  1.9585  2.2312
 6941TIP3   OH242313   5.865   1.628   3.996  0.2467  0.2791  0.2703
 6941TIP3    H142314   5.822   1.702   4.038  1.6023  0.7243  0.9314
 6941TIP3    H242315   5.938   1.666   3.948 -1.0053 -0.2595 -2.2657
 6942TIP3   OH242316   3.218   6.401  12.264  0.0186  0.2366  0.0425
 6942TIP3    H142317   3.157   6.431  12.196  0.0201  0.3354  0.0857
 6942TIP3    H242318   3.162   6.369  12.334 -0.0331  2.3883  1.0540
 6943TIP3   OH242319   5.002   6.532  11.949 -0.0475  0.5875 -0.1953
 6943TIP3    H142320   5.017   6.596  11.880 -1.1589 -1.0772 -2.1049
 6943TIP3    H242321   4.911   6.505  11.937  0.3353 -1.2086  0.6175
 6944TIP3   OH242322   6.657   0.374   6.510 -0.2129 -0.0337  0.5010
 6944TIP3    H142323   6.598   0.321   6.564  0.3625 -1.3559 -0.1290
 6944TIP3    H242324   6.624   0.464   6.520 -2.7322 -0.7811 -0.3235
 6945TIP3   OH242325   1.785   3.320  14.769  0.2004  0.3882 -0.4543
 6945TIP3    H142326   1.745   3.281  14.691 -0.3953  0.4335 -0.1706
 6945TIP3    H242327   1.768   3.256  14.838 -0.6134  1.0506 -0.0246
 6946TIP3   OH242328   5.078   2.928  15.557 -0.7149 -0.9676 -0.5620
 6946TIP3    H142329   5.027   2.874  15.618 -1.9882  0.2016 -0.5344
 6946TIP3    H242330   5.012   2.980  15.510  0.4499  0.6248 -0.5158
 6947TIP3   OH242331   3.665   5.997   1.140 -0.4903  0.0234  0.0778
 6947TIP3    H142332   3.756   5.969   1.131  0.2113  1.6156  1.5396
 6947TIP3    H242333   3.624   5.976   1.056  1.4462  0.0654 -0.9250
 6948TIP3   OH242334   1.523   3.300  14.933  0.2682  0.4031  0.4014
 6948TIP3    H142335   1.602   3.345  14.905  0.7762  0.0894  1.2741
 6948TIP3    H242336   1.499   3.343  15.015  0.8741 -1.0025  1.3549
 6949TIP3   OH242337   5.818   4.167   6.740  0.0362 -0.2250  0.1656
 6949TIP3    H142338   5.863   4.178   6.656  3.3861 -0.4154  1.7889
 6949TIP3    H242339   5.781   4.079   6.736 -0.8281  0.1698 -1.4620
 6950TIP3   OH242340   6.701   5.217  11.864 -0.2016  0.4505  0.4758
 6950TIP3    H142341   6.655   5.157  11.806  0.9062  0.4906 -0.4877
 6950TIP3    H242342   6.664   5.303  11.845 -0.2192  0.3873  0.2324
 6951TIP3   OH242343   4.916   5.043   0.881  0.2323 -0.2339 -0.3401
 6951TIP3    H142344   4.820   5.034   0.880  0.0898  1.0716 -0.1857
 6951TIP3    H242345   4.946   4.967   0.930 -0.6830 -0.9985 -0.9168
 6952TIP3   OH242346   6.719   5.476  16.615 -0.1928  0.0082 -0.1402
 6952TIP3    H142347   6.740   5.552  16.561 -0.8085 -0.8032 -1.5853
 6952TIP3    H242348   6.803   5.439  16.640  0.1291 -0.3535 -1.6799
 6953TIP3   OH242349   5.697   6.313  15.368  0.2649  0.5692 -0.7040
 6953TIP3    H142350   5.771   6.267  15.407  0.0436 -0.0332 -0.9922
 6953TIP3    H242351   5.621   6.284  15.418 -0.1332 -0.7967 -2.0381
 6954TIP3   OH242352   6.240   3.750  13.729  0.2337  0.1714 -0.7299
 6954TIP3    H142353   6.323   3.741  13.681  1.2218  3.3023  0.1680
 6954TIP3    H242354   6.265   3.744  13.821 -1.2279 -2.7638 -0.3835
 6955TIP3   OH242355   0.892   2.574   4.195  0.0440  0.2952 -0.0167
 6955TIP3    H142356   0.946   2.546   4.269 -0.9549  1.1989  1.1011
 6955TIP3    H242357   0.899   2.670   4.196 -0.5008  0.3482 -0.6955
 6956TIP3   OH242358   0.395   1.421   1.506 -0.4942  0.1071 -0.4144
 6956TIP3    H142359   0.449   1.481   1.455  0.0741  1.5384  1.7259
 6956TIP3    H242360   0.450   1.397   1.581 -0.9897 -2.5571 -0.8172
 6957TIP3   OH242361   5.587   4.461   2.607 -0.2582 -0.3572  0.0650
 6957TIP3    H142362   5.501   4.421   2.598 -0.6148  0.0687  1.3878
 6957TIP3    H242363   5.569   4.553   2.625  0.4852 -0.1589 -0.1880
 6958TIP3   OH242364   1.065   1.109  16.477  0.0491 -0.4361 -0.4045
 6958TIP3    H142365   0.995   1.053  16.510  0.2758 -1.0623 -0.9606
 6958TIP3    H242366   1.024   1.195  16.466 -0.4459 -0.6224 -0.0597
 6959TIP3   OH242367   2.679   4.715   5.428 -0.5219 -0.2303 -0.5235
 6959TIP3    H142368   2.649   4.763   5.351  0.3980  0.5305 -0.4337
 6959TIP3    H242369   2.728   4.640   5.393  3.0641  2.0080 -0.8823
 6960TIP3   OH242370   5.601   4.240  16.704  0.1825 -0.5972  0.3737
 6960TIP3    H142371   5.621   4.326  16.667  1.3896 -0.7414  0.6528
 6960TIP3    H242372   5.667   4.181  16.666  0.6371 -0.9979  1.7207
 6961TIP3   OH242373   3.284   1.332  16.850 -0.9561 -0.1139 -0.3658
 6961TIP3    H142374   3.292   1.280  16.930  0.4093  0.1417 -0.3023
 6961TIP3    H242375   3.204   1.383  16.861 -1.9755 -1.7069 -0.1413
 6962TIP3   OH242376   2.727   5.526   3.784 -0.3706 -0.1814  0.3485
 6962TIP3    H142377   2.815   5.531   3.822  0.3949  2.3014 -1.5176
 6962TIP3    H242378   2.709   5.433   3.777  1.4319 -0.7406  2.2269
 6963TIP3   OH242379   0.682   1.619   2.221 -0.6122  1.0135  0.4541
 6963TIP3    H142380   0.646   1.659   2.142 -1.6011  0.3279  0.5357
 6963TIP3    H242381   0.686   1.526   2.200 -0.0864  0.9257  0.9228
 6964TIP3   OH242382   5.626   3.472  15.476  0.1303 -0.3744  0.8696
 6964TIP3    H142383   5.705   3.457  15.424  0.1969  0.1945  0.8089
 6964TIP3    H242384   5.598   3.560  15.454 -0.5667 -0.5964  0.8420
 6965TIP3   OH242385   4.483   1.051   4.200  0.4745 -0.4777  0.0236
 6965TIP3    H142386   4.557   1.110   4.183  0.3490 -0.3201  0.0213
 6965TIP3    H242387   4.508   1.003   4.278  0.4512 -0.2112  0.1972
 6966TIP3   OH242388   3.699   4.288   4.217  0.9825 -0.0838 -0.1091
 6966TIP3    H142389   3.755   4.313   4.290 -0.8250  1.0107  0.9973
 6966TIP3    H242390   3.708   4.193   4.212  2.0841 -0.0461  0.7388
 6967TIP3   OH242391   4.632   2.745  15.712  0.1690 -0.4038  0.0573
 6967TIP3    H142392   4.604   2.798  15.786 -2.8658  0.2479 -1.4270
 6967TIP3    H242393   4.642   2.807  15.640  0.6358 -1.3387 -0.7102
 6968TIP3   OH242394   5.635   1.144  12.842 -0.1390 -0.0263 -0.0631
 6968TIP3    H142395   5.709   1.201  12.821 -0.1358  0.5548  1.4229
 6968TIP3    H242396   5.650   1.066  12.788  0.6609  0.7472 -1.0080
 6969TIP3   OH242397   0.480   0.079  16.963 -0.1258 -0.2038 -0.5520
 6969TIP3    H142398   0.449  -0.012  16.968  0.5539 -0.5035 -1.5466
 6969TIP3    H242399   0.430   0.124  17.030  0.8807 -1.6935  1.3102
 6970TIP3   OH242400   1.414   6.625  15.995 -0.7125 -0.0591 -0.1111
 6970TIP3    H142401   1.481   6.562  16.021 -1.9134 -1.3966 -0.1489
 6970TIP3    H242402   1.391   6.672  16.076 -2.5334 -2.3610  0.8189
 6971TIP3   OH242403   0.373   0.260  17.194 -0.6145  0.7007 -0.4256
 6971TIP3    H142404   0.328   0.187  17.235  0.1316  0.6140  0.2636
 6971TIP3    H242405   0.466   0.237  17.199 -0.4292  1.3138 -0.9443
 6972TIP3   OH242406   6.165   0.075   2.212 -0.0427  0.6072 -0.2157
 6972TIP3    H142407   6.223   0.148   2.234  1.4572 -1.0669  1.7762
 6972TIP3    H242408   6.215   0.022   2.149  0.0756 -0.1465  0.4924
 6973TIP3   OH242409   3.178   3.601  13.421 -0.0244 -0.5431 -0.4004
 6973TIP3    H142410   3.082   3.591  13.425 -0.1684  0.7374 -0.2412
 6973TIP3    H242411   3.211   3.533  13.479 -0.7850 -1.6182 -1.1743
 6974TIP3   OH242412   3.119   0.874  12.987  0.0177 -0.1370  0.0824
 6974TIP3    H142413   3.159   0.927  12.919  2.0852 -0.7296  0.7745
 6974TIP3    H242414   3.069   0.937  13.040 -0.8659  0.4547 -1.3851
 6975TIP3   OH242415   2.550   4.657   3.594 -0.1825  0.2195 -0.4175
 6975TIP3    H142416   2.474   4.625   3.544  0.7033 -0.4293 -1.3917
 6975TIP3    H242417   2.526   4.642   3.685 -1.3240  0.2506 -0.6908
 6976TIP3   OH242418   3.476   1.604  11.669  0.1800  0.1785  0.0436
 6976TIP3    H142419   3.428   1.521  11.670  0.6298 -0.1114 -1.0874
 6976TIP3    H242420   3.567   1.579  11.654  0.7260  0.7274  2.0962
 6977TIP3   OH242421   2.214   2.313  12.498 -0.1467 -0.2283 -0.6719
 6977TIP3    H142422   2.294   2.349  12.461  1.0474 -1.6037  0.4766
 6977TIP3    H242423   2.144   2.360  12.452  1.2842  1.5307 -1.1871
 6978TIP3   OH242424   5.672   5.205   2.776  0.2654 -0.0940  0.1101
 6978TIP3    H142425   5.616   5.255   2.836  1.5130  0.1267  1.1308
 6978TIP3    H242426   5.715   5.140   2.832  3.0486  1.4373 -0.0981
 6979TIP3   OH242427   2.463   2.678  16.144 -0.2594 -0.5222  0.9189
 6979TIP3    H142428   2.401   2.751  16.140 -0.0871 -0.4061 -0.0209
 6979TIP3    H242429   2.418   2.606  16.099  0.1718 -0.5185  0.4711
 6980TIP3   OH242430   6.063   5.725   2.368  0.1776 -0.0272  0.2339
 6980TIP3    H142431   6.021   5.792   2.315  0.9326  0.3208  0.0621
 6980TIP3    H242432   6.148   5.710   2.326 -0.4188 -1.8973 -0.3807
 6981TIP3   OH242433   5.575   0.281  12.264  0.0962  0.3825  0.3867
 6981TIP3    H142434   5.557   0.197  12.305  1.3889  0.6594  1.5726
 6981TIP3    H242435   5.491   0.307  12.225  0.2536 -2.6589 -2.3650
 6982TIP3   OH242436   0.298   3.893   2.958 -0.2243 -0.0609  0.5299
 6982TIP3    H142437   0.219   3.944   2.939 -0.1316 -0.1011  0.0227
 6982TIP3    H242438   0.355   3.954   3.004 -0.3663  0.1028  0.4928
 6983TIP3   OH242439   2.722   5.698   5.277 -0.4281 -0.4010  0.4063
 6983TIP3    H142440   2.741   5.606   5.297 -0.1471  0.1491  3.0192
 6983TIP3    H242441   2.799   5.746   5.308 -1.0621  0.8243  0.1591
 6984TIP3   OH242442   5.779   0.474  12.758  0.3521  0.0786 -0.0592
 6984TIP3    H142443   5.763   0.568  12.765 -2.7716 -0.3578  0.3128
 6984TIP3    H242444   5.727   0.436  12.830  1.7599 -1.9250 -0.0227
 6985TIP3   OH242445   5.555   4.130  10.823  0.2429  0.1631 -0.4368
 6985TIP3    H142446   5.617   4.176  10.766 -0.7807  1.1838 -0.7580
 6985TIP3    H242447   5.482   4.190  10.833 -1.8106 -1.8713 -1.9841
 6986TIP3   OH242448   2.486   1.045  14.347  0.1796 -0.0546 -0.3625
 6986TIP3    H142449   2.484   0.956  14.381  3.7807 -0.1680 -0.0934
 6986TIP3    H242450   2.552   1.090  14.399 -0.7970  2.5360 -1.1577
 6987TIP3   OH242451   0.875   4.066  13.217 -0.1892 -0.3040  0.3769
 6987TIP3    H142452   0.803   4.078  13.155 -1.4600  1.7083  2.0873
 6987TIP3    H242453   0.865   3.976  13.248 -0.4066 -0.8600 -1.2236
 6988TIP3   OH242454   5.309   2.289  12.537 -0.4511 -0.1064 -0.4299
 6988TIP3    H142455   5.254   2.283  12.615  0.5823 -1.8343  0.2154
 6988TIP3    H242456   5.249   2.316  12.467 -1.4317  1.3051  0.8971
 6989TIP3   OH242457   3.079   2.109   6.016  0.3094  0.0448  0.0858
 6989TIP3    H142458   3.059   2.111   5.923  2.3205  0.8353 -0.3904
 6989TIP3    H242459   3.025   2.039   6.051 -0.6289 -0.1480 -1.6294
 6990TIP3   OH242460   2.601   4.871   5.153 -0.4491  0.5995  0.3663
 6990TIP3    H142461   2.692   4.896   5.171 -1.4021  3.4073  1.8447
 6990TIP3    H242462   2.607   4.812   5.077  2.5765  0.5209  0.5372
 6991TIP3   OH242463   6.326   4.867  11.750 -0.5026 -0.7500 -0.7566
 6991TIP3    H142464   6.390   4.929  11.788 -0.4758  0.1191 -2.1436
 6991TIP3    H242465   6.331   4.883  11.656 -3.0593 -0.3857 -0.8819
 6992TIP3   OH242466   0.530   6.200  12.275  0.4232 -0.1148 -0.5917
 6992TIP3    H142467   0.587   6.196  12.199  0.7530  1.4086 -0.4474
 6992TIP3    H242468   0.573   6.145  12.341  0.1956 -1.3468 -1.4205
 6993TIP3   OH242469   2.547   4.290  12.661  0.3831  0.0543  0.0734
 6993TIP3    H142470   2.624   4.344  12.676 -0.3252  0.9080  0.7140
 6993TIP3    H242471   2.554   4.219  12.726  0.9093 -0.2046 -0.2538
 6994TIP3   OH242472   1.881   4.242  14.747  0.4744  0.2528 -0.4537
 6994TIP3    H142473   1.932   4.318  14.717  1.1141 -0.8795 -2.4323
 6994TIP3    H242474   1.790   4.272  14.743  0.6814  0.8227 -1.6367
 6995TIP3   OH242475   5.685   4.485  12.396  0.2052 -0.0500  0.1058
 6995TIP3    H142476   5.612   4.422  12.391  0.1049 -0.0393  1.2149
 6995TIP3    H242477   5.645   4.569  12.375  0.4819 -0.4164 -2.1260
 6996TIP3   OH242478   2.909   0.276  10.210 -0.4996  0.2253  0.1323
 6996TIP3    H142479   2.945   0.361  10.185  1.5191 -0.0336  1.8582
 6996TIP3    H242480   2.820   0.295  10.239 -1.4762  1.1097 -3.0594
 6997TIP3   OH242481   5.372   0.443  14.678  0.2493  0.2057 -0.7351
 6997TIP3    H142482   5.421   0.473  14.601 -0.6494 -1.0706 -1.8500
 6997TIP3    H242483   5.302   0.508  14.687  0.4331  0.4353 -0.9068
 6998TIP3   OH242484   0.871   0.392   1.923 -0.0410  0.0263  0.1264
 6998TIP3    H142485   0.912   0.476   1.941  0.2724 -0.0519 -0.2238
 6998TIP3    H242486   0.943   0.334   1.901 -0.1949 -0.4927  0.9447
 6999TIP3   OH242487   1.939   0.911   5.591  0.1632  0.0871 -0.4065
 6999TIP3    H142488   2.025   0.925   5.553  1.8894 -1.3948  2.6096
 6999TIP3    H242489   1.941   0.820   5.623 -1.7984  0.5928  1.3967
 7000TIP3   OH242490   3.005   6.136  15.137 -0.2725  0.4038 -0.4358
 7000TIP3    H142491   2.981   6.077  15.065  1.9811 -0.0166 -0.9152
 7000TIP3    H242492   2.922   6.174  15.165 -1.6535 -1.9851 -0.9915
 7001TIP3   OH242493   3.557   4.620  11.428 -0.7343 -0.3564 -0.1691
 7001TIP3    H142494   3.620   4.692  11.424 -0.7485 -0.3913 -1.1255
 7001TIP3    H242495   3.592   4.562  11.496  0.8990 -0.9679 -1.4700
 7002TIP3   OH242496   6.055   4.271  10.790  0.3697 -0.1092  0.5750
 7002TIP3    H142497   6.074   4.357  10.828 -0.5706  0.0249  0.7595
 7002TIP3    H242498   5.974   4.283  10.741  0.6498 -0.7084 -0.0549
 7003TIP3   OH242499   4.260   6.549  11.996  0.0634  0.0573  0.0548
 7003TIP3    H142500   4.337   6.605  11.987 -0.0225  0.2908  0.7197
 7003TIP3    H242501   4.186   6.610  11.996  0.0308  0.0949  1.9828
 7004TIP3   OH242502   4.806   0.625  16.139  0.6931 -0.1843 -0.2451
 7004TIP3    H142503   4.716   0.636  16.109  0.7464 -1.1360 -0.7951
 7004TIP3    H242504   4.849   0.708  16.116 -0.0705  0.3402  0.1684
 7005TIP3   OH242505   0.945   3.996  16.375  0.1207  0.2810 -0.5856
 7005TIP3    H142506   1.023   3.961  16.418  0.3696  0.3607 -0.9612
 7005TIP3    H242507   0.871   3.956  16.421  0.3876  0.0087 -0.3925
 7006TIP3   OH242508   1.894   5.425   0.129 -0.0127 -0.1074 -0.2370
 7006TIP3    H142509   1.839   5.360   0.173 -0.2158  0.3645  0.2125
 7006TIP3    H242510   1.929   5.379   0.053  1.0806 -1.2377  0.9046
 7007TIP3   OH242511   0.057   3.222   6.203 -0.1118  0.1483 -0.2613
 7007TIP3    H142512   0.030   3.175   6.124 -0.2820 -1.2353  0.5719
 7007TIP3    H242513  -0.004   3.295   6.211 -0.9953 -0.5335 -0.6458
 7008TIP3   OH242514   3.789   1.650   6.128 -1.2149 -0.8164  0.4771
 7008TIP3    H142515   3.751   1.673   6.044  0.3558 -1.9841 -0.6226
 7008TIP3    H242516   3.813   1.734   6.168 -1.8329 -0.2604 -0.3026
 7009TIP3   OH242517   6.570   6.451   6.352 -0.5548 -0.1269 -0.0433
 7009TIP3    H142518   6.664   6.437   6.366 -0.5520  1.2006  1.5783
 7009TIP3    H242519   6.538   6.368   6.317  1.2690 -0.5026 -0.9310
 7010TIP3   OH242520   6.584   3.978   2.527 -0.0780  0.1285  0.1559
 7010TIP3    H142521   6.545   4.065   2.535 -0.7508 -0.0360 -1.0809
 7010TIP3    H242522   6.510   3.920   2.507  0.5299 -0.5112 -0.3275
 7011TIP3   OH242523   5.133   0.289  13.787 -0.6257 -0.0893  0.3305
 7011TIP3    H142524   5.076   0.253  13.856 -0.5945 -1.8363 -0.4860
 7011TIP3    H242525   5.156   0.376  13.818 -4.7701  1.2722  0.1532
 7012TIP3   OH242526   5.845   0.639  16.864 -0.8755 -0.2723  0.0029
 7012TIP3    H142527   5.829   0.627  16.771  0.7951  0.2208 -0.3765
 7012TIP3    H242528   5.884   0.726  16.871 -0.6946 -0.4261  1.1262
 7013TIP3   OH242529   0.533   0.524   3.544 -0.1212  0.1613 -0.1062
 7013TIP3    H142530   0.493   0.438   3.555  1.7029 -0.5192  1.7054
 7013TIP3    H242531   0.460   0.582   3.523 -1.5947 -1.5346  0.1217
 7014TIP3   OH242532   0.270   0.138   5.752 -0.5389 -0.4782 -0.9249
 7014TIP3    H142533   0.346   0.137   5.695 -1.0285  0.8725 -1.6271
 7014TIP3    H242534   0.253   0.230   5.769 -1.5024 -0.7871 -0.0754
 7015TIP3   OH242535   3.234   1.467  15.374  0.1514 -0.1335  0.1937
 7015TIP3    H142536   3.243   1.430  15.462 -4.2974 -1.2617  0.4000
 7015TIP3    H242537   3.208   1.558  15.389 -1.7437 -0.6279  0.2150
 7016TIP3   OH242538   2.016   5.143  13.035 -0.5720 -0.0821 -0.3854
 7016TIP3    H142539   2.063   5.190  13.104  0.9501  0.0609 -1.4767
 7016TIP3    H242540   2.074   5.072  13.010 -0.2415  0.9437 -2.7715
 7017TIP3   OH242541   1.657   6.089   2.950 -0.3382 -0.4107  0.3492
 7017TIP3    H142542   1.633   6.175   2.917 -1.3452 -0.2917  1.3425
 7017TIP3    H242543   1.753   6.091   2.955 -0.3375  0.5279  0.0669
 7018TIP3   OH242544   1.774   5.712  11.662 -0.1342 -0.9924 -0.2700
 7018TIP3    H142545   1.759   5.776  11.732 -1.6521 -0.4539 -1.0364
 7018TIP3    H242546   1.864   5.682  11.676  0.5065  1.0482  0.3300
 7019TIP3   OH242547   0.333   0.536  13.934 -0.2990  0.4630  0.2121
 7019TIP3    H142548   0.238   0.521  13.935 -0.3018  0.1389  2.8531
 7019TIP3    H242549   0.369   0.463  13.984  1.5169 -0.0016 -1.6247
 7020TIP3   OH242550   4.533   5.323   2.544  0.0031 -0.0239  0.0351
 7020TIP3    H142551   4.542   5.310   2.639  2.7623  1.5474  0.1127
 7020TIP3    H242552   4.473   5.396   2.536 -0.7521 -0.5719  0.5100
 7021TIP3   OH242553   2.482   1.140  12.250 -0.2131 -0.1176 -0.3610
 7021TIP3    H142554   2.488   1.071  12.316  1.6291  0.4538  0.1484
 7021TIP3    H242555   2.543   1.112  12.181  0.2202  0.7530 -0.3502
 7022TIP3   OH242556   1.355   6.332  15.778 -0.0662  0.2491 -0.4220
 7022TIP3    H142557   1.392   6.296  15.858  0.3547 -0.8575 -1.0833
 7022TIP3    H242558   1.290   6.396  15.807  0.8212  0.6346  0.7803
 7023TIP3   OH242559   6.353   0.039  15.372  0.9852 -0.1874  0.1979
 7023TIP3    H142560   6.401   0.079  15.444  0.0277  0.5395  0.4516
 7023TIP3    H242561   6.411   0.049  15.296  1.3070  0.5378  0.5271
 7024TIP3   OH242562   4.280   2.822   3.873 -0.3465 -0.3172  0.4669
 7024TIP3    H142563   4.244   2.897   3.826  1.5568  0.2279 -0.2245
 7024TIP3    H242564   4.229   2.747   3.842 -0.8182  0.3923 -0.5139
 7025TIP3   OH242565   1.904   6.584   2.901  0.8228  0.3345 -0.0335
 7025TIP3    H142566   1.967   6.582   2.829  0.1579  0.0506 -0.6217
 7025TIP3    H242567   1.838   6.647   2.873 -0.3743 -1.0582 -0.4969
 7026TIP3   OH242568   3.403   6.466   5.119  0.1910  0.2552  0.4171
 7026TIP3    H142569   3.316   6.427   5.106  0.1417  0.8175 -1.1028
 7026TIP3    H242570   3.463   6.408   5.073  0.9536 -1.1693  2.9879
 7027TIP3   OH242571   2.703   0.554   2.832  0.1831 -0.2459  0.5168
 7027TIP3    H142572   2.653   0.480   2.798  1.8625 -1.9536  1.5817
 7027TIP3    H242573   2.689   0.624   2.768 -1.5548 -1.4085 -0.4630
 7028TIP3   OH242574   1.788   5.002  15.139  0.1810 -0.4830  0.0613
 7028TIP3    H142575   1.807   4.915  15.175 -0.8817 -1.6100 -1.9504
 7028TIP3    H242576   1.695   4.999  15.118  0.7697 -0.0889 -3.1067
 7029TIP3   OH242577   4.165   5.964   2.205 -0.3000 -0.5382 -0.5004
 7029TIP3    H142578   4.177   6.059   2.210  2.3279 -0.8114  0.1965
 7029TIP3    H242579   4.122   5.941   2.287  1.0835 -0.1262  0.3849
 7030TIP3   OH242580   0.165   4.641  11.191 -0.0838 -0.6137  0.1690
 7030TIP3    H142581   0.231   4.687  11.139 -0.0855 -0.5540  0.2194
 7030TIP3    H242582   0.184   4.549  11.177  0.2715 -0.5957  0.5152
 7031TIP3   OH242583   2.417   0.056  16.236 -0.2765 -0.1717  0.1575
 7031TIP3    H142584   2.378  -0.016  16.285 -0.5447 -0.7784 -0.9243
 7031TIP3    H242585   2.512   0.045  16.249 -0.3203 -0.6564  0.1043
 7032TIP3   OH242586   6.335   6.204   0.009 -0.1642  0.1622 -0.0830
 7032TIP3    H142587   6.288   6.175  -0.070  0.9465 -1.1583 -0.2946
 7032TIP3    H242588   6.281   6.275   0.044 -0.6747  0.8134 -2.0431
 7033TIP3   OH242589   5.444   0.892   4.294 -0.1714  0.6721  0.0839
 7033TIP3    H142590   5.353   0.916   4.311 -0.2283  0.8148 -0.4226
 7033TIP3    H242591   5.470   0.945   4.219  0.5060  1.0463  0.5664
 7034TIP3   OH242592   2.822   3.405  12.718 -0.1389  0.4846 -0.0287
 7034TIP3    H142593   2.744   3.409  12.663 -0.4584  0.4233  0.4113
 7034TIP3    H242594   2.804   3.335  12.781  2.4820 -3.4657 -3.2226
 7035TIP3   OH242595   1.108   4.115   4.398  0.1034  0.1132 -0.6492
 7035TIP3    H142596   1.080   4.089   4.486 -1.0270 -2.2262 -1.6039
 7035TIP3    H242597   1.033   4.163   4.363 -0.6801 -1.5529 -1.3412
 7036TIP3   OH242598   4.517   1.130   0.491 -0.2153  0.0661  0.1638
 7036TIP3    H142599   4.430   1.149   0.527  0.4134  0.2364  1.6609
 7036TIP3    H242600   4.513   1.163   0.401 -0.7788  2.7911  1.0747
 7037TIP3   OH242601   5.083   6.707   2.893 -0.6505 -0.4078  0.4390
 7037TIP3    H142602   5.006   6.708   2.837 -0.8480 -1.1764  0.6934
 7037TIP3    H242603   5.108   6.800   2.901 -1.3978 -0.1778  0.1558
 7038TIP3   OH242604   0.945   3.514  13.244  0.1932 -0.5066  0.7018
 7038TIP3    H142605   0.919   3.426  13.217 -0.7732  0.1377 -0.5582
 7038TIP3    H242606   0.967   3.558  13.162  2.9325 -0.2409  1.5027
 7039TIP3   OH242607   4.829   6.303  14.054 -0.2068  0.0284 -0.1456
 7039TIP3    H142608   4.817   6.312  14.149  0.4818  1.7328 -0.1871
 7039TIP3    H242609   4.793   6.384  14.018 -1.2411 -0.9577 -1.4539
 7040TIP3   OH242610   2.015   3.762  16.502  0.4623  0.1519 -0.3548
 7040TIP3    H142611   1.920   3.769  16.509  0.6212  1.5241  0.9422
 7040TIP3    H242612   2.040   3.707  16.575  0.8002  1.3440  0.4538
 7041TIP3   OH242613   0.908   3.367   2.953 -0.4713  0.2361 -0.0894
 7041TIP3    H142614   0.930   3.448   2.999 -0.7011 -0.0072  0.4698
 7041TIP3    H242615   0.959   3.300   2.999 -1.1327 -0.0940  0.1815
 7042TIP3   OH242616   3.661   0.079  12.954 -0.0663 -0.6215 -0.8299
 7042TIP3    H142617   3.701   0.045  13.033  0.3073 -1.7001 -1.4600
 7042TIP3    H242618   3.732   0.125  12.909 -0.0776 -0.6943 -0.9221
 7043TIP3   OH242619   0.102   5.583  15.352  0.3294 -0.0046 -0.5572
 7043TIP3    H142620   0.016   5.561  15.315 -0.3973 -0.1319  1.1527
 7043TIP3    H242621   0.157   5.596  15.275 -0.5747 -2.3351 -1.7205
 7044TIP3   OH242622   1.305   2.056   0.464 -0.1022 -0.2535  0.0886
 7044TIP3    H142623   1.225   2.058   0.516 -0.4130 -0.7918 -0.3602
 7044TIP3    H242624   1.339   1.968   0.477  0.1932 -0.1612 -0.0642
 7045TIP3   OH242625   6.730   0.040  10.516  0.2744 -0.1956 -0.3501
 7045TIP3    H142626   6.636   0.026  10.507 -0.6668  3.5703  1.5022
 7045TIP3    H242627   6.753   0.002  10.600 -0.0712  0.5063  0.0751
 7046TIP3   OH242628   0.374   6.535  12.267  0.1764  0.1490  0.0116
 7046TIP3    H142629   0.321   6.456  12.281  0.9671 -0.3431  0.3298
 7046TIP3    H242630   0.440   6.531  12.336 -0.4438  1.6830  0.7204
 7047TIP3   OH242631   5.922   5.231   3.470 -0.2922  0.5907  0.6070
 7047TIP3    H142632   5.954   5.153   3.425  0.1966  0.3884  1.2727
 7047TIP3    H242633   5.856   5.269   3.412 -1.4387 -0.9979  0.8077
 7048TIP3   OH242634   0.922   2.030   1.149  0.2210  0.0207 -0.6961
 7048TIP3    H142635   0.909   2.121   1.174  0.8894 -0.0170 -0.1908
 7048TIP3    H242636   0.906   1.980   1.228  1.2660 -0.1824 -0.5992
 7049TIP3   OH242637   6.185   0.079  11.850 -0.1608  0.6808 -0.2182
 7049TIP3    H142638   6.225   0.165  11.833 -0.5204  0.7187 -0.8935
 7049TIP3    H242639   6.250   0.033  11.904  0.5023  0.9919 -0.7383
 7050TIP3   OH242640   3.652   1.367  12.515  0.3302 -0.0253  0.7081
 7050TIP3    H142641   3.605   1.295  12.559  0.8269 -0.6104  0.2908
 7050TIP3    H242642   3.735   1.329  12.488  0.6819  0.7680  0.6518
 7051TIP3   OH242643   3.754   1.561  13.959 -0.3768  0.0462  0.1563
 7051TIP3    H142644   3.840   1.523  13.976  0.3731  1.7558  0.3544
 7051TIP3    H242645   3.695   1.513  14.017  0.8758  0.5338  1.9123
 7052TIP3   OH242646   4.699   0.355  12.462 -0.3395 -0.0319  0.0403
 7052TIP3    H142647   4.653   0.271  12.472  0.1887 -0.3711 -0.3476
 7052TIP3    H242648   4.770   0.336  12.402  0.7913  0.3033  1.2298
 7053TIP3   OH242649   6.050   2.189   5.433 -0.1047  0.0720 -0.0224
 7053TIP3    H142650   6.040   2.234   5.349  0.4740 -1.2000 -0.8089
 7053TIP3    H242651   5.986   2.231   5.491 -0.8828  0.6192 -1.2381
 7054TIP3   OH242652   1.117   1.892  15.221  0.0982  0.1230  0.7304
 7054TIP3    H142653   1.049   1.894  15.153 -0.9751 -0.7028  1.7245
 7054TIP3    H242654   1.190   1.846  15.181 -0.2797  0.2126 -0.0778
 7055TIP3   OH242655   2.345   3.330   5.560 -0.0856 -0.2112  0.6435
 7055TIP3    H142656   2.402   3.385   5.614  0.5329 -0.5218  0.3221
 7055TIP3    H242657   2.350   3.243   5.599 -0.6154 -0.1713  0.8134
 7056TIP3   OH242658   5.456   4.613  15.137 -0.6325 -0.4756  0.1918
 7056TIP3    H142659   5.533   4.625  15.193 -1.0741 -0.9659  0.9230
 7056TIP3    H242660   5.445   4.698  15.093 -0.4391  0.0215  1.0753
 7057TIP3   OH242661   5.587   1.159  15.839  0.4226  0.1771  0.5005
 7057TIP3    H142662   5.581   1.250  15.810  0.8136 -0.1526 -0.6944
 7057TIP3    H242663   5.630   1.114  15.766 -2.3243 -1.5306 -0.2097
 7058TIP3   OH242664   5.575   4.414  13.330 -0.1804 -0.1896 -0.0423
 7058TIP3    H142665   5.610   4.383  13.247 -0.6156 -0.8055 -0.0076
 7058TIP3    H242666   5.587   4.508  13.327  2.1239 -0.4158  0.2831
 7059TIP3   OH242667   5.843   1.472  12.448 -0.5046  0.5034 -0.1675
 7059TIP3    H142668   5.911   1.539  12.449  1.0776 -1.0010  1.7276
 7059TIP3    H242669   5.870   1.411  12.379  1.1295 -0.9912  1.6787
 7060TIP3   OH242670   1.781   2.554  12.184  0.6425  0.1671 -0.8616
 7060TIP3    H142671   1.751   2.519  12.100  1.1081  0.6636 -1.2412
 7060TIP3    H242672   1.876   2.545  12.182  0.7179  0.8231 -0.6890
 7061TIP3   OH242673   0.067   3.710   0.631 -0.1640 -0.2731 -0.6514
 7061TIP3    H142674   0.106   3.796   0.614 -1.4658 -0.0053 -2.6007
 7061TIP3    H242675  -0.019   3.730   0.667  0.8452 -0.8504  2.3501
 7062TIP3   OH242676   1.472   0.427   0.377  0.0914  0.4372  0.3946
 7062TIP3    H142677   1.562   0.395   0.378  0.1419 -0.0280 -3.4918
 7062TIP3    H242678   1.480   0.520   0.354 -0.4199  0.6135  0.9017
 7063TIP3   OH242679   2.596   5.425  14.855 -0.7462  0.3094 -0.4985
 7063TIP3    H142680   2.543   5.499  14.825  0.6586  2.1101  1.2207
 7063TIP3    H242681   2.574   5.415  14.947 -1.3074 -1.8448 -0.8132
 7064TIP3   OH242682   1.522   4.385  16.904  0.0211  0.0918  0.1827
 7064TIP3    H142683   1.436   4.428  16.896  0.8408  1.6351 -0.9051
 7064TIP3    H242684   1.579   4.452  16.941  0.3946 -1.5189  2.7978
 7065TIP3   OH242685   4.833   3.384   3.848 -0.2298 -0.1233  0.0955
 7065TIP3    H142686   4.831   3.423   3.760  0.0150  3.0318  1.3289
 7065TIP3    H242687   4.926   3.369   3.865 -0.1034  0.9109  0.4067
 7066TIP3   OH242688   5.571   6.316   3.445 -0.6344  0.3174 -0.0003
 7066TIP3    H142689   5.504   6.367   3.490 -1.0960  0.9220 -1.3442
 7066TIP3    H242690   5.643   6.377   3.433 -0.2164 -0.0533  0.5404
 7067TIP3   OH242691   6.072   1.885   1.261 -0.6599 -0.4852  0.4299
 7067TIP3    H142692   6.068   1.933   1.344 -1.0209 -1.4135  0.9699
 7067TIP3    H242693   6.124   1.808   1.281  1.5227  0.5565 -0.9102
 7068TIP3   OH242694   4.501   4.305  13.802  0.0394  0.4902 -0.5316
 7068TIP3    H142695   4.407   4.292  13.818  0.1553 -1.4403 -1.1438
 7068TIP3    H242696   4.507   4.395  13.770 -1.4630  0.9858  0.4320
 7069TIP3   OH242697   3.884   1.457  16.357 -0.0546 -0.2893  0.1968
 7069TIP3    H142698   3.915   1.410  16.281 -2.0460  1.8086 -2.0967
 7069TIP3    H242699   3.963   1.483  16.404  1.1841 -2.3904 -0.6312
 7070TIP3   OH242700   1.076   4.488   2.173 -0.2863  0.2335 -0.5597
 7070TIP3    H142701   1.109   4.439   2.098 -0.6202 -0.9977  0.0727
 7070TIP3    H242702   1.153   4.528   2.212 -0.0899  0.7291 -1.4515
 7071TIP3   OH242703   1.971   4.457   4.575 -0.0392  0.0123 -0.4378
 7071TIP3    H142704   1.999   4.384   4.519  0.9440 -1.1520  1.4665
 7071TIP3    H242705   2.038   4.462   4.643 -1.9504  0.3629  1.5335
 7072TIP3   OH242706   3.469   0.832   0.581  0.4162  0.0735 -0.0007
 7072TIP3    H142707   3.552   0.786   0.594 -0.4238 -1.7253 -0.6751
 7072TIP3    H242708   3.414   0.803   0.654 -0.9269 -2.0056 -1.7487
 7073TIP3   OH242709   0.289   3.365  15.088  0.6095 -0.0813  0.2194
 7073TIP3    H142710   0.344   3.297  15.127  0.3596 -0.1105  0.5307
 7073TIP3    H242711   0.333   3.447  15.111  1.3365 -0.1568 -0.8241
 7074TIP3   OH242712   5.034   3.150  13.764 -0.5032 -0.2054 -0.0240
 7074TIP3    H142713   5.053   3.237  13.728 -0.3860 -0.4582 -0.5817
 7074TIP3    H242714   5.080   3.148  13.848 -0.2428  0.1530 -0.1558
 7075TIP3   OH242715   5.682   4.143   3.168  0.2309 -0.1101  0.0135
 7075TIP3    H142716   5.711   4.177   3.083 -0.9032  0.2051 -0.2645
 7075TIP3    H242717   5.762   4.142   3.221  0.8377  0.2956 -0.8486
 7076TIP3   OH242718   2.776   3.338   5.385 -0.7311  0.6090 -0.6070
 7076TIP3    H142719   2.798   3.387   5.465  1.7077 -1.8153  0.3920
 7076TIP3    H242720   2.693   3.294   5.406 -1.4314  1.9794 -0.4276
 7077TIP3   OH242721   5.163   0.214   6.145  0.2671 -0.1857  0.2068
 7077TIP3    H142722   5.078   0.257   6.150  1.0741  1.3518  1.4457
 7077TIP3    H242723   5.225   0.285   6.126  1.8062 -0.4535  3.5331
 7078TIP3   OH242724   3.298   3.524   1.987  0.5788 -0.0059  0.0579
 7078TIP3    H142725   3.322   3.562   2.071  0.7169 -0.5165  0.2566
 7078TIP3    H242726   3.258   3.595   1.938  0.9335  0.4187  0.3785
 7079TIP3   OH242727   4.394   5.374   4.507 -0.1365 -0.2271  0.3725
 7079TIP3    H142728   4.334   5.438   4.547 -0.3336  1.2734 -2.0978
 7079TIP3    H242729   4.378   5.383   4.413  1.9818 -1.8313 -0.1929
 7080TIP3   OH242730   4.902   4.584  16.597 -0.7356 -0.0623 -0.0170
 7080TIP3    H142731   4.943   4.498  16.593  0.3534  0.4699 -1.1030
 7080TIP3    H242732   4.810   4.568  16.575 -0.4187 -0.8933 -0.8165
 7081TIP3   OH242733   5.371   1.735   0.130 -0.3562 -0.4229  0.0944
 7081TIP3    H142734   5.446   1.716   0.186 -0.3874  0.5860  0.4873
 7081TIP3    H242735   5.341   1.821   0.158 -0.1339  0.2963 -1.7226
 7082TIP3   OH242736   4.053   6.462   2.506 -0.1587 -0.6161 -0.0036
 7082TIP3    H142737   4.071   6.506   2.589 -0.5848 -0.6960  0.1330
 7082TIP3    H242738   4.140   6.435   2.474  0.3582  2.0017 -1.0656
 7083TIP3   OH242739   0.553   6.317   5.509 -0.6952 -0.6157 -0.2516
 7083TIP3    H142740   0.473   6.280   5.548  0.1579 -1.4673  0.7676
 7083TIP3    H242741   0.522   6.389   5.455 -2.3589 -2.1335 -1.4589
 7084TIP3   OH242742   2.257   4.095   1.394 -0.1449  0.2674  0.6140
 7084TIP3    H142743   2.347   4.109   1.365 -0.1459  1.0219  0.9484
 7084TIP3    H242744   2.232   4.012   1.355 -0.2558  1.3640 -1.8081
 7085TIP3   OH242745   0.010   1.763  13.468  0.3413 -0.1973 -0.0177
 7085TIP3    H142746   0.020   1.857  13.479  2.7436 -0.4818  0.9330
 7085TIP3    H242747  -0.017   1.731  13.554  1.4437 -0.5286  0.2334
 7086TIP3   OH242748   4.171   6.549   1.107  0.5403 -0.4268  0.0921
 7086TIP3    H142749   4.262   6.533   1.084  0.5018 -0.5552  0.0291
 7086TIP3    H242750   4.162   6.509   1.194  1.9039  3.9062  2.4950
 7087TIP3   OH242751   6.407   5.423   6.333 -0.6087 -0.7706 -0.2743
 7087TIP3    H142752   6.352   5.495   6.303  1.6242  0.7614 -0.9658
 7087TIP3    H242753   6.410   5.362   6.260  0.6197  0.3970 -1.2343
 7088TIP3   OH242754   0.645   4.298  15.175  0.0500 -0.3416 -0.1609
 7088TIP3    H142755   0.670   4.351  15.099 -3.0228 -1.9740 -2.5715
 7088TIP3    H242756   0.565   4.339  15.207 -0.8106 -1.8159 -0.3151
 7089TIP3   OH242757   5.259   5.555  13.081  0.4761 -0.1788 -0.2431
 7089TIP3    H142758   5.330   5.505  13.040 -0.1996 -1.5638  0.2133
 7089TIP3    H242759   5.288   5.567  13.171  0.4718 -0.0935 -0.2541
 7090TIP3   OH242760   0.075   4.819  10.467 -0.8225 -0.1858 -0.1411
 7090TIP3    H142761  -0.004   4.803  10.518 -0.5253  1.5540  0.9352
 7090TIP3    H242762   0.125   4.738  10.475 -1.2380 -0.3089  1.5010
 7091TIP3   OH242763   5.702   1.872  11.067  0.2930 -0.2774  0.0001
 7091TIP3    H142764   5.616   1.835  11.086  0.9753 -1.5121  0.8903
 7091TIP3    H242765   5.703   1.957  11.111 -0.1594 -0.6453  0.7366
 7092TIP3   OH242766   1.280   0.671   2.357  0.4646  0.0564  0.0806
 7092TIP3    H142767   1.363   0.719   2.359 -0.3862  1.7621 -1.8187
 7092TIP3    H242768   1.248   0.682   2.267 -1.8645 -0.4517  0.7681
 7093TIP3   OH242769   4.752   1.325   1.609 -0.3524 -0.0272 -0.2751
 7093TIP3    H142770   4.797   1.402   1.643 -0.2405  0.1373 -0.7971
 7093TIP3    H242771   4.681   1.360   1.556 -0.9318 -0.2871  0.3110
 7094TIP3   OH242772   6.436   5.571  15.250 -0.3224  0.0381  0.2754
 7094TIP3    H142773   6.418   5.533  15.337 -0.4086  0.9563  0.6682
 7094TIP3    H242774   6.531   5.567  15.241 -0.3388 -0.3934  0.2498
 7095TIP3   OH242775   3.585   2.967  16.673 -0.0168 -0.0126  0.4386
 7095TIP3    H142776   3.576   3.020  16.594 -1.1717  0.2276  0.7138
 7095TIP3    H242777   3.627   3.025  16.737  0.5970 -0.0965  0.1179
 7096TIP3   OH242778   5.657   5.686  16.103  0.3344 -0.0070 -0.1967
 7096TIP3    H142779   5.720   5.656  16.038 -0.2373 -0.5201 -0.5251
 7096TIP3    H242780   5.617   5.606  16.137  0.1329  0.2911  0.2920
 7097TIP3   OH242781   6.057   4.556  15.796  0.2985  0.1600  0.1142
 7097TIP3    H142782   6.109   4.519  15.724 -0.4531 -0.3653 -0.1621
 7097TIP3    H242783   6.116   4.552  15.872  0.4332 -1.0903 -0.0365
 7098TIP3   OH242784   0.975   4.378  11.919  0.2010  0.1101  0.3784
 7098TIP3    H142785   1.022   4.319  11.978  0.9176  1.1105  0.8275
 7098TIP3    H242786   0.883   4.366  11.942  0.4692  0.5861  1.8292
 7099TIP3   OH242787   3.278   1.784  16.721 -0.2679  0.3504  0.2014
 7099TIP3    H142788   3.245   1.762  16.633  1.5189  1.4694 -0.8155
 7099TIP3    H242789   3.208   1.758  16.780 -0.7415 -2.3293 -1.3698
 7100TIP3   OH242790   2.301   2.267   5.675  0.2345  0.2421  0.4026
 7100TIP3    H142791   2.244   2.201   5.716  0.4556 -0.3554 -0.2430
 7100TIP3    H242792   2.325   2.325   5.748  0.3586 -0.6180  1.0704
 7101TIP3   OH242793   4.641   3.861  14.259  0.7864  0.3933 -0.7908
 7101TIP3    H142794   4.731   3.885  14.279  1.2390 -0.2951 -1.8880
 7101TIP3    H242795   4.644   3.766  14.243 -0.3740  0.1177  0.4176
 7102TIP3   OH242796   2.742   4.176   3.360  0.4727 -0.0181 -0.7583
 7102TIP3    H142797   2.732   4.107   3.295  0.2854 -0.2461 -0.4891
 7102TIP3    H242798   2.822   4.154   3.407  1.1286  0.6519 -1.5102
 7103TIP3   OH242799   6.031   2.078   1.451 -0.1367 -0.2478  0.3777
 7103TIP3    H142800   5.991   2.115   1.372 -1.0142 -1.9116 -0.0107
 7103TIP3    H242801   5.960   2.078   1.516  0.0380 -0.6098  0.5716
 7104TIP3   OH242802   3.713   4.419  16.567 -0.2015  0.7553 -0.0066
 7104TIP3    H142803   3.697   4.340  16.516  3.3861  0.0490 -0.3386
 7104TIP3    H242804   3.671   4.489  16.518 -0.3032 -0.4529 -1.7245
 7105TIP3   OH242805   1.829   1.755   1.003 -0.5516 -0.2567  0.8779
 7105TIP3    H142806   1.905   1.812   1.016  0.4868 -0.9849 -1.4543
 7105TIP3    H242807   1.860   1.668   1.029 -1.2219 -0.2688  1.6886
 7106TIP3   OH242808   6.012   3.469   5.100  0.2231 -0.3295 -0.2177
 7106TIP3    H142809   6.048   3.543   5.051  0.4374  0.2611  0.7869
 7106TIP3    H242810   5.930   3.448   5.056  0.3147  0.2985 -0.7073
 7107TIP3   OH242811   4.039   1.514   4.798 -0.5513 -0.0174 -0.7055
 7107TIP3    H142812   4.058   1.421   4.783 -2.2558 -0.2361 -1.8525
 7107TIP3    H242813   4.109   1.544   4.856  1.1186 -1.5370 -1.8385
 7108TIP3   OH242814   4.760   3.447   4.253 -0.5960 -0.4205  0.0814
 7108TIP3    H142815   4.763   3.354   4.231 -0.6942 -0.2404 -0.7012
 7108TIP3    H242816   4.690   3.482   4.199 -1.9212 -0.2577  1.8016
 7109TIP3   OH242817   0.847   1.115   3.597 -0.1047 -0.1879  0.5206
 7109TIP3    H142818   0.768   1.149   3.555  1.1714 -0.3202 -2.2310
 7109TIP3    H242819   0.910   1.188   3.591  0.4746 -0.6234  1.1589
 7110TIP3   OH242820   6.102   4.443   3.770  0.4365 -0.0077  0.0370
 7110TIP3    H142821   6.140   4.412   3.688  2.3773  1.0806  0.4650
 7110TIP3    H242822   6.149   4.524   3.789 -0.8863  0.4472  1.5717
 7111TIP3   OH242823   3.741   5.019  10.894  0.9690  0.2617  0.5777
 7111TIP3    H142824   3.725   4.959  10.967 -1.2473 -1.1456 -0.9618
 7111TIP3    H242825   3.813   4.978  10.846  1.0839  0.1368  0.8501
 7112TIP3   OH242826   3.402   2.945   1.861  0.9130  0.2201 -0.6600
 7112TIP3    H142827   3.363   2.927   1.775  0.1875  0.4811 -0.3968
 7112TIP3    H242828   3.337   2.911   1.923  1.1562  0.5714 -0.2126
 7113TIP3   OH242829   1.405   0.670   2.971 -0.0491 -0.0801  0.2459
 7113TIP3    H142830   1.381   0.750   3.017  0.7665 -0.4759  1.3998
 7113TIP3    H242831   1.497   0.682   2.947 -0.4769  0.1587 -1.4295
 7114TIP3   OH242832   2.430   2.325  17.107  0.2837 -0.2097 -0.5109
 7114TIP3    H142833   2.427   2.326  17.011  0.8473 -1.5210 -0.5557
 7114TIP3    H242834   2.494   2.393  17.129  1.5418 -1.1534 -1.1561
 7115TIP3   OH242835   3.962   3.794  12.096 -0.0041  0.0438 -0.4232
 7115TIP3    H142836   3.871   3.765  12.095  0.1678 -0.6264  0.7147
 7115TIP3    H242837   3.989   3.794  12.004 -0.8386 -0.7869 -0.6850
 7116TIP3   OH242838   3.149   2.083   6.561 -0.5476  0.4286 -0.2756
 7116TIP3    H142839   3.222   2.037   6.519 -1.2352 -0.8876 -0.0900
 7116TIP3    H242840   3.071   2.038   6.528 -1.1844  0.6573  0.8867
 7117TIP3   OH242841   5.511   2.003  11.541 -0.7256  0.0825  0.0751
 7117TIP3    H142842   5.484   2.086  11.503 -1.3179 -0.5274 -0.8764
 7117TIP3    H242843   5.471   2.003  11.628 -1.1765  0.5605 -0.1238
 7118TIP3   OH242844   1.439   0.449   1.761  0.2073 -0.6020 -0.7456
 7118TIP3    H142845   1.397   0.498   1.832  1.2425 -0.6345 -0.0851
 7118TIP3    H242846   1.377   0.379   1.740 -0.0530 -0.6835  0.2439
 7119TIP3   OH242847   2.031   5.203   1.627 -0.0582 -0.2582 -0.3301
 7119TIP3    H142848   1.992   5.216   1.713  1.0110 -0.1827  0.1593
 7119TIP3    H242849   2.122   5.232   1.637  0.1451 -0.4691 -1.4182
 7120TIP3   OH242850   3.986   5.485   1.414  0.1746  0.3118 -0.5644
 7120TIP3    H142851   3.945   5.491   1.500  0.0914  0.6447 -0.6268
 7120TIP3    H242852   3.913   5.470   1.354  0.0314  1.7861 -0.7859
 7121TIP3   OH242853   1.760   3.924   0.820 -0.8382  0.2452 -0.3398
 7121TIP3    H142854   1.841   3.939   0.770 -0.4476  1.2832  0.5588
 7121TIP3    H242855   1.714   4.007   0.815 -1.2829  0.0309  0.1677
 7122TIP3   OH242856   2.839   5.767   2.684  0.3049  0.3276  0.4302
 7122TIP3    H142857   2.808   5.832   2.621  0.0225  0.4604  0.7026
 7122TIP3    H242858   2.810   5.801   2.769 -1.4000 -1.0460  0.4412
 7123TIP3   OH242859   6.087   6.815  11.559  0.0367 -0.5960 -0.5619
 7123TIP3    H142860   6.017   6.753  11.579 -1.1880  0.3779 -1.6099
 7123TIP3    H242861   6.105   6.859  11.642 -1.5871  0.0791 -0.5328
 7124TIP3   OH242862   0.246   6.627  16.043 -0.4630  0.1180 -0.0147
 7124TIP3    H142863   0.219   6.696  15.982 -0.0983  1.8766  1.6884
 7124TIP3    H242864   0.166   6.577  16.059 -1.1519  1.1597 -0.0896
 7125TIP3   OH242865   1.298   2.132   3.963  0.2493 -0.0555 -0.4232
 7125TIP3    H142866   1.222   2.156   3.909  1.1779  1.9044 -0.9697
 7125TIP3    H242867   1.292   2.191   4.038  1.4647  0.4726 -0.7203
 7126TIP3   OH242868   6.399   0.807  13.781  0.1181 -0.5959 -0.5800
 7126TIP3    H142869   6.439   0.871  13.723  1.5370  0.6113  1.5766
 7126TIP3    H242870   6.323   0.852  13.818  0.3746 -0.6150 -0.0211
 7127TIP3   OH242871   3.984   3.786  14.047  0.4047  0.7467  0.2732
 7127TIP3    H142872   3.896   3.748  14.047  0.2128  1.0333  2.5629
 7127TIP3    H242873   3.977   3.861  14.106  2.2212  0.6800  0.6254
 7128TIP3   OH242874   5.445   0.210   6.374  0.5669  0.4916  0.1476
 7128TIP3    H142875   5.442   0.122   6.413 -0.5859 -0.0863 -1.1534
 7128TIP3    H242876   5.395   0.264   6.434  1.2618  0.2704  0.9493
 7129TIP3   OH242877   0.671   3.047   0.478 -0.5327 -0.1411 -0.1902
 7129TIP3    H142878   0.757   3.066   0.517  0.7068 -1.5197 -2.0306
 7129TIP3    H242879   0.619   3.013   0.550  1.0256 -0.8130  0.6851
 7130TIP3   OH242880   6.237   3.685  13.005 -0.3584 -0.1298  0.0638
 7130TIP3    H142881   6.275   3.609  12.962 -0.2417 -0.7491  1.2131
 7130TIP3    H242882   6.160   3.651  13.051 -0.3709  0.4579  0.4967
 7131TIP3   OH242883   0.066   2.987   4.777 -0.4860  0.3763 -0.0417
 7131TIP3    H142884  -0.020   3.016   4.807 -0.3819 -0.9407  1.6557
 7131TIP3    H242885   0.126   3.056   4.806 -0.6380  0.0017  1.2225
 7132TIP3   OH242886   2.616   0.758   5.352  0.0495 -0.3934  0.0626
 7132TIP3    H142887   2.609   0.666   5.378 -0.3813 -0.2973  0.2844
 7132TIP3    H242888   2.526   0.786   5.336 -0.0052  0.4874  1.7282
 7133TIP3   OH242889   0.858   4.868  10.517 -0.5178  0.3707  0.1998
 7133TIP3    H142890   0.930   4.807  10.532 -0.6955  0.3991  1.1902
 7133TIP3    H242891   0.818   4.837  10.436  0.6278  0.3879 -0.3964
 7134TIP3   OH242892   4.266   3.622   3.727  1.0027  0.0544  0.3105
 7134TIP3    H142893   4.321   3.689   3.768  0.3518  0.2179  0.9299
 7134TIP3    H242894   4.181   3.631   3.769  0.7412 -0.7847 -0.0070
 7135TIP3   OH242895   1.183   1.384  13.747  0.6705  0.3392 -0.2866
 7135TIP3    H142896   1.254   1.439  13.714 -1.6289  3.2057 -0.9043
 7135TIP3    H242897   1.161   1.422  13.832 -0.9989  0.4158 -0.7221
 7136TIP3   OH242898   0.535   5.691   2.950  0.2843 -0.2085  0.1554
 7136TIP3    H142899   0.542   5.603   2.987  0.2694  0.5295  2.0628
 7136TIP3    H242900   0.470   5.734   3.006 -0.4507  0.7215 -1.3670
 7137TIP3   OH242901   2.719   6.230  16.220  0.2840 -0.4129 -0.3225
 7137TIP3    H142902   2.768   6.157  16.258  2.8293  1.6904  0.7289
 7137TIP3    H242903   2.715   6.210  16.126  0.6561 -2.0185 -0.0216
 7138TIP3   OH242904   5.609   2.441   6.101 -0.7763  0.3870  0.0559
 7138TIP3    H142905   5.552   2.482   6.166  1.0632  1.9622  0.7964
 7138TIP3    H242906   5.638   2.360   6.142 -0.5411  0.8081  0.7432
 7139TIP3   OH242907   5.288   2.129   3.351 -0.8704 -0.2496  0.0876
 7139TIP3    H142908   5.300   2.136   3.256  1.0996 -0.2737  0.2968
 7139TIP3    H242909   5.321   2.211   3.385 -1.0111 -0.4865  0.8032
 7140TIP3   OH242910   4.905   0.021   2.496  0.0330 -0.5656  0.5784
 7140TIP3    H142911   4.864  -0.039   2.433  0.6252  0.1254 -0.5056
 7140TIP3    H242912   4.998   0.004   2.487  0.2562  0.8156 -0.1096
 7141TIP3   OH242913   3.218   0.584   4.108 -0.5868  0.4128 -0.2212
 7141TIP3    H142914   3.130   0.548   4.112 -0.6912  0.7434  3.1845
 7141TIP3    H242915   3.206   0.674   4.079 -1.0866 -0.1057 -1.7359
 7142TIP3   OH242916   1.763   3.595   5.409  0.0592 -0.0029 -0.4353
 7142TIP3    H142917   1.813   3.636   5.479 -0.9698 -1.3130  1.1495
 7142TIP3    H242918   1.672   3.623   5.424 -0.1448 -0.0713 -1.4380
 7143TIP3   OH242919   4.665   3.803   5.957  0.1595 -0.7959 -0.0037
 7143TIP3    H142920   4.636   3.868   6.021  2.0733 -0.5038  0.6441
 7143TIP3    H242921   4.696   3.730   6.009  0.1651 -1.2708 -0.6645
 7144TIP3   OH242922   2.135   3.264   1.782 -0.6880  0.3528  0.1877
 7144TIP3    H142923   2.096   3.231   1.863 -0.1387 -0.7577  0.0197
 7144TIP3    H242924   2.228   3.269   1.800 -0.7103  1.4969  0.0783
 7145TIP3   OH242925   4.451   5.135  15.943  0.3972 -0.2418  0.5895
 7145TIP3    H142926   4.367   5.123  15.898  1.5744 -2.4721 -1.2140
 7145TIP3    H242927   4.427   5.171  16.028 -2.6633 -2.9838  1.1005
 7146TIP3   OH242928   6.062   0.677   0.540  0.1904  0.5667 -0.1021
 7146TIP3    H142929   6.055   0.750   0.601 -0.4525  2.6963 -2.5418
 7146TIP3    H242930   6.156   0.667   0.526  0.3423  0.1158  1.0953
 7147TIP3   OH242931   3.163   1.696   0.596 -0.5509 -0.1544 -0.4229
 7147TIP3    H142932   3.205   1.627   0.648  0.9974  0.0564 -1.3457
 7147TIP3    H242933   3.069   1.682   0.610 -0.4737 -3.9782 -2.4261
 7148TIP3   OH242934   1.758   0.597  15.247 -0.3508  0.4046 -0.5527
 7148TIP3    H142935   1.834   0.654  15.260  0.0094  0.1046 -1.2638
 7148TIP3    H242936   1.731   0.573  15.335  0.1356  0.8359 -0.2759
 7149TIP3   OH242937   3.393   2.543  11.240 -0.2166  0.1179  0.6720
 7149TIP3    H142938   3.368   2.560  11.149  1.0119 -1.5982 -0.0209
 7149TIP3    H242939   3.350   2.461  11.262 -0.2443  0.3582  1.5564
 7150TIP3   OH242940   5.076   2.756  14.844  0.2211  0.2487  0.1771
 7150TIP3    H142941   5.041   2.844  14.855  1.2981  0.5721  1.1323
 7150TIP3    H242942   5.000   2.699  14.855 -0.2173  0.9792  1.0788
 7151TIP3   OH242943   5.597   6.100  12.331  0.1296  0.0066 -0.4936
 7151TIP3    H142944   5.612   6.171  12.268  1.3754 -0.3639 -0.6407
 7151TIP3    H242945   5.502   6.088  12.331 -0.0470  1.2053 -0.9765
 7152TIP3   OH242946   0.290   5.927   3.629  0.2798 -0.2804  0.1583
 7152TIP3    H142947   0.282   5.918   3.724  0.1223  1.7865  0.3890
 7152TIP3    H242948   0.341   5.851   3.601  0.3467 -0.9055  1.8936
 7153TIP3   OH242949   3.011   0.340   3.051 -0.0524 -0.1742  0.8371
 7153TIP3    H142950   2.924   0.312   3.080 -1.4434  0.4949 -2.2454
 7153TIP3    H242951   3.018   0.431   3.080 -0.3149 -0.2752  1.2217
 7154TIP3   OH242952   5.807   3.978  13.567  0.5017  0.2757 -0.1290
 7154TIP3    H142953   5.889   4.002  13.523 -0.6071 -0.7337 -2.9181
 7154TIP3    H242954   5.773   3.905  13.516 -2.3782  0.9483  0.6609
 7155TIP3   OH242955   1.514   4.071  13.924  0.4740 -0.2202  0.2433
 7155TIP3    H142956   1.484   3.987  13.957 -1.3843  0.2222 -0.1894
 7155TIP3    H242957   1.606   4.057  13.901  0.1162 -2.2186 -0.1319
 7156TIP3   OH242958   2.857   4.003   1.752  0.1579 -0.2062 -0.4784
 7156TIP3    H142959   2.901   4.009   1.837 -0.1665  1.2175 -0.3929
 7156TIP3    H242960   2.926   4.019   1.688 -0.0893  1.5091 -0.3623
 7157TIP3   OH242961   0.778   4.123  16.196  0.6810  0.1430 -0.0109
 7157TIP3    H142962   0.840   4.084  16.258  0.5328 -0.7641 -0.4254
 7157TIP3    H242963   0.693   4.114  16.238  0.2560 -2.5642 -1.2776
 7158TIP3   OH242964   4.091   3.084  14.006  0.4998 -0.2212  0.4953
 7158TIP3    H142965   4.141   3.121  14.079 -1.2358  0.9963  1.1463
 7158TIP3    H242966   4.000   3.112  14.023 -0.1245 -0.8365 -1.5487
 7159TIP3   OH242967   3.276   4.792  16.714 -0.1469  0.4544  0.2059
 7159TIP3    H142968   3.184   4.819  16.713 -0.2903  0.1223  1.6317
 7159TIP3    H242969   3.278   4.708  16.668 -0.2060  1.3633 -1.5404
 7160TIP3   OH242970   2.201   3.901   2.498  0.2293 -0.0612  0.0432
 7160TIP3    H142971   2.132   3.840   2.471 -1.9574  1.1612  2.3688
 7160TIP3    H242972   2.257   3.850   2.556  0.4035 -0.6954 -0.6738
 7161TIP3   OH242973   3.026   1.100  15.659  0.3302 -0.2521 -0.4410
 7161TIP3    H142974   2.980   1.162  15.716 -0.0591 -0.7857 -0.1620
 7161TIP3    H242975   3.111   1.086  15.703 -0.2740 -1.2746  0.4712
 7162TIP3   OH242976   5.545   2.810   5.682 -0.2709 -0.0032  0.2243
 7162TIP3    H142977   5.635   2.815   5.714 -0.6848  1.1630  1.2911
 7162TIP3    H242978   5.498   2.762   5.749 -0.8033  0.9914  0.5891
 7163TIP3   OH242979   2.180   0.697  11.903 -0.1663  0.0061  0.0495
 7163TIP3    H142980   2.212   0.764  11.964  0.6782 -0.2720 -0.0714
 7163TIP3    H242981   2.216   0.723  11.818 -0.8081  0.0405 -0.2164
 7164TIP3   OH242982   3.667   0.017   2.929  0.0418  0.4839  0.1224
 7164TIP3    H142983   3.665   0.004   3.024 -2.3272  1.3152  0.2645
 7164TIP3    H242984   3.659   0.112   2.918  2.3239  0.6032 -0.9421
 7165TIP3   OH242985   3.968   1.723   4.141 -0.2921 -0.2402 -0.0624
 7165TIP3    H142986   3.875   1.700   4.139 -0.2892 -0.2275 -1.4580
 7165TIP3    H242987   3.970   1.811   4.180 -0.5527 -1.3763  2.7263
 7166TIP3   OH242988   3.446   4.954  11.184  0.5318  0.3511  0.5667
 7166TIP3    H142989   3.537   4.941  11.158  0.1930  0.9610 -1.0471
 7166TIP3    H242990   3.438   4.907  11.267  1.8492 -1.2558 -0.1428
 7167TIP3   OH242991   6.319   0.863   6.098 -0.3755  0.0737 -0.5228
 7167TIP3    H142992   6.232   0.842   6.064 -0.1001 -0.1035 -1.1325
 7167TIP3    H242993   6.331   0.803   6.172 -1.6067  1.5170  0.9064
 7168TIP3   OH242994   0.264   1.419   5.729  0.6599  0.0261 -0.0924
 7168TIP3    H142995   0.192   1.479   5.749  0.8865  0.3817 -0.3310
 7168TIP3    H242996   0.343   1.471   5.741  0.8806 -0.3582  0.1497
 7169TIP3   OH242997   5.599   0.193  14.013  0.0431  0.1224  0.1401
 7169TIP3    H142998   5.545   0.240  13.949 -1.3598 -1.6418 -0.0571
 7169TIP3    H242999   5.548   0.197  14.094 -0.2637 -1.2808  0.0367
 7170TIP3   OH243000   4.208   2.672  15.031 -0.2067 -0.1758 -0.8326
 7170TIP3    H143001   4.258   2.607  14.982 -0.6590 -0.2928 -1.1519
 7170TIP3    H243002   4.269   2.705  15.097  0.0023 -0.9867 -0.6085
 7171TIP3   OH243003   3.730   0.131  11.700 -0.7709  0.3031 -0.0726
 7171TIP3    H143004   3.777   0.210  11.671 -1.4062  0.5093 -0.5757
 7171TIP3    H243005   3.769   0.061  11.648  1.9182 -0.2912  2.4789
 7172TIP3   OH243006   1.617   0.814   1.776 -0.2286  0.1865  0.7185
 7172TIP3    H143007   1.602   0.873   1.702 -0.0730  1.0837  1.3918
 7172TIP3    H243008   1.624   0.727   1.736  1.2821  0.8196 -0.4830
 7173TIP3   OH243009   6.187   1.633   1.600  0.9060 -0.3229 -0.1789
 7173TIP3    H143010   6.239   1.567   1.553  2.0202 -0.6534  1.4248
 7173TIP3    H243011   6.107   1.587   1.625  0.2468 -0.1107 -1.7933
 7174TIP3   OH243012   6.313   4.047   3.003  0.4073 -0.0075 -0.7089
 7174TIP3    H143013   6.316   4.082   2.913 -0.0972 -0.2944 -0.8355
 7174TIP3    H243014   6.235   3.993   3.006  1.7627 -2.0746 -0.8498
 7175TIP3   OH243015   1.393   1.885  10.715  0.0744  0.2347 -0.4867
 7175TIP3    H143016   1.454   1.866  10.786  1.2407  1.6929 -1.0393
 7175TIP3    H243017   1.310   1.906  10.760 -0.0736 -1.7916  0.2643
 7176TIP3   OH243018   2.103   2.024   6.474  0.0669  0.7470  0.1196
 7176TIP3    H143019   2.191   2.034   6.438 -0.0283  1.0798 -0.0249
 7176TIP3    H243020   2.048   2.078   6.418 -0.0332  1.5386  0.9448
 7177TIP3   OH243021   4.573   6.090  15.661 -0.4275 -0.5862 -0.7142
 7177TIP3    H143022   4.648   6.037  15.688  0.4070  2.0685  2.9746
 7177TIP3    H243023   4.611   6.162  15.611 -0.8912 -0.6650 -1.1944
 7178TIP3   OH243024   4.875   6.002  12.052  0.3466 -0.4984  0.2151
 7178TIP3    H143025   4.933   6.053  12.109  0.0405 -1.0804  1.0690
 7178TIP3    H243026   4.895   6.033  11.964  1.4900 -0.2275  0.5539
 7179TIP3   OH243027   5.174   5.639  16.173  0.1768 -0.1105  0.8038
 7179TIP3    H143028   5.240   5.636  16.105 -1.8869  1.3738 -1.4580
 7179TIP3    H243029   5.157   5.732  16.186 -0.8974 -0.4227  1.8838
 7180TIP3   OH243030   6.549   6.343  15.363 -0.0530 -0.1371 -0.5262
 7180TIP3    H143031   6.583   6.255  15.346 -1.6280 -0.3639 -3.1310
 7180TIP3    H243032   6.610   6.401  15.317  0.5852  0.0831  0.5843
 7181TIP3   OH243033   3.550   6.533  14.602  0.1568  0.6269  0.3811
 7181TIP3    H143034   3.580   6.574  14.520 -1.3145  2.0805  0.5216
 7181TIP3    H243035   3.625   6.543  14.662  0.2556  2.1519  0.0542
 7182TIP3   OH243036   1.213   4.513  13.768 -0.6869 -0.7661  0.4468
 7182TIP3    H143037   1.199   4.591  13.822 -1.2798 -0.2124 -0.4770
 7182TIP3    H243038   1.177   4.441  13.819 -3.2129  0.0377 -0.0580
 7183TIP3   OH243039   4.487   0.333   4.765  0.3676 -0.1311  0.0022
 7183TIP3    H143040   4.450   0.285   4.838  0.5630 -3.2143 -1.7535
 7183TIP3    H243041   4.539   0.402   4.805 -1.9722  0.2701  2.6354
 7184TIP3   OH243042   3.941   1.377   3.183 -0.2951  0.0985  0.7554
 7184TIP3    H143043   3.883   1.430   3.237 -1.0402 -0.5948  0.6580
 7184TIP3    H243044   3.912   1.287   3.198  0.0622 -0.1765 -0.1222
 7185TIP3   OH243045   5.144   4.257   0.025  0.4676  0.0637 -0.1360
 7185TIP3    H143046   5.198   4.264  -0.053 -0.9920  2.1085 -1.0910
 7185TIP3    H243047   5.141   4.164   0.046  0.3331 -0.6479 -2.9834
 7186TIP3   OH243048   5.451   4.207   0.105 -0.4111 -0.0958 -0.3434
 7186TIP3    H143049   5.534   4.193   0.060 -0.0819  0.1910  0.1718
 7186TIP3    H243050   5.429   4.122   0.143 -0.7521 -0.3716 -1.1427
 7187TIP3   OH243051   1.721   4.515   5.634 -0.4699  0.1171 -0.8359
 7187TIP3    H143052   1.802   4.497   5.681  1.6253 -1.8476 -4.7262
 7187TIP3    H243053   1.673   4.433   5.635 -1.3499  0.6266 -0.4498
 7188TIP3   OH243054   0.890   3.850   5.599 -0.2677 -0.3050  0.2699
 7188TIP3    H143055   0.939   3.815   5.525  1.0526 -2.3571  1.9784
 7188TIP3    H243056   0.842   3.774   5.633 -0.7395  0.5594  1.5938
 7189TIP3   OH243057   2.983   5.591   0.150  0.1323  0.3745  0.2238
 7189TIP3    H143058   2.935   5.599   0.067  1.8011  0.3699 -0.7979
 7189TIP3    H243059   2.916   5.598   0.217 -1.2644  0.5592 -1.1235
 7190TIP3   OH243060   6.243   6.175   5.626  0.0618  0.0516 -0.2449
 7190TIP3    H143061   6.239   6.270   5.619 -1.7724  0.0014 -0.4448
 7190TIP3    H243062   6.233   6.157   5.719  0.3371  0.0525 -0.2151
 7191TIP3   OH243063   3.871   6.047  12.848 -0.1563  0.3268  0.7474
 7191TIP3    H143064   3.874   5.955  12.873 -1.6519  0.2582  0.7856
 7191TIP3    H243065   3.953   6.063  12.802 -0.4244 -1.3754 -0.4180
 7192TIP3   OH243066   4.474   0.314  12.722  0.3755 -0.0721 -0.0611
 7192TIP3    H143067   4.413   0.272  12.662 -0.0541  0.0793  0.2679
 7192TIP3    H243068   4.559   0.275  12.702 -0.0446 -1.2175  0.3499
 7193TIP3   OH243069   3.132   4.159   3.267 -0.2082 -0.2417  0.2414
 7193TIP3    H143070   3.071   4.096   3.304 -1.0566  0.3472 -0.1355
 7193TIP3    H243071   3.160   4.212   3.343  0.1215 -0.7414  0.4726
 7194TIP3   OH243072   6.517   2.491   0.324  0.1725 -0.1844  0.5561
 7194TIP3    H143073   6.463   2.499   0.403 -1.1269 -1.0270 -0.1949
 7194TIP3    H243074   6.549   2.400   0.326 -2.5124 -1.3115 -1.4074
 7195TIP3   OH243075   0.491   5.690  16.384 -0.1020 -0.3723  0.1383
 7195TIP3    H143076   0.465   5.680  16.293  0.7365 -2.6605  0.0771
 7195TIP3    H243077   0.582   5.720  16.380  0.8050 -2.8503  0.0734
 7196TIP3   OH243078   2.018   6.476  12.029 -0.3498 -1.1039 -0.1289
 7196TIP3    H143079   1.937   6.429  12.051  0.4138 -3.0063 -1.0885
 7196TIP3    H243080   2.054   6.427  11.956  1.1265  0.3738 -0.4373
 7197TIP3   OH243081   3.804   5.393  16.652 -0.3065 -0.0562  0.3968
 7197TIP3    H143082   3.864   5.466  16.672  0.1719 -0.6387  1.1417
 7197TIP3    H243083   3.847   5.316  16.689  0.3106 -1.1476 -2.3338
 7198TIP3   OH243084   1.599   2.590   4.933 -0.2194  0.2486 -0.2007
 7198TIP3    H143085   1.693   2.603   4.929 -0.3374  0.9028 -1.1220
 7198TIP3    H243086   1.564   2.673   4.965 -0.4343 -0.2434  0.8866
 7199TIP3   OH243087   3.798   4.033   1.467 -0.0680  0.0564 -0.5195
 7199TIP3    H143088   3.805   3.986   1.550 -1.2348  0.5495 -0.1089
 7199TIP3    H243089   3.885   4.069   1.452  0.2123 -0.2222  0.3889
 7200TIP3   OH243090   5.986   5.687   4.505 -0.0067 -0.1524  0.4813
 7200TIP3    H143091   6.077   5.672   4.480  0.2500  1.1199  0.6095
 7200TIP3    H243092   5.940   5.704   4.423  0.6331  2.9633  0.6386
 7201TIP3   OH243093   5.829   0.065  11.432 -0.3592 -0.1033  0.8228
 7201TIP3    H143094   5.800  -0.009  11.486 -0.2328 -1.2914 -0.6412
 7201TIP3    H243095   5.923   0.071  11.447  0.0469 -1.7429 -0.6843
 7202TIP3   OH243096   4.651   4.265  15.308  0.1285  0.0644  0.2427
 7202TIP3    H143097   4.593   4.199  15.347  0.5058  0.2678  1.1679
 7202TIP3    H243098   4.716   4.214  15.260 -0.8899 -0.1656 -0.9609
 7203TIP3   OH243099   2.490   3.596  11.063  0.2473 -0.0526  0.1074
 7203TIP3    H143100   2.411   3.552  11.094  0.0804  0.6505  0.7143
 7203TIP3    H243101   2.474   3.611  10.970  0.6957 -2.0576 -0.3275
 7204TIP3   OH243102   4.522   4.595   5.759 -0.0411  0.4131  0.2757
 7204TIP3    H143103   4.616   4.587   5.776  0.3554  3.9837  0.5586
 7204TIP3    H243104   4.482   4.588   5.846  0.1081  0.3357  0.3387
 7205TIP3   OH243105   0.050   0.601  14.009 -0.5637  0.4069 -0.4885
 7205TIP3    H143106  -0.015   0.587  13.940 -0.3108 -0.0552 -0.6356
 7205TIP3    H243107  -0.002   0.624  14.087 -0.7986  2.0550 -1.0843
 7206TIP3   OH243108   4.105   1.231   1.964  0.0776 -0.2696 -0.4053
 7206TIP3    H143109   4.138   1.188   2.043  1.9449 -0.4330 -1.2276
 7206TIP3    H243110   4.011   1.244   1.981  0.3673 -0.5745  1.6921
 7207TIP3   OH243111   1.714   0.431   5.328  0.2485  0.1524 -0.1316
 7207TIP3    H143112   1.785   0.407   5.268  0.8161 -3.3198  1.6114
 7207TIP3    H243113   1.739   0.388   5.411 -0.7910  4.0862  2.4875
 7208TIP3   OH243114   1.192   0.614   2.805  0.2399  0.2850 -0.5332
 7208TIP3    H143115   1.129   0.598   2.876 -0.5026 -0.6864 -1.3827
 7208TIP3    H243116   1.264   0.659   2.848  0.5559 -1.7130  1.2194
 7209TIP3   OH243117   1.734   4.097  13.299  0.1463 -0.4344 -0.4118
 7209TIP3    H143118   1.639   4.093  13.288  0.0740 -1.6735  0.3505
 7209TIP3    H243119   1.769   4.102  13.211 -0.6364  0.4900 -0.6831
 7210TIP3   OH243120   0.851   4.542   4.469 -0.0785 -0.1321  0.6849
 7210TIP3    H143121   0.759   4.524   4.490 -0.2787  1.7514  1.6516
 7210TIP3    H243122   0.858   4.637   4.475  2.2144 -0.3268  1.8574
 7211TIP3   OH243123   0.881   6.699   3.624 -0.5335 -0.4851 -0.4531
 7211TIP3    H143124   0.812   6.633   3.632 -2.7433  1.8204  1.2170
 7211TIP3    H243125   0.835   6.782   3.635  2.7225  1.1680  2.8443
 7212TIP3   OH243126   3.174   1.091   4.086 -0.1936 -0.6032  0.2736
 7212TIP3    H143127   3.239   1.122   4.149 -3.1045  0.1355  3.1568
 7212TIP3    H243128   3.158   1.167   4.030  0.4130 -0.3681  0.4056
 7213TIP3   OH243129   2.886   1.297   5.867 -0.2877 -0.0137  0.9658
 7213TIP3    H143130   2.844   1.230   5.920 -1.1327  0.0079  0.3497
 7213TIP3    H243131   2.846   1.379   5.896 -1.2782 -0.0732 -0.1654
 7214TIP3   OH243132   0.201   1.229  15.384 -0.3507  0.2735 -0.4036
 7214TIP3    H143133   0.197   1.241  15.289 -0.0950  0.0214 -0.4460
 7214TIP3    H243134   0.291   1.252  15.407 -0.3751  0.2042 -0.2413
 7215TIP3   OH243135   3.483   3.638   0.073  0.0622 -0.0604 -0.2616
 7215TIP3    H143136   3.450   3.620  -0.015 -1.3680 -2.8098  0.7245
 7215TIP3    H243137   3.481   3.554   0.117  0.8280  1.2117  2.4126
 7216TIP3   OH243138   4.511   2.771   1.886 -0.2207  0.5074  0.0375
 7216TIP3    H143139   4.552   2.821   1.816  0.0988  0.4406  0.1754
 7216TIP3    H243140   4.584   2.739   1.939 -0.4031 -0.4232 -0.2542
 7217TIP3   OH243141   0.353   3.267   3.654 -0.4335  0.8030 -0.4440
 7217TIP3    H143142   0.364   3.179   3.690  1.6584  0.8557 -0.8343
 7217TIP3    H243143   0.298   3.312   3.718  1.3978  0.2506  1.6467
 7218TIP3   OH243144   0.389   5.604  11.822 -0.1266  0.2864  0.0108
 7218TIP3    H143145   0.465   5.622  11.877 -1.3159 -0.9171  2.1873
 7218TIP3    H243146   0.419   5.535  11.763  0.5728  0.0338  0.6383
 7219TIP3   OH243147   0.770   0.861  17.004  0.1722  0.1830 -0.1430
 7219TIP3    H143148   0.815   0.777  17.016 -0.4625 -0.3991 -1.5125
 7219TIP3    H243149   0.714   0.870  17.081  2.0080  0.5632  1.2269
 7220TIP3   OH243150   3.427   1.626  12.627  0.0340 -0.0022 -0.2118
 7220TIP3    H143151   3.518   1.619  12.657  0.7947  0.0640 -2.3722
 7220TIP3    H243152   3.384   1.681  12.693  2.0848  1.7132 -0.2198
 7221TIP3   OH243153   2.731   1.090  12.549 -0.0855 -0.1303  0.3378
 7221TIP3    H143154   2.639   1.064  12.551  0.3960 -1.9971  0.0572
 7221TIP3    H243155   2.767   1.044  12.473  1.0842  0.5835  0.4400
 7222TIP3   OH243156   0.430   4.297  12.099  0.3606 -0.2962 -0.0263
 7222TIP3    H143157   0.471   4.363  12.154 -0.2171 -1.3423  1.7523
 7222TIP3    H243158   0.368   4.345  12.045  2.7069  1.0894 -1.6204
 7223TIP3   OH243159   3.835   4.996  13.992 -0.4411 -0.3299 -0.1926
 7223TIP3    H143160   3.929   4.989  14.006 -0.2679  0.7129 -0.7965
 7223TIP3    H243161   3.821   5.084  13.959 -1.7562 -0.0968  0.8711
 7224TIP3   OH243162   5.311   0.479  16.574 -0.3439  0.0885  0.3728
 7224TIP3    H143163   5.338   0.534  16.500 -1.9182  0.2823 -0.0937
 7224TIP3    H243164   5.357   0.396  16.560  0.5724  0.6396  0.0337
 7225TIP3   OH243165   4.360   0.120  13.397 -0.0301  0.1044 -0.4626
 7225TIP3    H143166   4.398   0.032  13.393 -0.6471 -0.1406 -1.5291
 7225TIP3    H243167   4.429   0.177  13.361  0.3229  0.0409  0.1092
 7226TIP3   OH243168   5.265   0.458   2.764  0.0334 -0.3314  0.3173
 7226TIP3    H143169   5.317   0.484   2.689 -1.2548 -1.3438 -0.9854
 7226TIP3    H243170   5.329   0.435   2.832  1.2456 -0.6477 -0.9013
 7227TIP3   OH243171   5.040   1.446  13.211 -0.1413  0.4047 -0.4149
 7227TIP3    H143172   5.094   1.460  13.133 -0.7790  0.4781 -0.8470
 7227TIP3    H243173   5.100   1.458  13.285  0.1985  1.5380 -0.8600
 7228TIP3   OH243174   2.127   2.414  12.753  0.2297 -0.8830  0.2464
 7228TIP3    H143175   2.176   2.354  12.809  1.2077 -1.7085 -1.4119
 7228TIP3    H243176   2.142   2.381  12.664 -1.4945  0.2054 -0.4948
 7229TIP3   OH243177   1.265   3.108  15.125 -1.1763  0.6014  0.3623
 7229TIP3    H143178   1.322   3.182  15.147 -2.2381  0.9151  2.2691
 7229TIP3    H243179   1.321   3.031  15.136 -0.3265  1.0533 -0.6927
 7230TIP3   OH243180   4.606   2.663   4.201 -0.2874  0.6017  0.4712
 7230TIP3    H143181   4.607   2.646   4.295  0.0146  0.6026  0.4701
 7230TIP3    H243182   4.524   2.625   4.170 -0.1428  0.1275  0.6522
 7231TIP3   OH243183   2.749   6.693   2.195  0.3657  0.0967  0.1464
 7231TIP3    H143184   2.663   6.677   2.233  0.4035 -1.7172 -0.4141
 7231TIP3    H243185   2.810   6.654   2.257  0.6545 -0.0710 -0.2362
 7232TIP3   OH243186   5.302   5.163   2.662  0.1261  0.3270 -0.2487
 7232TIP3    H143187   5.306   5.259   2.665 -0.6361  0.4786 -2.5355
 7232TIP3    H243188   5.209   5.143   2.651  0.2721 -0.6988  0.2377
 7233TIP3   OH243189   0.186   2.754  14.449  0.3674 -0.6379  0.3522
 7233TIP3    H143190   0.123   2.686  14.475 -0.2659  0.4434  1.7364
 7233TIP3    H243191   0.154   2.786  14.365 -0.5241 -0.6088  0.6983
 7234TIP3   OH243192   1.044   0.096   1.646 -0.2230 -0.0988 -0.4766
 7234TIP3    H143193   0.985   0.165   1.616 -0.7502 -0.1629  0.3959
 7234TIP3    H243194   1.023   0.021   1.591 -1.4070 -0.3112  0.2203
 7235TIP3   OH243195   4.854   2.705   2.354  0.6845 -0.1279  0.7343
 7235TIP3    H143196   4.896   2.791   2.346 -0.6463  0.5667  0.8112
 7235TIP3    H243197   4.834   2.697   2.447 -0.5884  0.2002  0.5096
 7236TIP3   OH243198   1.901   6.167  13.893  0.0109 -0.2668 -0.0079
 7236TIP3    H143199   1.914   6.131  13.805  0.6473 -1.7747  0.6736
 7236TIP3    H243200   1.812   6.141  13.916 -0.4586  0.8406 -0.5044
 7237TIP3   OH243201   3.678   3.251  16.195 -1.0130  0.4400  0.1422
 7237TIP3    H143202   3.585   3.246  16.175 -1.0455  1.1500  0.0639
 7237TIP3    H243203   3.707   3.160  16.202 -1.4453  0.1896 -1.0717
 7238TIP3   OH243204   1.392   3.838  12.426 -0.3218  0.0821  0.0661
 7238TIP3    H143205   1.367   3.931  12.421  0.2836  0.2590  0.2309
 7238TIP3    H243206   1.477   3.839  12.471 -0.8233 -0.6374  1.0641
 7239TIP3   OH243207   6.381   2.107   5.846 -0.3639 -0.4067 -0.6733
 7239TIP3    H143208   6.433   2.027   5.850 -1.0472 -0.8997 -1.2774
 7239TIP3    H243209   6.383   2.141   5.935  1.0055 -0.3847 -0.6860
 7240TIP3   OH243210   3.225   5.219  16.559 -0.4682 -0.0992  0.1842
 7240TIP3    H143211   3.284   5.147  16.538  0.1362 -0.1144  1.8154
 7240TIP3    H243212   3.141   5.192  16.522  0.6920  0.4284 -3.1611
 7241TIP3   OH243213   0.507   6.679   3.026 -0.4883  0.2839  0.3331
 7241TIP3    H143214   0.575   6.746   3.038 -0.2628 -0.0904  1.2274
 7241TIP3    H243215   0.524   6.643   2.939 -0.1259  0.8496  0.1622
 7242TIP3   OH243216   5.836   6.355   6.320 -0.4148  0.2427 -0.2090
 7242TIP3    H143217   5.759   6.306   6.347 -2.0239  1.8503 -1.5692
 7242TIP3    H243218   5.849   6.329   6.228  0.5511  0.1490 -0.0547
 7243TIP3   OH243219   4.479   4.120  15.043  0.5418  0.2868 -0.0790
 7243TIP3    H143220   4.445   4.103  15.131  0.7865 -0.2348 -0.0805
 7243TIP3    H243221   4.544   4.051  15.029 -0.4419 -0.4628 -1.1820
 7244TIP3   OH243222   0.665   0.631  12.752 -0.0916 -0.5254  0.3384
 7244TIP3    H143223   0.647   0.537  12.750 -0.0409 -0.5353 -2.1450
 7244TIP3    H243224   0.751   0.641  12.712 -0.5411  0.6521 -0.3822
 7245TIP3   OH243225   1.293   2.530  16.140  0.0677  0.1386 -0.3332
 7245TIP3    H143226   1.230   2.479  16.089  0.4132  1.1314 -1.8306
 7245TIP3    H243227   1.240   2.572  16.208 -1.0207  1.1910 -1.7391
 7246TIP3   OH243228   0.769   5.309  11.001  0.0372 -0.3234  0.2278
 7246TIP3    H143229   0.810   5.347  10.923  1.0035 -0.4736  0.6489
 7246TIP3    H243230   0.710   5.378  11.033  1.5177  0.7321  0.7893
 7247TIP3   OH243231   0.213   4.372  14.447 -0.4289  0.2462  0.4806
 7247TIP3    H143232   0.151   4.306  14.416  0.0347  0.4916 -1.0431
 7247TIP3    H243233   0.295   4.324  14.457 -0.1258  0.5475 -0.4911
 7248TIP3   OH243234   5.679   2.511   2.867 -0.1133  0.2007 -0.4350
 7248TIP3    H143235   5.594   2.535   2.829 -0.1165 -2.3560 -2.2701
 7248TIP3    H243236   5.696   2.423   2.834  2.8962  0.3096  0.5651
 7249TIP3   OH243237   1.684   1.052   5.534 -0.2660 -0.2361  0.0848
 7249TIP3    H143238   1.658   1.113   5.603 -1.3758 -0.4832 -0.0982
 7249TIP3    H243239   1.736   0.986   5.579 -1.6916 -0.8686  0.8594
 7250TIP3   OH243240   2.398   0.474   0.117 -0.0796 -0.0197 -0.5697
 7250TIP3    H143241   2.423   0.540   0.053 -0.8458  0.4366 -0.4197
 7250TIP3    H243242   2.353   0.407   0.066 -0.4703  0.2237 -0.5513
 7251TIP3   OH243243   2.598   4.708  16.731  0.0748 -0.0448 -0.2009
 7251TIP3    H143244   2.645   4.787  16.758 -2.2631  1.0163  1.0015
 7251TIP3    H243245   2.572   4.666  16.812 -3.6746  1.0924 -0.6185
 7252TIP3   OH243246   5.818   1.160  13.472 -0.8872  0.1137 -0.1033
 7252TIP3    H143247   5.770   1.120  13.544 -2.5485  1.1062 -0.5768
 7252TIP3    H243248   5.777   1.247  13.462  1.4224  1.2617 -0.1882
 7253TIP3   OH243249   4.609   4.506  11.956 -0.0269 -0.0319  0.1770
 7253TIP3    H143250   4.704   4.517  11.962 -0.0802  0.1293  0.7148
 7253TIP3    H243251   4.595   4.471  11.868  0.4442  1.0290 -0.3459
 7254TIP3   OH243252   1.274   1.411   5.067  0.2767  0.6348 -0.2668
 7254TIP3    H143253   1.346   1.400   5.128 -0.1182 -1.0737 -0.0666
 7254TIP3    H243254   1.196   1.386   5.117  0.0166 -1.4933 -1.6146
 7255TIP3   OH243255   2.388   0.703  15.086  0.2570 -0.1929  0.3250
 7255TIP3    H143256   2.414   0.611  15.076 -1.0441 -0.5855  0.2910
 7255TIP3    H243257   2.315   0.701  15.148 -0.1425  0.7446 -0.0835
 7256TIP3   OH243258   3.823   1.067   0.156  0.0667  0.4072 -0.3394
 7256TIP3    H143259   3.778   1.054   0.072  0.1933  0.7494 -0.4621
 7256TIP3    H243260   3.755   1.098   0.215  0.6020  3.4405 -1.1829
 7257TIP3   OH243261   0.651   0.783   3.774  0.1722  0.1886 -0.3122
 7257TIP3    H143262   0.577   0.761   3.831 -0.8724  0.9254 -1.3454
 7257TIP3    H243263   0.702   0.847   3.824  0.9248 -1.3331  0.9764
 7258TIP3   OH243264   5.440   4.630   2.288 -0.1359  0.4828  0.7438
 7258TIP3    H143265   5.514   4.570   2.296 -0.6993 -0.1010  2.0006
 7258TIP3    H243266   5.479   4.717   2.295  0.6270  0.2628 -0.4947
 7259TIP3   OH243267   6.074   0.770   6.033 -0.1848 -0.6672  0.3903
 7259TIP3    H143268   6.007   0.758   6.101  1.1848 -2.4043  1.5336
 7259TIP3    H243269   6.033   0.737   5.953 -1.5291  0.6170  0.4926
 7260TIP3   OH243270   1.945   3.054  13.131  0.1896 -0.0758  0.1698
 7260TIP3    H143271   1.967   3.020  13.044 -0.5671  0.3662 -0.2116
 7260TIP3    H243272   1.966   3.147  13.126 -1.4801  0.3273 -0.1515
 7261TIP3   OH243273   2.821   0.570   0.720  0.6444 -0.0593  0.0141
 7261TIP3    H143274   2.890   0.530   0.668  0.5104 -1.8141  1.0681
 7261TIP3    H243275   2.862   0.588   0.805 -0.0012 -0.5028  0.4302
 7262TIP3   OH243276   1.350   4.087  12.579 -0.3146  0.3905 -0.5824
 7262TIP3    H143277   1.360   4.182  12.591 -0.3256  0.6744 -2.4778
 7262TIP3    H243278   1.261   4.077  12.545 -0.5137 -0.3758  0.1441
 7263TIP3   OH243279   0.128   1.876   3.089  0.0224 -0.6201  0.5097
 7263TIP3    H143280   0.088   1.809   3.145 -0.3101 -1.4320 -0.6550
 7263TIP3    H243281   0.147   1.948   3.148  0.7811 -1.9054  1.8982
 7264TIP3   OH243282   5.697   3.508   4.658  0.6166  0.5202 -0.0475
 7264TIP3    H143283   5.695   3.424   4.702 -2.6305  1.4322  1.9001
 7264TIP3    H243284   5.711   3.572   4.728 -0.1271  1.7364 -0.9575
 7265TIP3   OH243285   5.611   3.930  16.116 -0.3900 -0.3203  0.0918
 7265TIP3    H143286   5.565   3.847  16.105  0.5075 -0.7282 -0.7397
 7265TIP3    H243287   5.573   3.968  16.195 -0.3463 -1.8393  0.8829
 7266TIP3   OH243288   1.769   3.118  15.867  0.4986  0.4063  0.4092
 7266TIP3    H143289   1.844   3.089  15.815 -0.8239  0.7137 -1.7763
 7266TIP3    H243290   1.746   3.042  15.921  1.0334 -0.4499 -0.5290
 7267TIP3   OH243291   3.005   5.512  11.052 -0.8217 -0.0304 -0.1640
 7267TIP3    H143292   2.914   5.489  11.072 -0.8019 -1.2758 -1.3151
 7267TIP3    H243293   2.999   5.568  10.974 -0.6257  0.4333  0.1483
 7268TIP3   OH243294   3.671   2.078   5.298  0.5003  0.1951  0.2807
 7268TIP3    H143295   3.713   2.023   5.364  0.5522 -0.8738 -0.6081
 7268TIP3    H243296   3.742   2.130   5.261  0.8149 -0.5571 -0.2078
 7269TIP3   OH243297   5.250   0.655   0.468 -0.2525  0.2937 -0.0090
 7269TIP3    H143298   5.195   0.732   0.449 -0.0148  0.7527  1.0443
 7269TIP3    H243299   5.336   0.677   0.434  0.5891  1.7735  2.7172
 7270TIP3   OH243300   5.801   5.055  13.052  0.3433  0.2117  0.8100
 7270TIP3    H143301   5.895   5.043  13.066  0.4063  0.6034  0.7294
 7270TIP3    H243302   5.770   5.099  13.131  0.0561 -0.7320  1.2379
 7271TIP3   OH243303   5.369   0.856  12.786  0.1345  0.5121  0.8468
 7271TIP3    H143304   5.321   0.931  12.750  1.3276  0.6996 -0.4406
 7271TIP3    H243305   5.404   0.811  12.709  0.7992 -0.4545  1.6805
 7272TIP3   OH243306   3.671   1.808   3.914 -0.2067 -0.3283  0.4523
 7272TIP3    H143307   3.601   1.749   3.885  0.1899 -1.4890  1.7440
 7272TIP3    H243308   3.645   1.894   3.881 -3.3854 -0.2568  2.6617
 7273TIP3   OH243309   4.607   2.379   2.981 -0.2714  0.2912  0.1381
 7273TIP3    H143310   4.610   2.458   2.928 -0.2432  0.0783 -0.1820
 7273TIP3    H243311   4.696   2.370   3.016  0.0156 -0.1742 -0.6827
 7274TIP3   OH243312   6.438   4.779   1.311  0.3099 -0.4838 -0.3522
 7274TIP3    H143313   6.501   4.764   1.380  1.8601  0.8926 -1.4099
 7274TIP3    H243314   6.411   4.870   1.320 -2.3082 -1.2485  0.6370
 7275TIP3   OH243315   4.182   4.142   3.062 -0.1623 -0.1339 -0.4515
 7275TIP3    H143316   4.259   4.188   3.096 -0.6442  1.0583 -0.9188
 7275TIP3    H243317   4.208   4.050   3.061  1.1123  0.2018 -0.2259
 7276TIP3   OH243318   4.184   2.836  12.622 -0.3403 -0.2212 -0.2966
 7276TIP3    H143319   4.236   2.911  12.650  0.8313 -0.8407 -0.7352
 7276TIP3    H243320   4.128   2.815  12.697  1.4505 -0.7434  0.9656
 7277TIP3   OH243321   6.291   1.120  17.153 -0.1867 -0.2983 -0.5323
 7277TIP3    H143322   6.247   1.055  17.098 -1.4785 -1.1364  1.3776
 7277TIP3    H243323   6.245   1.202  17.136 -1.1428 -0.7313 -0.1102
 7278TIP3   OH243324   5.656   6.619   0.471  0.5010 -0.2193  0.6357
 7278TIP3    H143325   5.655   6.586   0.560 -3.2772 -1.4414  0.3146
 7278TIP3    H243326   5.609   6.703   0.476 -0.8650 -0.8893 -0.3030
 7279TIP3   OH243327   6.803   1.283   1.956 -0.3023 -0.6061 -0.3415
 7279TIP3    H143328   6.895   1.257   1.954 -0.1747 -0.1539 -2.6579
 7279TIP3    H243329   6.764   1.225   2.021  1.2595 -2.0939 -0.6459
 7280TIP3   OH243330   3.727   2.178  12.128  0.1106 -0.3743  0.0592
 7280TIP3    H143331   3.777   2.111  12.173  2.3554  2.0736  1.5006
 7280TIP3    H243332   3.719   2.249  12.191 -0.3119  1.5585 -2.0171
 7281TIP3   OH243333   3.269   6.620  16.108 -0.2034 -0.1746 -0.2454
 7281TIP3    H143334   3.235   6.569  16.035 -0.4175 -0.2336 -0.1028
 7281TIP3    H243335   3.364   6.613  16.099 -0.2299 -0.2967 -0.4370
 7282TIP3   OH243336   3.404   6.742  12.198 -0.9871 -1.0564  0.0969
 7282TIP3    H143337   3.364   6.680  12.137 -0.0969 -1.4620 -0.0906
 7282TIP3    H243338   3.497   6.720  12.197 -0.8155 -0.4112  0.8475
 7283TIP3   OH243339   3.426   0.517   6.200  0.3165  0.1220 -0.3538
 7283TIP3    H143340   3.440   0.593   6.144 -0.7111  0.8514  0.3568
 7283TIP3    H243341   3.335   0.525   6.230  0.8208 -0.2620  1.3854
 7284TIP3   OH243342   5.100   3.328  16.848  0.2500 -0.4410  0.6784
 7284TIP3    H143343   5.020   3.276  16.852 -0.6100  0.5598 -1.7627
 7284TIP3    H243344   5.167   3.265  16.820 -0.3521 -0.6876 -0.2594
 7285TIP3   OH243345   4.137   1.690   1.868 -0.6071  0.4555  0.7462
 7285TIP3    H143346   4.188   1.752   1.816  2.5659 -2.4910 -0.0392
 7285TIP3    H243347   4.153   1.718   1.959  2.3519 -0.0934  0.5215
 7286TIP3   OH243348   2.047   3.836  14.192 -0.0282  0.2902 -0.1168
 7286TIP3    H143349   2.065   3.929  14.208  0.1522  0.1332  0.6428
 7286TIP3    H243350   2.090   3.791  14.264  1.6000 -0.5580 -1.5644
 7287TIP3   OH243351   1.985   0.678   2.640  0.0603  0.1727 -0.5853
 7287TIP3    H143352   2.038   0.734   2.696 -1.1694  0.5184  0.2558
 7287TIP3    H243353   2.018   0.695   2.551  1.4069  0.2920 -0.0858
 7288TIP3   OH243354   5.407   4.416   5.674 -0.1571 -0.4684  0.0710
 7288TIP3    H143355   5.364   4.406   5.590 -1.5753  0.9835  0.5783
 7288TIP3    H243356   5.345   4.380   5.738 -0.2058  0.6983  0.7125
 7289TIP3   OH243357   2.919   2.743   0.684 -0.5821  0.1039  0.3791
 7289TIP3    H143358   2.829   2.775   0.689 -0.2993  1.4992 -1.8187
 7289TIP3    H243359   2.965   2.788   0.755 -1.2616  0.7034  0.4470
 7290TIP3   OH243360   6.725   2.797   6.351 -0.5971  0.1801  0.2287
 7290TIP3    H143361   6.753   2.831   6.436  1.2829  0.9972 -0.6805
 7290TIP3    H243362   6.771   2.714   6.342  1.6394  1.5061 -1.2517
 7291TIP3   OH243363   1.272   3.066   4.781  0.6715 -0.3558 -0.2981
 7291TIP3    H143364   1.268   3.116   4.699  1.5181 -0.1070 -0.1984
 7291TIP3    H243365   1.311   3.127   4.844  0.8397 -0.8290  0.0656
 7292TIP3   OH243366   6.120   0.319   4.943  0.0395 -0.1129  0.3453
 7292TIP3    H143367   6.104   0.400   4.895  1.9656  1.2691  1.8808
 7292TIP3    H243368   6.175   0.267   4.885 -0.3043  0.1553 -0.2258
 7293TIP3   OH243369   6.688   5.542  14.242  0.1265  0.5173  0.1848
 7293TIP3    H143370   6.601   5.519  14.209 -1.0514  2.0195  2.0194
 7293TIP3    H243371   6.700   5.485  14.319  1.9309 -1.4654 -1.4205
 7294TIP3   OH243372   1.323   1.787  13.661  0.4636  0.0730 -0.5847
 7294TIP3    H143373   1.256   1.779  13.729 -0.7228  2.3899 -1.3520
 7294TIP3    H243374   1.380   1.712  13.675 -1.5698 -1.3268  0.9082
 7295TIP3   OH243375   4.303   3.593  12.095 -0.3825  0.0377 -0.0743
 7295TIP3    H143376   4.367   3.619  12.028 -0.6341 -0.2584 -0.4315
 7295TIP3    H243377   4.248   3.528  12.052  0.7936 -1.8049  1.0456
 7296TIP3   OH243378   1.363   1.479  15.167  0.7686 -0.0193  0.3793
 7296TIP3    H143379   1.347   1.392  15.205 -0.0221 -0.4175 -0.8163
 7296TIP3    H243380   1.280   1.525  15.176  1.0493  0.4513  0.5819
 7297TIP3   OH243381   0.503   3.869  15.825  0.2316 -0.2972 -0.5113
 7297TIP3    H143382   0.549   3.949  15.852  1.0922 -0.7300 -0.6606
 7297TIP3    H243383   0.410   3.893  15.826  0.4956  0.7827 -0.8195
 7298TIP3   OH243384   1.790   3.661   3.161  0.1900 -0.7086 -0.4149
 7298TIP3    H143385   1.726   3.594   3.181  0.6876 -1.8004 -2.1952
 7298TIP3    H243386   1.747   3.718   3.097  0.1082  0.1144  0.3520
 7299TIP3   OH243387   6.802   3.550  12.707  0.2031  0.0150  0.7806
 7299TIP3    H143388   6.819   3.634  12.664 -1.2749  0.1010  0.2825
 7299TIP3    H243389   6.877   3.495  12.684  0.7996  0.9512  0.4429
 7300TIP3   OH243390   0.446   5.934   0.441  0.3395  0.3426  0.2344
 7300TIP3    H143391   0.537   5.964   0.447  0.5766 -0.1114 -0.7585
 7300TIP3    H243392   0.394   6.013   0.452  0.9420  1.0948 -1.7492
 7301TIP3   OH243393   1.594   4.767  15.096  0.1393 -0.0711  0.4390
 7301TIP3    H143394   1.541   4.830  15.144  1.5091 -0.6043  2.7545
 7301TIP3    H243395   1.573   4.683  15.136  1.5895 -0.4951  0.3421
 7302TIP3   OH243396   2.681   1.860   0.168  0.2650 -0.0753  0.5087
 7302TIP3    H143397   2.647   1.860   0.258  0.8863  2.7504  0.8342
 7302TIP3    H243398   2.620   1.916   0.120  1.4084  0.5763 -0.2005
 7303TIP3   OH243399   0.383   2.904  15.648 -0.2648  0.2367 -0.1538
 7303TIP3    H143400   0.435   2.897  15.728 -1.3199  0.0632  0.5411
 7303TIP3    H243401   0.306   2.850  15.665 -0.5205  0.2259 -1.2843
 7304TIP3   OH243402   4.129   1.617  16.710 -0.3673  0.2306 -0.3593
 7304TIP3    H143403   4.089   1.647  16.629  0.0540  0.1531 -0.5949
 7304TIP3    H243404   4.100   1.526  16.719 -0.1655  0.1424 -0.5836
 7305TIP3   OH243405   0.546   6.795  12.277  0.2627  0.0026 -0.3365
 7305TIP3    H143406   0.606   6.745  12.220  0.0429 -0.7615  0.0879
 7305TIP3    H243407   0.500   6.728  12.327 -0.7713  0.5918 -0.4750
 7306TIP3   OH243408   6.530   0.503  14.556 -0.0170  0.1941 -0.3883
 7306TIP3    H143409   6.532   0.423  14.609  1.1360  1.0376  0.9003
 7306TIP3    H243410   6.471   0.562  14.602 -0.7350  0.1732 -1.2459
 7307TIP3   OH243411   4.481   1.778  13.113  0.2113  0.2874 -0.1033
 7307TIP3    H143412   4.425   1.816  13.046 -0.9441  0.6399  1.0131
 7307TIP3    H243413   4.507   1.853  13.167 -1.1628 -0.2928  1.4507
 7308TIP3   OH243414   5.665   3.269  16.680  0.0563 -0.1663  0.3242
 7308TIP3    H143415   5.710   3.340  16.633 -0.2468  0.7319  1.3553
 7308TIP3    H243416   5.733   3.227  16.731 -0.4016  2.1622  3.0905
 7309TIP3   OH243417   4.720   0.200   1.758  0.3432  0.2010 -0.2782
 7309TIP3    H143418   4.760   0.239   1.836  0.3451 -0.1555 -0.0978
 7309TIP3    H243419   4.787   0.142   1.723 -1.0304 -3.0107  1.9072
 7310TIP3   OH243420   5.032   4.641   4.753  0.3055  0.2392 -0.2971
 7310TIP3    H143421   5.085   4.699   4.698 -1.1468 -1.2388 -3.5570
 7310TIP3    H243422   4.946   4.640   4.711 -1.4656  0.1468  3.0020
 7311TIP3   OH243423   3.131   0.944   5.191  0.2111  0.0794 -0.0115
 7311TIP3    H143424   3.059   0.941   5.254 -1.1848 -1.4234 -1.5685
 7311TIP3    H243425   3.106   0.881   5.123  3.1902 -0.7700 -0.4515
 7312TIP3   OH243426   5.580   4.765  12.369  0.5179  0.3790  0.0484
 7312TIP3    H143427   5.540   4.839  12.415  0.5530  1.7129 -1.9126
 7312TIP3    H243428   5.649   4.805  12.316  1.0368 -1.1726 -0.4932
 7313TIP3   OH243429   5.299   6.069   2.929  0.0758 -0.4327 -0.4966
 7313TIP3    H143430   5.278   6.040   2.840 -0.2365  0.8465 -0.8583
 7313TIP3    H243431   5.358   6.144   2.916  0.0733 -0.2764  0.3737
 7314TIP3   OH243432   1.452   5.211   4.175  0.2648 -0.3806 -0.2828
 7314TIP3    H143433   1.494   5.297   4.180 -0.0637 -0.2715  0.7001
 7314TIP3    H243434   1.437   5.197   4.081 -0.9210  1.2318 -0.3600
 7315TIP3   OH243435   4.450   5.618   0.195 -0.6412 -0.1536 -0.4172
 7315TIP3    H143436   4.442   5.522   0.202  0.9644 -0.2444  0.3895
 7315TIP3    H243437   4.360   5.649   0.206 -0.8399 -1.4124  2.2714
 7316TIP3   OH243438   1.175   0.546  13.251 -0.4580 -0.0444 -0.3897
 7316TIP3    H143439   1.168   0.545  13.156 -1.1903  0.1178 -0.3458
 7316TIP3    H243440   1.227   0.469  13.272  1.3319  0.9422 -1.0311
 7317TIP3   OH243441   2.520   3.299   6.050 -0.2312 -0.1920 -0.3668
 7317TIP3    H143442   2.468   3.269   6.125 -1.2485 -0.4859 -1.1541
 7317TIP3    H243443   2.566   3.220   6.020  1.5301  0.2723  0.9391
 7318TIP3   OH243444   0.966   1.973   5.226 -0.2062 -0.1067  0.1896
 7318TIP3    H143445   0.908   2.004   5.296 -1.6208 -3.3672  0.6478
 7318TIP3    H243446   0.912   1.913   5.175  2.4028 -2.4842 -0.0166
 7319TIP3   OH243447   6.127   6.782   4.414  0.1871 -0.5529 -0.2001
 7319TIP3    H143448   6.049   6.829   4.446  0.9385  1.1891 -0.7841
 7319TIP3    H243449   6.149   6.721   4.484  0.2093  1.2573  1.4617
 7320TIP3   OH243450   2.244   2.927  16.834 -0.0873 -0.2284 -0.1785
 7320TIP3    H143451   2.316   2.902  16.892 -0.5312 -2.0231 -0.3345
 7320TIP3    H243452   2.237   3.022  16.844  1.8944 -0.0898  0.2899
 7321TIP3   OH243453   3.154   0.142  10.226  0.4577  0.2999  0.1605
 7321TIP3    H143454   3.207   0.210  10.269  1.1614 -2.0919  3.5239
 7321TIP3    H243455   3.070   0.185  10.209  1.2324  2.3202  1.0673
 7322TIP3   OH243456   4.461   0.631   5.724  0.2627 -0.7867 -0.2048
 7322TIP3    H143457   4.383   0.677   5.754  0.1533 -1.1126  0.0217
 7322TIP3    H243458   4.529   0.698   5.721 -0.4515 -0.0932 -2.2025
 7323TIP3   OH243459   4.883   3.973  12.019  0.1763  0.0075 -0.8058
 7323TIP3    H143460   4.876   3.897  12.077  0.3581 -0.0276 -0.8282
 7323TIP3    H243461   4.834   4.042  12.063  2.4312  0.7802  0.6900
 7324TIP3   OH243462   4.451   4.822   1.254 -0.3854 -0.7761 -0.2874
 7324TIP3    H143463   4.487   4.750   1.201  1.0554  0.1977 -0.6893
 7324TIP3    H243464   4.441   4.894   1.192 -1.1117 -0.3857  0.2745
 7325TIP3   OH243465   1.864   6.808   0.676 -0.4781  0.4239  0.1688
 7325TIP3    H143466   1.919   6.868   0.726 -0.5839  1.4459 -0.8871
 7325TIP3    H243467   1.861   6.728   0.728  1.6074  0.5047  0.4917
 7326TIP3   OH243468   3.162   6.747  14.283  0.1840  0.2952 -0.2394
 7326TIP3    H143469   3.087   6.698  14.249 -0.7684  2.7251 -1.9752
 7326TIP3    H243470   3.126   6.799  14.354 -0.6429  3.4532 -2.7132
 7327TIP3   OH243471   5.068   5.660  15.880  0.1587 -0.4931 -0.1469
 7327TIP3    H143472   5.015   5.663  15.960 -0.1887 -0.9011 -0.3550
 7327TIP3    H243473   5.112   5.745  15.877  1.0923 -0.8932  1.0972
 7328TIP3   OH243474   3.408   6.007  11.140 -0.3118  0.1716  0.0396
 7328TIP3    H143475   3.349   6.063  11.089 -1.4785  0.8176  1.9782
 7328TIP3    H243476   3.371   5.919  11.131 -1.3988  0.5146  0.9304
 7329TIP3   OH243477   6.108   5.474  14.707  0.3811  0.4802  0.4743
 7329TIP3    H143478   6.194   5.439  14.687 -0.2516 -0.1498 -1.3740
 7329TIP3    H243479   6.057   5.397  14.734 -0.3900  0.2999 -1.3783
 7330TIP3   OH243480   4.949   5.517   4.918 -0.2703  0.0032  0.0922
 7330TIP3    H143481   5.043   5.506   4.932 -0.5327  0.1415  2.2603
 7330TIP3    H243482   4.943   5.576   4.842  1.3447 -0.7853 -0.6881
 7331TIP3   OH243483   2.642   5.949   3.977 -0.4199 -0.0589 -0.5114
 7331TIP3    H143484   2.708   6.014   4.000  1.8909 -2.3827 -0.0231
 7331TIP3    H243485   2.687   5.889   3.918 -2.7554 -0.6837 -1.7668
 7332TIP3   OH243486   0.939   6.172   3.911  0.1710  0.4839  0.3769
 7332TIP3    H143487   0.965   6.103   3.851  0.0077  0.8007 -0.0626
 7332TIP3    H243488   0.853   6.144   3.944 -0.4671  1.0588 -0.7403
 7333TIP3   OH243489   1.356   0.711  13.427 -0.4662 -0.9231 -0.5404
 7333TIP3    H143490   1.301   0.674  13.359 -0.6161 -1.5422 -0.0937
 7333TIP3    H243491   1.392   0.791  13.388 -2.4041  0.0207 -0.5297
 7334TIP3   OH243492   3.357   6.506  14.815  0.9374  0.0208  0.1633
 7334TIP3    H143493   3.402   6.519  14.732  0.8705  1.6033  0.3476
 7334TIP3    H243494   3.378   6.416  14.840  2.8026  0.2418 -0.4614
 7335TIP3   OH243495   6.424   3.619   3.802 -0.7413  0.2105  0.0013
 7335TIP3    H143496   6.387   3.704   3.824 -0.7581 -0.0222  0.9277
 7335TIP3    H243497   6.347   3.564   3.785 -0.8131 -0.0759  1.1787
 7336TIP3   OH243498   1.878   3.542  13.907 -0.8118  0.3345  0.3159
 7336TIP3    H143499   1.972   3.542  13.887 -0.8336 -0.0513  0.2195
 7336TIP3    H243500   1.865   3.621  13.959 -0.5089  0.6242 -0.0365
 7337TIP3   OH243501   3.114   5.840  11.018 -0.3601 -0.0516 -0.1488
 7337TIP3    H143502   3.149   5.805  11.099  0.4638 -1.5762 -1.1191
 7337TIP3    H243503   3.192   5.857  10.964 -0.9160  0.5494 -0.7813
 7338TIP3   OH243504   5.593   3.770   1.087  0.1051  0.0414 -0.1708
 7338TIP3    H143505   5.663   3.759   1.153 -0.3789 -0.7868  0.2208
 7338TIP3    H243506   5.575   3.682   1.057  0.4295  0.4295 -1.5647
 7339TIP3   OH243507   3.212   5.556  10.769  0.4877 -0.5864 -0.0573
 7339TIP3    H143508   3.246   5.630  10.719  1.9128 -1.1078  0.0813
 7339TIP3    H243509   3.122   5.580  10.790  0.6253  0.6805 -0.8283
 7340TIP3   OH243510   4.379   6.671  15.679  0.5263  1.0043  0.6759
 7340TIP3    H143511   4.411   6.637  15.763 -0.3841 -0.2108  0.5567
 7340TIP3    H243512   4.343   6.595  15.634 -1.9704  2.1411  0.5435
 7341TIP3   OH243513   5.805   4.613  15.966 -0.4238  0.4125 -0.1616
 7341TIP3    H143514   5.784   4.604  16.059  1.0450  0.4149  0.2008
 7341TIP3    H243515   5.860   4.537  15.947 -0.0594  0.8373 -0.8254
 7342TIP3   OH243516   1.034   5.952  13.044 -0.4401  0.0963  0.2772
 7342TIP3    H143517   1.015   6.043  13.020  2.1056  0.4580 -0.6133
 7342TIP3    H243518   1.008   5.946  13.136 -0.4673  1.7827  0.4156
 7343TIP3   OH243519   0.211   5.954  12.069 -0.1004 -0.2936  0.3678
 7343TIP3    H143520   0.177   5.958  11.980 -3.3773  1.3828  1.5294
 7343TIP3    H243521   0.187   5.867  12.101 -0.5216 -0.2503  0.1704
 7344TIP3   OH243522   3.828   3.884   6.303 -0.5381 -0.4301 -0.3038
 7344TIP3    H143523   3.797   3.912   6.216  0.1557  0.1078 -0.3880
 7344TIP3    H243524   3.908   3.835   6.285 -0.2924 -0.1559  0.0476
 7345TIP3   OH243525   6.524   1.342  11.230 -0.2550 -0.2936  0.9466
 7345TIP3    H143526   6.452   1.392  11.191  0.5124  0.6459  0.6874
 7345TIP3    H243527   6.581   1.320  11.156 -0.2243 -0.9553  1.1599
 7346TIP3   OH243528   3.843   2.209   2.911 -0.4925  0.1792  0.6148
 7346TIP3    H143529   3.753   2.233   2.892 -0.7555 -1.3387 -0.2992
 7346TIP3    H243530   3.840   2.168   2.997 -0.8281 -0.5564  0.2597
 7347TIP3   OH243531   4.662   6.104  11.623  0.2374 -0.3697  0.0516
 7347TIP3    H143532   4.682   6.012  11.606  0.1951 -0.3414 -0.1614
 7347TIP3    H243533   4.578   6.102  11.667  0.4304 -0.4563  0.4200
 7348TIP3   OH243534   0.951   0.401   2.944  0.9231 -0.1415 -0.0492
 7348TIP3    H143535   0.931   0.389   2.851 -0.7280  1.6787 -0.0028
 7348TIP3    H243536   0.877   0.452   2.978  1.4215 -0.8540  2.3040
 7349TIP3   OH243537   1.763   1.913  16.935  0.8524 -0.2757  0.2136
 7349TIP3    H143538   1.776   1.819  16.946  0.5220 -0.5193 -1.3274
 7349TIP3    H243539   1.685   1.920  16.879  1.6735  0.8734 -0.8364
 7350TIP3   OH243540   5.513   0.720   0.333 -0.1331  0.6288 -0.1258
 7350TIP3    H143541   5.518   0.769   0.251  0.5976  0.1135 -0.3949
 7350TIP3    H243542   5.539   0.631   0.310 -0.2304  0.4017  0.6054
 7351TIP3   OH243543   1.711   4.627   1.783  0.2853  0.3381  0.2798
 7351TIP3    H143544   1.750   4.697   1.835 -0.2609  1.4615 -0.7798
 7351TIP3    H243545   1.773   4.554   1.792  0.7153  0.8300  1.6414
 7352TIP3   OH243546   2.841   3.387   0.204 -0.5682 -0.7547  0.4011
 7352TIP3    H143547   2.900   3.428   0.141  0.1100 -2.0401  0.1609
 7352TIP3    H243548   2.846   3.442   0.282  0.5019 -0.5286  0.1794
 7353TIP3   OH243549   3.717   6.808   4.676 -0.2748 -0.1062  0.3948
 7353TIP3    H143550   3.781   6.877   4.694 -0.4880  0.3442 -0.5020
 7353TIP3    H243551   3.688   6.825   4.586 -0.1246 -1.5367  0.0487
 7354TIP3   OH243552   1.250   0.911   0.696  0.3065 -0.0434 -0.1869
 7354TIP3    H143553   1.328   0.877   0.652  0.3429  0.6777 -0.7021
 7354TIP3    H243554   1.280   0.940   0.782  0.0003 -2.6617  0.9035
 7355TIP3   OH243555   1.719   4.713  12.567 -0.4204 -0.7293  0.2457
 7355TIP3    H143556   1.755   4.643  12.512 -0.1231 -0.2239 -0.2184
 7355TIP3    H243557   1.794   4.742  12.620  0.1084  0.8888 -1.3118
 7356TIP3   OH243558   1.740   1.502   2.707  0.1969  0.1589 -0.1803
 7356TIP3    H143559   1.771   1.491   2.617  2.1165  2.2390  0.1284
 7356TIP3    H243560   1.792   1.440   2.758  0.1780  0.0359 -0.3094
 7357TIP3   OH243561   5.312   1.537   5.240  0.3491  0.7109  0.3899
 7357TIP3    H143562   5.344   1.446   5.233 -2.7038 -0.5686  1.3908
 7357TIP3    H243563   5.324   1.559   5.333  0.3976  1.0562  0.3019
 7358TIP3   OH243564   0.380   5.104   0.463 -0.0451  0.1026  0.6415
 7358TIP3    H143565   0.436   5.178   0.487 -0.5930  0.3174  1.2539
 7358TIP3    H243566   0.353   5.065   0.546  1.3403 -1.6416  0.3437
 7359TIP3   OH243567   2.542   2.054  15.179 -0.3799  0.6657 -0.1116
 7359TIP3    H143568   2.511   2.034  15.091 -0.8505  0.9168 -0.0089
 7359TIP3    H243569   2.635   2.033  15.177 -0.6021 -0.3610 -0.3538
 7360TIP3   OH243570   2.686   0.133  12.891 -0.4331  0.7392  0.3076
 7360TIP3    H143571   2.778   0.114  12.872 -0.0030  0.3837  2.4401
 7360TIP3    H243572   2.654   0.054  12.936 -1.1935  1.5984  1.3468
 7361TIP3   OH243573   5.439   3.487  12.987  0.2771  0.1813  0.6893
 7361TIP3    H143574   5.344   3.492  12.979  0.2662 -0.7266  0.0213
 7361TIP3    H243575   5.458   3.519  13.075 -0.5375  1.5128  0.4092
 7362TIP3   OH243576   4.827   4.789   5.198  0.4990 -0.3174  0.2363
 7362TIP3    H143577   4.789   4.714   5.245 -0.9646  0.3072  0.1018
 7362TIP3    H243578   4.865   4.844   5.267 -0.3169 -0.1451  0.5622
 7363TIP3   OH243579   4.347   2.199  15.810  0.1147 -0.4909  0.6946
 7363TIP3    H143580   4.399   2.142  15.865 -0.3530 -2.1251 -0.4659
 7363TIP3    H243581   4.408   2.231  15.743  0.2253 -0.2210  0.9266
 7364TIP3   OH243582   5.712   2.042   3.909  0.2109 -0.2737  0.5775
 7364TIP3    H143583   5.663   2.099   3.968  1.0105  1.8101 -0.6554
 7364TIP3    H243584   5.750   1.975   3.966  0.2741  1.1633  2.2996
 7365TIP3   OH243585   5.587   0.976   4.544 -0.4431  0.5385 -0.2810
 7365TIP3    H143586   5.513   0.947   4.490  0.9785 -1.5017 -1.2828
 7365TIP3    H243587   5.659   0.986   4.482  0.6041  0.6650  0.9198
 7366TIP3   OH243588   6.104   1.107   1.155  0.3178 -0.2977 -0.6151
 7366TIP3    H143589   6.073   1.197   1.164  0.9695 -0.1431  0.1920
 7366TIP3    H243590   6.152   1.089   1.236  1.4033 -0.8863 -1.3594
 7367TIP3   OH243591   0.375   0.352   4.638 -0.1745 -0.0282 -0.4273
 7367TIP3    H143592   0.338   0.436   4.609  1.1158  0.5669 -0.4252
 7367TIP3    H243593   0.368   0.355   4.733 -1.6481 -0.6772 -0.4784
 7368TIP3   OH243594   4.955   0.544  11.958 -0.5894  0.5846 -0.0097
 7368TIP3    H143595   5.029   0.521  12.015  0.6992  0.0867 -1.7970
 7368TIP3    H243596   4.968   0.637  11.940 -0.6364  0.5915 -0.0073
 7369TIP3   OH243597   3.364   5.033   2.890  0.2551  0.0647  0.2142
 7369TIP3    H143598   3.282   5.081   2.896  1.0190  1.3517  0.7702
 7369TIP3    H243599   3.373   5.011   2.797  0.1928  1.6122 -0.1930
 7370TIP3   OH243600   6.438   5.366   3.107  0.2655  0.0506  0.3522
 7370TIP3    H143601   6.490   5.442   3.080 -2.2965  1.7436 -0.2369
 7370TIP3    H243602   6.442   5.307   3.032  1.5872 -0.0342  0.4681
 7371TIP3   OH243603   1.779   3.874  12.012 -0.3435 -0.0957 -0.2407
 7371TIP3    H143604   1.690   3.909  12.015 -0.7730 -1.1516 -0.2666
 7371TIP3    H243605   1.793   3.840  12.100  0.8348  1.9137  0.4173
 7372TIP3   OH243606   1.490   6.414  14.597  0.2642 -0.0488 -0.3423
 7372TIP3    H143607   1.460   6.447  14.512 -1.5139 -0.8893 -0.1014
 7372TIP3    H243608   1.556   6.349  14.576  1.6124  1.4663 -0.9426
 7373TIP3   OH243609   4.037   4.917  15.652 -0.3775 -0.8933 -0.5118
 7373TIP3    H143610   3.990   4.978  15.596 -1.3372 -2.1807 -1.1579
 7373TIP3    H243611   4.006   4.831  15.626  2.3324 -1.8439 -0.9547
 7374TIP3   OH243612   6.602   5.449   1.435  0.7394 -0.0706 -0.1517
 7374TIP3    H143613   6.550   5.519   1.397  0.2318 -0.6285 -0.5167
 7374TIP3    H243614   6.565   5.369   1.398  1.5744 -0.5111 -0.0725
 7375TIP3   OH243615   4.287   4.509  12.899  0.4092 -0.2023 -0.0521
 7375TIP3    H143616   4.338   4.570  12.951  0.5944  0.4117 -0.9353
 7375TIP3    H243617   4.325   4.423  12.919  0.8270  0.0818  0.4036
 7376TIP3   OH243618   1.459   0.354  13.493 -0.2780  0.1088  0.4415
 7376TIP3    H143619   1.398   0.316  13.430  1.1728 -1.0939 -0.2816
 7376TIP3    H243620   1.440   0.307  13.575 -0.3493 -0.2076  0.2422
 7377TIP3   OH243621   5.251   5.311  11.186 -0.2741 -0.2092 -0.7486
 7377TIP3    H143622   5.195   5.235  11.168  0.9504 -0.7668 -2.3685
 7377TIP3    H243623   5.330   5.273  11.225  0.2183  0.2548 -1.2865
 7378TIP3   OH243624   2.000   3.411   3.200 -0.6126  0.1408 -0.1543
 7378TIP3    H143625   1.939   3.464   3.150 -1.9230 -1.2860 -0.1318
 7378TIP3    H243626   2.006   3.455   3.285 -0.5857  1.0073 -0.5980
 7379TIP3   OH243627   2.333   3.105   5.713 -0.3287 -0.6120 -0.2842
 7379TIP3    H143628   2.428   3.112   5.714 -0.4039  0.5873  0.5301
 7379TIP3    H243629   2.316   3.016   5.684  1.0368 -0.8397 -0.4660
 7380TIP3   OH243630   2.881   2.403   1.235  0.2744 -0.0709 -0.1911
 7380TIP3    H143631   2.797   2.429   1.272  0.3360 -1.3515  0.9297
 7380TIP3    H243632   2.937   2.480   1.246 -0.4298  0.4163  0.0710
 7381TIP3   OH243633   0.788   3.547   3.563 -0.3413 -0.0233 -0.2381
 7381TIP3    H143634   0.753   3.625   3.519  1.2577 -0.0702 -1.7045
 7381TIP3    H243635   0.711   3.505   3.603 -1.7298  0.6478 -2.0609
 7382TIP3   OH243636   3.711   3.403   2.305 -0.0981 -0.0592 -0.2438
 7382TIP3    H143637   3.622   3.394   2.272 -0.3720 -1.7640  0.8291
 7382TIP3    H243638   3.716   3.491   2.341 -2.6121 -1.0741  3.0852
 7383TIP3   OH243639   5.132   3.312   0.261  0.4128  0.0065 -0.3118
 7383TIP3    H143640   5.121   3.319   0.356 -0.6713  0.3363 -0.4411
 7383TIP3    H243641   5.043   3.322   0.226  0.4028 -2.5538 -1.2492
 7384TIP3   OH243642   0.251   1.934  11.861 -0.7249  0.1084  0.1152
 7384TIP3    H143643   0.216   2.021  11.841  0.3352  0.8713  1.3733
 7384TIP3    H243644   0.177   1.875  11.851 -1.1993  0.9655 -1.9087
 7385TIP3   OH243645   0.265   3.690  12.358 -0.1388 -0.1975 -0.2342
 7385TIP3    H143646   0.352   3.730  12.353  0.2207 -0.9351 -0.1226
 7385TIP3    H243647   0.276   3.606  12.313 -0.9320 -0.0724 -0.6688
 7386TIP3   OH243648   2.888   2.537  12.677  0.2514  0.1363 -0.3718
 7386TIP3    H143649   2.946   2.582  12.616 -0.2439  0.0575 -0.9088
 7386TIP3    H243650   2.832   2.483  12.622  0.3835 -0.6134  0.2206
 7387TIP3   OH243651   5.155   4.449  13.519 -0.8722  0.2831  0.1195
 7387TIP3    H143652   5.164   4.363  13.477  1.1119  0.9191 -0.8901
 7387TIP3    H243653   5.167   4.512  13.448 -1.5883  1.4091  0.9715
 7388TIP3   OH243654   0.330   6.680  17.011 -0.1102 -1.0657  0.1494
 7388TIP3    H143655   0.280   6.642  16.939 -0.5354 -1.7674  0.7950
 7388TIP3    H243656   0.316   6.620  17.084 -0.5296  0.1541  1.1108
 7389TIP3   OH243657   3.751   6.337   2.223 -0.3379  0.1398 -0.1120
 7389TIP3    H143658   3.838   6.374   2.233 -0.0952 -0.6419  0.9253
 7389TIP3    H243659   3.695   6.412   2.204  0.5892  0.6141 -1.0819
 7390TIP3   OH243660   3.043   4.609  15.395 -0.5063 -0.8142  0.0267
 7390TIP3    H143661   3.066   4.652  15.477 -1.5515  0.5818 -0.3660
 7390TIP3    H243662   3.120   4.620  15.340 -0.1840 -0.8310  0.4710
 7391TIP3   OH243663   0.299   6.194   5.593  0.2684  0.1575 -0.2566
 7391TIP3    H143664   0.209   6.189   5.562  0.2416  0.7819 -0.3045
 7391TIP3    H243665   0.297   6.261   5.662  0.7670  0.4886 -0.5496
 7392TIP3   OH243666   2.711   0.809  14.551  1.0050  0.4944 -0.3584
 7392TIP3    H143667   2.626   0.766  14.539  1.0869  0.3559 -0.4447
 7392TIP3    H243668   2.720   0.817  14.646  1.4672 -0.6573 -0.2880
 7393TIP3   OH243669   2.114   1.848   5.106  0.1360  0.1517  0.1571
 7393TIP3    H143670   2.180   1.881   5.045  0.3424  1.1753  0.9081
 7393TIP3    H243671   2.043   1.913   5.103 -0.4043 -0.4365  0.0736
 7394TIP3   OH243672   3.912   3.984  15.693  0.4496 -0.4184 -0.3810
 7394TIP3    H143673   3.937   3.959  15.781  1.6583 -1.7705 -1.0632
 7394TIP3    H243674   3.963   4.062  15.674 -0.5759  0.4800  0.4504
 7395TIP3   OH243675   6.110   1.467   0.327  0.1099  0.4468 -0.1170
 7395TIP3    H143676   6.068   1.529   0.267  0.2273 -0.1882 -0.8686
 7395TIP3    H243677   6.202   1.466   0.301  0.4273  1.1079  0.9021
 7396TIP3   OH243678   5.003   4.419  12.728 -0.2643  0.4794  0.5844
 7396TIP3    H143679   5.044   4.374  12.654  0.2341  2.9527 -0.7817
 7396TIP3    H243680   4.978   4.350  12.788  2.5516 -1.4465 -0.2426
 7397TIP3   OH243681   5.110   4.228   4.452 -0.3180  0.2709 -0.0755
 7397TIP3    H143682   5.079   4.169   4.384 -0.8860 -0.5192  0.8454
 7397TIP3    H243683   5.033   4.244   4.507 -0.1955  1.9267 -0.3324
 7398TIP3   OH243684   6.570   1.645  13.831  0.4207 -0.6565 -0.3753
 7398TIP3    H143685   6.601   1.561  13.866  0.2944  0.1773  1.8572
 7398TIP3    H243686   6.481   1.626  13.800 -0.3612 -0.9595  1.9043
 7399TIP3   OH243687   2.219   3.564   5.733 -0.1230  0.4964  0.4652
 7399TIP3    H143688   2.184   3.597   5.816  1.1489 -2.0813  2.1499
 7399TIP3    H243689   2.153   3.501   5.704 -1.3009  2.4693 -1.3741
 7400TIP3   OH243690   0.738   4.576   3.310 -0.8897 -0.2801 -0.2752
 7400TIP3    H143691   0.678   4.503   3.300 -1.1401 -0.0291 -0.6065
 7400TIP3    H243692   0.682   4.654   3.307 -0.7701 -0.1127  1.2111
 7401TIP3   OH243693   4.878   5.126  11.802 -0.0509 -0.6861 -0.0736
 7401TIP3    H143694   4.915   5.173  11.877  1.2406 -0.8065 -0.6125
 7401TIP3    H243695   4.918   5.167  11.726 -0.8044 -1.0399 -0.6686
 7402TIP3   OH243696   5.209   4.865   0.770  0.2160 -0.2369 -0.6130
 7402TIP3    H143697   5.159   4.849   0.689 -0.1753 -3.3098  0.1084
 7402TIP3    H243698   5.300   4.859   0.743  0.1147  0.2123 -1.0696
 7403TIP3   OH243699   3.286   5.608   5.957  0.3660 -0.7354  0.6173
 7403TIP3    H143700   3.327   5.693   5.945 -1.1122 -0.2178 -1.1863
 7403TIP3    H243701   3.202   5.628   6.000  0.7145 -1.4757  1.6864
 7404TIP3   OH243702   3.529   2.545   1.231  0.0236  0.4067  0.3172
 7404TIP3    H143703   3.567   2.550   1.143  0.4986 -0.1741  0.4856
 7404TIP3    H243704   3.572   2.615   1.280  0.1376  0.3970  0.2310
 7405TIP3   OH243705   4.821   6.216   2.580  0.2296  0.1371 -0.1713
 7405TIP3    H143706   4.803   6.262   2.497  0.1430 -0.2557 -0.3745
 7405TIP3    H243707   4.734   6.207   2.620 -0.0134 -1.4875 -1.0066
 7406TIP3   OH243708   5.273   6.615  11.188  0.0603 -0.2760  0.0014
 7406TIP3    H143709   5.260   6.706  11.163  1.5385  0.4085  1.5360
 7406TIP3    H243710   5.191   6.572  11.164 -1.4987  1.8899  1.1154
 7407TIP3   OH243711   3.081   6.214  15.743  0.1458 -0.4270  0.3336
 7407TIP3    H143712   3.082   6.182  15.653 -1.7179 -0.0039  0.1107
 7407TIP3    H243713   3.082   6.135  15.797  0.6044 -0.7001 -0.0684
 7408TIP3   OH243714   2.295   3.217  13.647  0.8469  0.4467  0.2855
 7408TIP3    H143715   2.227   3.176  13.700  1.1544  0.9565  1.1025
 7408TIP3    H243716   2.247   3.275  13.588  0.5510  0.6644  0.7321
 7409TIP3   OH243717   4.923   0.616   0.840  0.7121 -0.2907  0.3234
 7409TIP3    H143718   4.868   0.662   0.776  0.1102 -0.3383  0.7932
 7409TIP3    H243719   5.012   0.644   0.820  0.3494  1.2294  0.7144
 7410TIP3   OH243720   5.582   6.058   4.915 -0.1862  0.5583 -0.1410
 7410TIP3    H143721   5.660   6.004   4.906  1.1824  2.2521  0.8586
 7410TIP3    H243722   5.596   6.129   4.853 -0.9830  0.8271 -0.0182
 7411TIP3   OH243723   0.722   6.529  15.895 -0.0201 -0.6700 -0.5993
 7411TIP3    H143724   0.772   6.449  15.908  2.3053  0.4299 -2.0212
 7411TIP3    H243725   0.667   6.536  15.973  2.0977 -1.9801  1.1422
 7412TIP3   OH243726   0.711   6.101  12.830 -0.3374  0.3152  0.1822
 7412TIP3    H143727   0.713   6.014  12.790 -0.4997  0.5135 -0.2574
 7412TIP3    H243728   0.676   6.086  12.918 -1.3288  0.0725 -0.2434
 7413TIP3   OH243729   3.150   1.477  11.548 -0.6371  0.1743  0.0496
 7413TIP3    H143730   3.127   1.570  11.543 -1.5706  0.1004  2.1991
 7413TIP3    H243731   3.139   1.445  11.458 -1.5382  1.8480 -0.4784
 7414TIP3   OH243732   3.474   1.732  10.891  0.1910  0.3074 -0.0803
 7414TIP3    H143733   3.549   1.792  10.882  1.4968 -1.3507 -0.6438
 7414TIP3    H243734   3.513   1.649  10.917 -1.6872 -0.0801  1.6959
 7415TIP3   OH243735   3.587   2.643  14.842  0.0173 -0.2120  0.3844
 7415TIP3    H143736   3.558   2.734  14.829 -1.7554 -1.1266 -3.2136
 7415TIP3    H243737   3.533   2.611  14.914 -1.2685  0.8222 -0.0862
 7416TIP3   OH243738   2.152   3.251   3.557  0.4960  0.1276 -0.3680
 7416TIP3    H143739   2.240   3.260   3.521  0.5767  1.6466  0.1413
 7416TIP3    H243740   2.158   3.291   3.644 -0.7983  0.6404 -0.4983
 7417TIP3   OH243741   2.809   0.465  12.410 -0.2487  0.1133 -0.2015
 7417TIP3    H143742   2.797   0.404  12.337  0.7511 -1.3586  0.7821
 7417TIP3    H243743   2.784   0.415  12.487  0.7246  0.8992  0.6616
 7418TIP3   OH243744   1.584   5.269   1.131 -0.2015 -0.4355 -0.5665
 7418TIP3    H143745   1.622   5.224   1.055  0.1547 -1.4826  0.1998
 7418TIP3    H243746   1.603   5.211   1.205 -0.6529  0.4951  0.3093
 7419TIP3   OH243747   0.343   3.601  11.275  0.5116 -0.7456  0.7739
 7419TIP3    H143748   0.301   3.573  11.194  2.8923 -0.1977 -0.7622
 7419TIP3    H243749   0.282   3.663  11.314 -0.3995 -0.4899 -0.9586
 7420TIP3   OH243750   5.961   6.462   3.105 -0.6303 -0.1515 -0.6503
 7420TIP3    H143751   5.943   6.556   3.095  0.2917  0.2995  1.3949
 7420TIP3    H243752   6.001   6.454   3.191  0.2045 -2.3288 -1.1644
 7421TIP3   OH243753   4.975   0.256  15.117  0.0770  0.7713 -0.4865
 7421TIP3    H143754   4.939   0.302  15.193  1.7496  2.5828 -0.7020
 7421TIP3    H243755   4.903   0.252  15.054 -0.8097  0.8535  0.4958
 7422TIP3   OH243756   2.425   1.923  12.481  0.5039  0.7107 -0.4661
 7422TIP3    H143757   2.478   1.992  12.519 -0.8571  2.5236 -1.6919
 7422TIP3    H243758   2.487   1.853  12.459  1.8583  1.3678  1.1425
 7423TIP3   OH243759   6.418   1.630   3.291  0.4456  0.1655  0.2098
 7423TIP3    H143760   6.434   1.654   3.200  2.9832 -3.0483 -0.3720
 7423TIP3    H243761   6.323   1.637   3.301  0.0399  0.3407 -2.7730
 7424TIP3   OH243762   1.037   1.677   2.767  0.4443  0.3415 -0.1657
 7424TIP3    H143763   0.969   1.663   2.701  1.8276 -0.5865 -1.4645
 7424TIP3    H243764   0.989   1.704   2.846 -1.6401 -2.4329 -0.3334
 7425TIP3   OH243765   2.839   0.604   1.750 -0.4228 -0.1064 -0.6896
 7425TIP3    H143766   2.883   0.593   1.835 -1.8602 -0.8952 -0.0068
 7425TIP3    H243767   2.833   0.516   1.714 -1.0949  0.0300 -0.9323
 7426TIP3   OH243768   2.718   1.626   1.709 -0.1393 -0.5419  0.7506
 7426TIP3    H143769   2.742   1.689   1.776 -1.9634 -0.2726  1.2124
 7426TIP3    H243770   2.635   1.589   1.739 -1.8134  0.6382 -1.9783
 7427TIP3   OH243771   0.439   2.156  13.096 -0.3694  0.3934 -0.0548
 7427TIP3    H143772   0.521   2.135  13.051 -0.8498  0.5114 -1.0052
 7427TIP3    H243773   0.371   2.138  13.031 -1.0874  0.4502  0.6718
 7428TIP3   OH243774   4.196   0.842   0.426 -0.0809  0.1053 -0.1712
 7428TIP3    H143775   4.120   0.841   0.368 -1.3298 -1.7786  1.3578
 7428TIP3    H243776   4.262   0.789   0.381  0.3026  1.5974 -1.4236
 7429TIP3   OH243777   1.316   1.659   3.419  0.3312 -0.0439  0.3490
 7429TIP3    H143778   1.344   1.584   3.367 -0.4232  0.0366 -0.1921
 7429TIP3    H243779   1.281   1.621   3.499 -1.4955 -0.4170 -0.5653
 7430TIP3   OH243780   4.838   1.258   1.129  0.2874  0.3094  0.1780
 7430TIP3    H143781   4.828   1.238   1.036  2.6368  1.4050 -0.3656
 7430TIP3    H243782   4.785   1.337   1.143 -0.7664 -0.3419  0.0223
 7431TIP3   OH243783   1.674   2.989  11.806 -0.5345 -0.0844  0.2701
 7431TIP3    H143784   1.678   3.084  11.816  0.0272 -0.0126 -0.5606
 7431TIP3    H243785   1.695   2.954  11.893  0.4199  0.5379  0.2959
 7432TIP3   OH243786   5.812   2.058   3.363 -0.4015  0.7808  0.0144
 7432TIP3    H143787   5.749   2.062   3.434 -0.6830 -3.1062  0.1965
 7432TIP3    H243788   5.893   2.092   3.401 -0.5658 -1.0701  2.2386
 7433TIP3   OH243789   6.267   1.522  12.718 -0.0535  0.0128 -0.4355
 7433TIP3    H143790   6.188   1.544  12.766 -0.2403  0.1544 -0.8022
 7433TIP3    H243791   6.338   1.557  12.771 -0.2193 -0.3375  0.0195
 7434TIP3   OH243792   6.579   5.664  12.158  0.0790  0.9570 -0.2689
 7434TIP3    H143793   6.523   5.740  12.148  1.0325  1.5725 -1.1815
 7434TIP3    H243794   6.582   5.624  12.071 -0.9972 -0.5816  0.3449
 7435TIP3   OH243795   5.895   3.732  14.448  0.1798 -0.4051 -0.1918
 7435TIP3    H143796   5.856   3.695  14.369  0.2170 -0.8952  0.0152
 7435TIP3    H243797   5.986   3.703  14.447  1.0355  2.0491 -1.4939
 7436TIP3   OH243798   2.546   5.621  10.315 -0.7777 -0.1790 -0.3760
 7436TIP3    H143799   2.635   5.597  10.289  0.3339  0.2261  2.6375
 7436TIP3    H243800   2.530   5.705  10.273  0.4837 -0.0054 -0.5272
 7437TIP3   OH243801   5.332   3.221   6.450  0.0556  0.0942 -0.1475
 7437TIP3    H143802   5.303   3.156   6.514  0.3350  1.0924  1.0345
 7437TIP3    H243803   5.294   3.303   6.481  0.8542  0.7313 -0.8256
 7438TIP3   OH243804   5.620   3.772  15.418 -0.2489  0.0180 -0.2696
 7438TIP3    H143805   5.641   3.844  15.359  2.0290  0.1967  0.6650
 7438TIP3    H243806   5.696   3.765  15.475 -1.2102 -1.9449  0.8666
 7439TIP3   OH243807   6.227   2.593  14.655 -0.7068 -0.3051 -0.3620
 7439TIP3    H143808   6.157   2.529  14.647  2.1480 -3.8307  0.5096
 7439TIP3    H243809   6.248   2.618  14.565 -2.5886  0.3901 -0.6537
 7440TIP3   OH243810   4.172   2.815   4.218  0.0333  0.4308  0.2947
 7440TIP3    H143811   4.156   2.721   4.233  1.6810 -0.0642 -0.7732
 7440TIP3    H243812   4.092   2.846   4.176 -1.7810  0.2501  3.3683
 7441TIP3   OH243813   3.781   6.815   1.923 -0.3431  0.2390  0.0670
 7441TIP3    H143814   3.832   6.734   1.935  0.3522  0.9285  2.4478
 7441TIP3    H243815   3.759   6.816   1.830  0.9442 -1.9006 -0.3446
 7442TIP3   OH243816   4.417   5.853   6.052  0.5206  0.6598 -0.3836
 7442TIP3    H143817   4.488   5.833   6.113 -0.1336 -1.9516 -0.3825
 7442TIP3    H243818   4.460   5.857   5.967  0.6293 -1.9276 -0.5295
 7443TIP3   OH243819   5.691   4.488   2.168 -0.4510  0.6809 -0.3054
 7443TIP3    H143820   5.659   4.521   2.084  0.4367 -1.7124 -1.7018
 7443TIP3    H243821   5.787   4.497   2.162 -0.2720 -0.8738 -0.2353
 7444TIP3   OH243822   1.913   0.309  13.175  0.2421 -0.3400  0.0676
 7444TIP3    H143823   1.827   0.276  13.199 -0.1716 -0.2807 -1.2698
 7444TIP3    H243824   1.896   0.387  13.123  1.0612 -0.7647 -0.8851
 7445TIP3   OH243825   2.902   3.401  13.200 -0.5343  0.2679 -0.3969
 7445TIP3    H143826   2.878   3.316  13.162  1.7205 -0.1314 -1.1000
 7445TIP3    H243827   2.981   3.427  13.151 -0.3020  2.0402  0.8457
 7446TIP3   OH243828   0.165   0.132   4.779  0.0279  0.4396  0.0440
 7446TIP3    H143829   0.218   0.175   4.847 -0.7280  0.3166  0.7258
 7446TIP3    H243830   0.225   0.120   4.706  1.0057  0.1378  0.8716
 7447TIP3   OH243831   3.857   0.745  15.572 -0.0690  0.2467 -0.3941
 7447TIP3    H143832   3.811   0.714  15.493  0.5219  0.2376 -0.7426
 7447TIP3    H243833   3.839   0.839  15.575  0.4114  0.3633 -0.8983
 7448TIP3   OH243834   0.240   6.022  14.191 -0.1718 -0.7182  0.3308
 7448TIP3    H143835   0.227   6.080  14.116  0.7740  0.0381  0.7351
 7448TIP3    H243836   0.307   5.960  14.163  2.2487  1.2441  1.4000
 7449TIP3   OH243837   6.007   0.095  14.844  0.5712  0.1104 -0.2002
 7449TIP3    H143838   5.968   0.114  14.758  0.3007 -0.0190 -0.1080
 7449TIP3    H243839   6.001   0.178  14.891  0.2421  0.0452 -0.1243
 7450TIP3   OH243840   2.714   1.605  16.733 -0.5955 -0.2884  0.0305
 7450TIP3    H143841   2.646   1.571  16.674 -2.4871  0.8777  1.3969
 7450TIP3    H243842   2.771   1.530  16.750 -1.9938 -1.5482 -0.6093
 7451TIP3   OH243843   3.932   2.707   3.182 -0.0446  0.3752  0.1904
 7451TIP3    H143844   3.945   2.653   3.104  1.9198  0.9445  0.0734
 7451TIP3    H243845   3.973   2.790   3.160  1.8894  0.0819  2.3140
 7452TIP3   OH243846   2.171   4.836   0.663  0.5558  0.2469 -0.3957
 7452TIP3    H143847   2.120   4.860   0.586  1.4191  0.9510 -0.7724
 7452TIP3    H243848   2.197   4.745   0.647 -1.3317 -0.4437  0.2484
 7453TIP3   OH243849   5.012   3.345   5.004 -0.5801  0.3855 -0.2541
 7453TIP3    H143850   5.060   3.263   5.014 -2.0658 -0.6187 -1.0246
 7453TIP3    H243851   5.072   3.402   4.956  0.3241 -0.3870 -0.0730
 7454TIP3   OH243852   6.304   0.992  15.379 -0.0967 -0.3196  0.3553
 7454TIP3    H143853   6.371   1.008  15.312 -0.0917 -1.7656 -0.0098
 7454TIP3    H243854   6.223   1.022  15.339  0.0839 -0.0556  0.1787
 7455TIP3   OH243855   3.277   5.951   5.781 -0.7421  0.0436  0.0460
 7455TIP3    H143856   3.343   5.942   5.712  1.4629 -1.3062  2.1957
 7455TIP3    H243857   3.301   6.029   5.829 -1.5671  0.3242  0.0232
 7456TIP3   OH243858   5.663   6.447  17.104 -0.4556  0.1468 -0.4577
 7456TIP3    H143859   5.682   6.512  17.036 -0.5299  0.6854  0.0231
 7456TIP3    H243860   5.597   6.489  17.159  1.0836  0.6094  1.1658
 7457TIP3   OH243861   6.684   1.845  14.809  0.1416  0.4273  0.9426
 7457TIP3    H143862   6.701   1.759  14.848  1.5913  0.0928 -0.3042
 7457TIP3    H243863   6.704   1.907  14.879  0.0189 -0.2146  1.5657
 7458TIP3   OH243864   4.263   3.951   2.645 -0.3690  0.6098 -0.5308
 7458TIP3    H143865   4.354   3.925   2.631 -1.0285 -2.4487  0.0661
 7458TIP3    H243866   4.212   3.883   2.601 -2.4327  2.4821 -1.2582
 7459TIP3   OH243867   3.968   1.091   3.431  0.0512 -0.5599 -0.3866
 7459TIP3    H143868   3.970   1.157   3.500  1.4089 -1.0233  0.0436
 7459TIP3    H243869   3.891   1.038   3.451 -0.0341 -0.1877  0.3116
 7460TIP3   OH243870   6.691   5.278   2.798  0.1347 -0.2361  0.4143
 7460TIP3    H143871   6.754   5.216   2.834  0.5983  0.0576  0.1132
 7460TIP3    H243872   6.605   5.239   2.818  0.4199 -1.2620 -0.2999
 7461TIP3   OH243873   3.808   5.916  11.377 -0.5226  0.3572  0.1770
 7461TIP3    H143874   3.882   5.858  11.396 -1.0798 -0.3772  0.1438
 7461TIP3    H243875   3.849   6.001  11.358  0.3015  0.0011  0.2935
 7462TIP3   OH243876   5.096   1.817  11.444 -0.1386  1.0727 -0.4191
 7462TIP3    H143877   5.004   1.819  11.472 -0.0852 -0.6940 -0.0376
 7462TIP3    H243878   5.093   1.808  11.349 -0.4955 -2.6807 -0.2000
 7463TIP3   OH243879   1.309   3.819   3.485  0.0610  0.1936  0.1190
 7463TIP3    H143880   1.379   3.754   3.486 -0.3866 -0.2952  1.1402
 7463TIP3    H243881   1.240   3.781   3.539 -0.0237  1.7194  1.1554
 7464TIP3   OH243882   3.473   6.254   1.246 -0.2083 -0.0030  0.0992
 7464TIP3    H143883   3.482   6.328   1.306  0.2185  0.4839 -0.5543
 7464TIP3    H243884   3.379   6.240   1.239 -0.2540 -1.0177  2.0192
 7465TIP3   OH243885   0.274   1.717   1.928 -0.0427 -0.1778 -0.8100
 7465TIP3    H143886   0.358   1.682   1.900  1.5925  1.0744  2.1010
 7465TIP3    H243887   0.233   1.644   1.976  1.3626  0.3989  1.4020
 7466TIP3   OH243888   1.197   4.991  12.206  0.3831 -0.3665 -0.0670
 7466TIP3    H143889   1.238   4.905  12.204  2.5556  0.5855  0.4421
 7466TIP3    H243890   1.182   5.009  12.299  1.3259  0.3780 -0.0370
 7467TIP3   OH243891   0.291   0.368  16.204  0.4581 -0.1558 -0.1128
 7467TIP3    H143892   0.279   0.296  16.266  2.0621 -0.6145 -0.2955
 7467TIP3    H243893   0.279   0.328  16.118 -0.8385  0.2882 -0.1656
 7468TIP3   OH243894   6.387   4.998   6.348 -0.4549  0.0908 -0.3966
 7468TIP3    H143895   6.295   5.025   6.338 -0.9726 -0.7999  1.3726
 7468TIP3    H243896   6.399   4.991   6.443  1.4863  0.2795 -0.5958
 7469TIP3   OH243897   5.063   4.496   1.642  0.2633  0.3027 -0.2390
 7469TIP3    H143898   5.016   4.450   1.712 -1.9069  2.3089 -0.2626
 7469TIP3    H243899   5.084   4.582   1.679  0.8181  0.7017 -1.4157
 7470TIP3   OH243900   1.450   4.160   0.005 -0.4168  0.0229  0.4717
 7470TIP3    H143901   1.481   4.154  -0.086  0.1392  0.3510  0.6330
 7470TIP3    H243902   1.512   4.107   0.055 -1.2438 -0.8995  0.5489
 7471TIP3   OH243903   6.184   4.671   3.889 -0.6998  0.0460 -0.5030
 7471TIP3    H143904   6.161   4.761   3.867 -1.0323 -0.0253 -0.4428
 7471TIP3    H243905   6.139   4.654   3.972 -1.4431 -0.5115 -1.0112
 7472TIP3   OH243906   2.000   5.628  12.535  0.1530 -0.1331 -0.1101
 7472TIP3    H143907   1.981   5.583  12.617  1.1190 -1.4895 -0.6071
 7472TIP3    H243908   1.972   5.719  12.551 -2.4768 -0.9904  0.6746
 7473TIP3   OH243909   6.155   4.026  14.300 -0.6267 -0.5140 -0.5337
 7473TIP3    H143910   6.231   3.968  14.292 -0.2622  0.0854 -1.6652
 7473TIP3    H243911   6.177   4.102  14.247 -2.0056 -0.3048 -0.8533
 7474TIP3   OH243912   0.264   0.599  13.013 -0.0074  0.4532  0.2564
 7474TIP3    H143913   0.339   0.626  13.065  0.5195  0.3604 -0.4447
 7474TIP3    H243914   0.253   0.506  13.031  2.5839 -0.5942 -2.6397
 7475TIP3   OH243915   5.567   1.039   0.370 -0.5462 -0.1787  0.2555
 7475TIP3    H143916   5.567   1.023   0.464 -1.6478  0.7536  0.4343
 7475TIP3    H243917   5.477   1.022   0.342 -0.5356  0.7521 -0.3982
 7476TIP3   OH243918   5.574   5.784   2.800  0.3692  0.1740  0.2369
 7476TIP3    H143919   5.570   5.752   2.891  1.0231  0.5675  0.4047
 7476TIP3    H243920   5.485   5.772   2.768  0.1050  0.1164  0.9601
 7477TIP3   OH243921   2.242   6.341  14.264  0.3178 -1.1287 -0.6227
 7477TIP3    H143922   2.241   6.396  14.185  1.1709 -0.9031 -0.4912
 7477TIP3    H243923   2.163   6.288  14.257  0.4028 -1.1504 -1.6594
 7478TIP3   OH243924   5.765   6.763  14.982 -0.2329  0.9491 -0.0545
 7478TIP3    H143925   5.692   6.717  15.023 -0.9611  1.0844 -1.1777
 7478TIP3    H243926   5.806   6.811  15.055  0.7041 -1.5664  1.1981
 7479TIP3   OH243927   0.034   1.827  11.548 -1.0573  0.3208  0.1061
 7479TIP3    H143928   0.081   1.866  11.475 -0.2390  1.0381  0.9977
 7479TIP3    H243929  -0.059   1.842  11.528 -0.8142  1.2162 -0.4010
 7480TIP3   OH243930   1.743   5.501  14.808  0.1600 -0.5613  0.1621
 7480TIP3    H143931   1.799   5.555  14.752  1.3332 -1.2720  0.6168
 7480TIP3    H243932   1.755   5.412  14.774  1.2366 -1.0753  1.7855
 7481TIP3   OH243933   2.407   4.217  16.976 -0.1383 -0.4059  0.4961
 7481TIP3    H143934   2.435   4.215  16.884  0.7776  1.7086  0.6713
 7481TIP3    H243935   2.471   4.162  17.021 -0.8414 -1.8080 -0.1488
 7482TIP3   OH243936   4.374   2.854  13.607  0.2995  0.6711  0.5283
 7482TIP3    H143937   4.459   2.873  13.648  0.0866 -1.0809  1.9059
 7482TIP3    H243938   4.316   2.834  13.681 -0.6720 -0.5040 -0.5124
 7483TIP3   OH243939   6.289   6.809  13.566 -0.1928  0.0853  0.3451
 7483TIP3    H143940   6.318   6.819  13.475 -2.2374 -1.0308 -0.4837
 7483TIP3    H243941   6.312   6.720  13.589 -2.9931 -0.9456 -0.4417
 7484TIP3   OH243942   5.750   1.901  15.646  0.5847  0.2622 -0.3118
 7484TIP3    H143943   5.660   1.885  15.675  0.5880  0.7926  0.0215
 7484TIP3    H243944   5.743   1.979  15.590  0.5472 -0.8843 -1.9612
 7485TIP3   OH243945   5.847   6.151   5.827  0.4628  0.4702 -0.6961
 7485TIP3    H143946   5.775   6.103   5.868  0.4655  0.3701 -0.8067
 7485TIP3    H243947   5.866   6.101   5.747  1.4114 -0.1654 -0.1015
 7486TIP3   OH243948   4.723   2.283  12.765 -0.0171  0.1334 -0.0712
 7486TIP3    H143949   4.745   2.226  12.691  0.0127 -0.9768  0.7633
 7486TIP3    H243950   4.793   2.269  12.828  0.0776  1.2434  0.0941
 7487TIP3   OH243951   2.400   3.351   0.373  0.5170 -0.0203 -0.0981
 7487TIP3    H143952   2.489   3.369   0.345  1.5200 -1.0869  2.1963
 7487TIP3    H243953   2.370   3.281   0.314  1.4945 -0.2665 -0.3078
 7488TIP3   OH243954   2.904   2.878  16.569  0.3436  0.0534 -0.1088
 7488TIP3    H143955   2.901   2.891  16.664  1.0214 -0.3531 -0.0296
 7488TIP3    H243956   2.893   2.784  16.557 -0.2056  0.1557 -0.4642
 7489TIP3   OH243957   5.668   6.349  14.393 -0.3428 -0.5262 -0.2928
 7489TIP3    H143958   5.604   6.370  14.462 -1.0116  0.2734 -1.1301
 7489TIP3    H243959   5.728   6.287  14.434 -1.5691 -1.1726  0.5727
 7490TIP3   OH243960   0.325   4.413  13.391  0.3996 -0.0940 -0.0582
 7490TIP3    H143961   0.388   4.422  13.463  2.2011 -1.8650 -1.2941
 7490TIP3    H243962   0.343   4.487  13.333 -0.6544  1.0038  0.9667
 7491TIP3   OH243963   3.082   5.821  16.414  0.0926  0.0834  0.4064
 7491TIP3    H143964   2.987   5.809  16.406  0.1513 -3.8688  2.6598
 7491TIP3    H243965   3.093   5.876  16.492 -0.1792  3.8782 -2.0020
 7492TIP3   OH243966   0.859   4.711   0.314 -0.1534  0.1646 -0.0326
 7492TIP3    H143967   0.866   4.742   0.404  1.3499 -2.2765  0.7950
 7492TIP3    H243968   0.813   4.627   0.322  1.2903 -0.7920 -1.3357
 7493TIP3   OH243969   4.972   1.503   5.728 -0.6840 -0.2767 -0.5028
 7493TIP3    H143970   4.984   1.471   5.818 -1.5789  0.4975 -0.0784
 7493TIP3    H243971   4.912   1.577   5.738 -1.3004 -0.5702 -1.8118
 7494TIP3   OH243972   0.245   6.715  14.970  0.1781  0.3729 -0.2189
 7494TIP3    H143973   0.274   6.740  14.882 -0.8119 -1.9887 -1.3060
 7494TIP3    H243974   0.305   6.644  14.995 -0.9186 -0.5008  0.0084
 7495TIP3   OH243975   6.443   6.554  14.338  0.1932 -0.3285  0.2032
 7495TIP3    H143976   6.506   6.501  14.289  0.1669  0.2281 -0.4455
 7495TIP3    H243977   6.496   6.603  14.400  0.0575 -2.4855  2.1620
 7496TIP3   OH243978   1.079   6.158   4.974 -0.0356  0.2317 -0.2802
 7496TIP3    H143979   1.174   6.145   4.973  0.2439  2.0574 -0.2466
 7496TIP3    H243980   1.049   6.128   4.889  0.6579  0.1737 -0.5015
 7497TIP3   OH243981   2.804   3.549   1.680  0.6679 -0.0470 -0.3787
 7497TIP3    H143982   2.891   3.514   1.666  0.1197 -1.8215  0.3335
 7497TIP3    H243983   2.745   3.482   1.646 -0.4269  0.8355 -0.2994
 7498TIP3   OH243984   0.902   5.089  14.607 -0.3357 -0.3747  0.5087
 7498TIP3    H143985   0.864   5.168  14.568 -0.2237  0.2266  1.5857
 7498TIP3    H243986   0.849   5.017  14.571 -1.1431  0.2762  0.3579
 7499TIP3   OH243987   5.236   1.909  16.186 -0.4607 -0.1016 -0.1716
 7499TIP3    H143988   5.180   1.986  16.183  0.1619  0.4139  0.9926
 7499TIP3    H243989   5.320   1.941  16.218  0.0999 -1.1002 -0.5892
 7500TIP3   OH243990   0.651   2.536   1.756  0.9196  0.0434 -0.5323
 7500TIP3    H143991   0.664   2.611   1.698  1.8879 -0.8812 -1.5738
 7500TIP3    H243992   0.557   2.522   1.758  0.9105 -0.5140 -2.7420
 7501TIP3   OH243993   0.236   4.640  16.282  0.5604  0.1363  0.2723
 7501TIP3    H143994   0.307   4.700  16.257  1.1874 -0.8936 -0.5366
 7501TIP3    H243995   0.281   4.564  16.318 -0.1147 -0.5756 -0.3456
 7502TIP3   OH243996   3.461   6.687  11.736  0.3501 -0.0536 -0.6379
 7502TIP3    H143997   3.497   6.770  11.766  0.2642 -0.1136 -0.3672
 7502TIP3    H243998   3.535   6.627  11.737  0.0759 -0.4021  0.7588
 7503TIP3   OH243999   0.819   2.842  14.119 -0.2464 -0.3449 -0.1681
 7503TIP3    H144000   0.786   2.804  14.201 -0.5169  0.2343  0.0014
 7503TIP3    H244001   0.830   2.768  14.060 -0.1052 -0.7641  0.3787
 7504TIP3   OH244002   4.097   4.877  16.426  0.3998 -0.3331  0.1494
 7504TIP3    H144003   4.012   4.864  16.468  0.5594 -2.8800 -0.1426
 7504TIP3    H244004   4.085   4.846  16.337  1.6830 -0.9696  0.1732
 7505TIP3   OH244005   5.850   0.672   4.617 -0.2870 -0.2152  0.1882
 7505TIP3    H144006   5.852   0.734   4.690 -0.8456  0.6650 -0.5242
 7505TIP3    H244007   5.779   0.611   4.639  0.0096 -0.3830  0.7048
 7506TIP3   OH244008   5.296   5.565  13.604  0.3245  0.0190  0.0508
 7506TIP3    H144009   5.293   5.657  13.632 -0.0754  1.0338 -2.9581
 7506TIP3    H244010   5.237   5.520  13.665 -0.5849  2.0298  0.7494
 7507TIP3   OH244011   4.356   3.368   1.747 -0.1933  0.1620 -0.1479
 7507TIP3    H144012   4.440   3.403   1.777  0.7910 -1.3225 -1.0322
 7507TIP3    H244013   4.361   3.274   1.766 -0.5445 -0.4148 -2.5681
 7508TIP3   OH244014   1.576   4.547   0.686  0.0740  0.0247  0.4363
 7508TIP3    H144015   1.566   4.551   0.591  1.2197  0.2525  0.3095
 7508TIP3    H244016   1.560   4.455   0.708  1.3144 -0.3663 -0.1879
 7509TIP3   OH244017   1.544   5.597   1.334 -0.5401  0.1575 -0.8636
 7509TIP3    H144018   1.605   5.581   1.263 -1.2935  0.1104 -1.5093
 7509TIP3    H244019   1.599   5.600   1.413  0.3515  0.6834 -1.4920
 7510TIP3   OH244020   5.271   1.554   5.842  0.4173  0.4371 -0.3825
 7510TIP3    H144021   5.268   1.644   5.811 -1.1128 -0.3292 -2.7641
 7510TIP3    H244022   5.197   1.546   5.902 -0.7570  0.2845 -1.7994
 7511TIP3   OH244023   1.399   0.508  16.861  0.3113  0.4517 -0.1478
 7511TIP3    H144024   1.477   0.514  16.916 -0.1580 -0.0633  0.5931
 7511TIP3    H244025   1.399   0.589  16.810  0.8813  0.8258  0.4380
 7512TIP3   OH244026   3.910   4.246   3.881  0.6130  0.1125 -0.4929
 7512TIP3    H144027   3.828   4.214   3.843 -0.4601  1.2261  0.7384
 7512TIP3    H244028   3.886   4.331   3.919  2.3910  0.5302 -0.2367
 7513TIP3   OH244029   3.726   2.567  10.626 -0.0812  0.2079  0.3533
 7513TIP3    H144030   3.801   2.578  10.685 -0.8366 -2.3310  1.9400
 7513TIP3    H244031   3.661   2.629  10.659 -0.1915 -0.5977  1.7267
 7514TIP3   OH244032   5.939   3.617   0.726 -0.0301  0.1524  0.2312
 7514TIP3    H144033   5.936   3.712   0.726 -0.0683  0.1845 -1.6400
 7514TIP3    H244034   5.859   3.590   0.681 -0.3394 -0.8086  1.2794
 7515TIP3   OH244035   5.745   4.690  14.870 -0.3285 -0.0990  0.4726
 7515TIP3    H144036   5.726   4.597  14.885  1.0611 -0.5805 -0.5387
 7515TIP3    H244037   5.839   4.693  14.853  0.3304  1.9225  3.6342
 7516TIP3   OH244038   4.422   4.569   2.639  0.3988 -0.2950  0.0904
 7516TIP3    H144039   4.345   4.549   2.586 -0.6626 -1.4021  1.9358
 7516TIP3    H244040   4.457   4.650   2.601 -1.6735  0.2488 -0.8035
 7517TIP3   OH244041   6.222   6.805  10.855  0.2906  0.0081  0.4987
 7517TIP3    H144042   6.316   6.814  10.838  0.0666 -0.5128 -1.2341
 7517TIP3    H244043   6.195   6.890  10.890  1.2505  0.4737  0.1422
 7518TIP3   OH244044   4.196   1.108  14.326  0.3297 -0.0666 -0.2305
 7518TIP3    H144045   4.255   1.055  14.273  1.9329  0.7071  0.7177
 7518TIP3    H244046   4.145   1.158  14.262  2.0976  0.7297 -1.0875
 7519TIP3   OH244047   4.592   1.370   4.456 -0.1735  0.5139  0.0995
 7519TIP3    H144048   4.644   1.377   4.536 -2.3037 -1.6433  1.8091
 7519TIP3    H244049   4.654   1.340   4.389  1.6584  2.4202  0.8360
 7520TIP3   OH244050   6.803   6.199   5.008  0.3491 -0.0316 -0.2988
 7520TIP3    H144051   6.838   6.132   5.067 -2.3140 -2.3784 -1.1506
 7520TIP3    H244052   6.810   6.280   5.058  0.7177 -1.4541  2.1591
 7521TIP3   OH244053   1.294   2.887  13.331 -0.1524 -0.6729 -0.0670
 7521TIP3    H144054   1.330   2.805  13.365 -0.4883 -0.0525  1.8911
 7521TIP3    H244055   1.314   2.952  13.398 -3.0702  0.1163  0.1751
 7522TIP3   OH244056   2.685   1.719  15.707 -0.7456 -0.0331  0.2157
 7522TIP3    H144057   2.697   1.651  15.641  0.1031  1.5898 -1.4090
 7522TIP3    H244058   2.715   1.679  15.789  4.8296 -0.1876 -1.4847
 7523TIP3   OH244059   1.450   3.126   3.496 -0.2268  0.2795 -0.0167
 7523TIP3    H144060   1.543   3.119   3.520  0.0564  1.4032 -0.7093
 7523TIP3    H244061   1.407   3.060   3.551  0.8379  0.4562  1.0991
 7524TIP3   OH244062   3.090   4.098   2.721 -0.4304 -0.1502 -0.1031
 7524TIP3    H144063   3.042   4.166   2.769 -1.3547 -0.4268 -0.6107
 7524TIP3    H244064   3.182   4.116   2.739 -0.7465 -0.4907  2.1167
 7525TIP3   OH244065   0.629   3.567  16.368 -0.1979 -0.3219  0.4478
 7525TIP3    H144066   0.618   3.504  16.296 -0.7762  0.8227 -0.4943
 7525TIP3    H244067   0.692   3.525  16.426  1.5810 -0.5760 -1.5420
 7526TIP3   OH244068   0.442   6.659   4.622 -0.4367 -0.3153  0.2472
 7526TIP3    H144069   0.412   6.645   4.712  1.0121  1.1290  0.9975
 7526TIP3    H244070   0.530   6.694   4.631  0.9229 -2.8779 -1.8532
 7527TIP3   OH244071   2.889   1.411   3.924 -0.6067 -0.0888 -0.2066
 7527TIP3    H144072   2.931   1.477   3.979  0.6822 -1.4278  0.4932
 7527TIP3    H244073   2.835   1.360   3.984  1.0115 -1.7258 -0.0223
 7528TIP3   OH244074   1.071   1.810  15.496  0.7763  0.4504 -0.3740
 7528TIP3    H144075   1.060   1.715  15.504  0.2339  0.6305  1.3028
 7528TIP3    H244076   1.093   1.823  15.404  2.9067 -1.5135 -0.2473
 7529TIP3   OH244077   1.761   4.776  14.828 -0.0809  0.3651 -0.6212
 7529TIP3    H144078   1.751   4.799  14.920 -1.7089  1.6936 -1.0697
 7529TIP3    H244079   1.747   4.681  14.825  3.7857 -0.4255  0.9048
 7530TIP3   OH244080   1.736   3.546   1.702 -0.4253  0.0435  0.2392
 7530TIP3    H144081   1.794   3.514   1.633 -1.1673 -1.2713  0.1920
 7530TIP3    H244082   1.778   3.516   1.783 -0.6424 -0.2742  0.2386
 7531TIP3   OH244083   0.917   6.464  14.960 -0.2573  0.0439  0.5166
 7531TIP3    H144084   0.923   6.555  14.992  2.0513 -0.1747  0.8478
 7531TIP3    H244085   0.852   6.424  15.018  2.6605  0.0864  4.1859
 7532TIP3   OH244086   6.738   4.693  13.239  0.5787  0.2757  0.2277
 7532TIP3    H144087   6.818   4.721  13.284  1.5281 -1.1415 -0.4872
 7532TIP3    H244088   6.758   4.604  13.208 -1.3547 -0.1925  0.1894
 7533TIP3   OH244089   0.997   1.702   3.756  0.0245  0.3466  0.1015
 7533TIP3    H144090   1.051   1.772   3.791 -0.3949  0.2917  0.8768
 7533TIP3    H244091   0.908   1.737   3.755 -0.2011 -0.1878  0.5711
 7534TIP3   OH244092   6.119   4.427  16.976 -0.1770  0.0628  0.2913
 7534TIP3    H144093   6.081   4.372  17.044 -2.1634 -0.6812 -1.3021
 7534TIP3    H244094   6.103   4.379  16.895  2.7179  0.5909 -0.6841
 7535TIP3   OH244095   4.001   0.992  11.221 -0.6977 -0.1822 -0.1556
 7535TIP3    H144096   4.017   0.897  11.215 -1.2793 -0.3826  1.1300
 7535TIP3    H244097   4.021   1.025  11.134 -1.5484 -1.6480 -0.9501
 7536TIP3   OH244098   2.565   1.050  11.034  0.1888  0.4210 -0.7852
 7536TIP3    H144099   2.527   1.061  10.947  0.7039  1.1562 -0.9252
 7536TIP3    H244100   2.541   0.961  11.060 -0.0858  0.2477 -1.6174
 7537TIP3   OH244101   0.746   0.970  14.574 -0.2160  0.0503 -0.1109
 7537TIP3    H144102   0.739   0.888  14.526 -0.6531  0.1417 -0.2076
 7537TIP3    H244103   0.785   0.946  14.658 -0.2821 -0.2444 -0.1653
 7538TIP3   OH244104   1.684   4.340  15.041  0.4520 -0.1376  0.3655
 7538TIP3    H144105   1.686   4.254  15.000 -0.3600 -0.0477  0.1273
 7538TIP3    H244106   1.622   4.330  15.114  1.6289 -0.2117  1.3870
 7539TIP3   OH244107   2.290   6.219   3.359  0.2135 -0.1633 -0.1604
 7539TIP3    H144108   2.318   6.260   3.441 -2.4778 -0.2325  0.9233
 7539TIP3    H244109   2.319   6.129   3.366  0.0537 -0.1555  0.7255
 7540TIP3   OH244110   4.134   6.205   5.051  0.2894 -0.1648 -0.3394
 7540TIP3    H144111   4.120   6.279   4.991  0.1196  0.2272  0.1808
 7540TIP3    H244112   4.049   6.193   5.093  0.8897  0.8145  1.2324
 7541TIP3   OH244113   1.733   1.673   5.879  0.2516  0.4523  0.3267
 7541TIP3    H144114   1.824   1.657   5.906 -0.6972 -0.9680  3.0720
 7541TIP3    H244115   1.700   1.738   5.942 -0.9896 -0.0785  0.2577
 7542TIP3   OH244116   1.605   2.445  13.335 -0.1962  0.0995  0.3369
 7542TIP3    H144117   1.539   2.461  13.267 -0.9317 -0.8405  0.8140
 7542TIP3    H244118   1.676   2.506  13.314  0.3970 -1.3436 -2.3197
 7543TIP3   OH244119   4.920   5.106   3.757  0.0621  0.4788  0.1049
 7543TIP3    H144120   4.992   5.170   3.755  0.4152  0.0813 -0.0732
 7543TIP3    H244121   4.888   5.109   3.847 -2.5101  3.7277 -0.7217
 7544TIP3   OH244122   5.406   0.420   3.818 -0.3978  0.2872  0.1683
 7544TIP3    H144123   5.495   0.446   3.844 -0.5646 -0.2218  1.3417
 7544TIP3    H244124   5.412   0.326   3.805 -0.7925  0.2364  0.3614
 7545TIP3   OH244125   1.108   0.860   1.217  0.1663 -0.2479 -0.2362
 7545TIP3    H144126   1.098   0.776   1.261 -1.7811 -0.8485 -1.7121
 7545TIP3    H244127   1.057   0.852   1.136  1.8637  1.5333 -1.6021
 7546TIP3   OH244128   2.231   0.782  16.634 -0.2434 -0.6421  0.4087
 7546TIP3    H144129   2.216   0.720  16.562  0.0518 -0.0497 -0.1785
 7546TIP3    H244130   2.283   0.733  16.697  0.4426 -0.8370 -0.2894
 7547TIP3   OH244131   2.078   0.848   3.895 -0.3842 -0.4576  0.4195
 7547TIP3    H144132   2.125   0.765   3.891 -0.8460 -0.7989  1.6978
 7547TIP3    H244133   1.989   0.824   3.920 -0.5217  0.4228  0.8175
 7548TIP3   OH244134   3.462   0.534  16.309 -0.1530  0.1976 -0.3614
 7548TIP3    H144135   3.424   0.470  16.370 -0.4631 -1.1869 -1.9367
 7548TIP3    H244136   3.414   0.615  16.326  0.9101  0.3518  2.3732
 7549TIP3   OH244137   1.579   6.202   3.869  0.3936 -0.9300 -0.3470
 7549TIP3    H144138   1.652   6.188   3.929 -1.4339 -1.2711  1.9353
 7549TIP3    H244139   1.536   6.117   3.862 -0.5172 -0.4672 -0.5854
 7550TIP3   OH244140   3.436   5.972   1.323 -0.5982 -0.3327  0.1077
 7550TIP3    H144141   3.519   5.964   1.277 -1.5858 -1.3169 -1.6487
 7550TIP3    H244142   3.407   6.061   1.306 -0.7480 -0.5569 -0.8677
 7551TIP3   OH244143   2.205   5.274  13.880 -0.0825 -1.1863 -0.4539
 7551TIP3    H144144   2.188   5.181  13.871  0.0528 -1.3027  0.4087
 7551TIP3    H244145   2.118   5.315  13.875 -0.1440 -1.3564 -0.7995
 7552TIP3   OH244146   2.667   1.784   1.046  0.1254 -0.5822 -0.1589
 7552TIP3    H144147   2.737   1.789   1.111  2.4661  0.2458 -2.5867
 7552TIP3    H244148   2.626   1.870   1.047  0.2993 -0.5016  0.0344
 7553TIP3   OH244149   6.567   2.351   5.111 -0.3842 -0.0750 -0.5602
 7553TIP3    H144150   6.484   2.397   5.098 -0.4410  0.8543  2.3214
 7553TIP3    H244151   6.631   2.402   5.061 -0.7847  2.0963  0.9918
 7554TIP3   OH244152   1.660   1.804  12.036  0.0112 -0.2936  0.1997
 7554TIP3    H144153   1.595   1.738  12.061 -0.5879  0.5872  1.0157
 7554TIP3    H244154   1.661   1.866  12.108  2.6370 -0.8741  0.7860
 7555TIP3   OH244155   2.689   2.154  15.526 -0.7060  0.3369 -0.9796
 7555TIP3    H144156   2.656   2.181  15.440 -1.4910 -0.2209 -0.8723
 7555TIP3    H244157   2.671   2.060  15.529  0.0620  0.1985 -0.5240
 7556TIP3   OH244158   2.619   3.756  15.080  0.5194 -0.2811 -0.5213
 7556TIP3    H144159   2.696   3.813  15.089 -1.1529  1.8126  1.7095
 7556TIP3    H244160   2.616   3.707  15.162 -0.0819 -0.9793 -0.9451
 7557TIP3   OH244161   0.255   6.781  13.001  0.5213  0.0650 -0.1931
 7557TIP3    H144162   0.181   6.722  12.988  0.1750  0.1004  1.3892
 7557TIP3    H244163   0.331   6.724  13.006  0.4525 -0.0708 -0.6456
 7558TIP3   OH244164   5.297   5.924   0.753  0.3116 -0.2255  0.0160
 7558TIP3    H144165   5.342   6.001   0.718  0.2469  0.2477  0.9424
 7558TIP3    H244166   5.271   5.950   0.841 -1.8338 -0.4588 -0.4958
 7559TIP3   OH244167   3.618   6.817  17.143  0.5297  0.4262 -0.4044
 7559TIP3    H144168   3.600   6.909  17.123 -0.5271  0.8309  1.9958
 7559TIP3    H244169   3.638   6.777  17.059 -1.3993  2.3316 -1.8682
 7560TIP3   OH244170   2.716   3.783  16.588  0.2339  0.0507  0.8171
 7560TIP3    H144171   2.722   3.739  16.673 -1.2959 -2.1069 -0.0730
 7560TIP3    H244172   2.658   3.726  16.537 -0.3461  2.2185 -1.0924
 7561TIP3   OH244173   2.980   3.167   2.379 -0.6579 -0.3055 -0.0589
 7561TIP3    H144174   3.017   3.235   2.323 -1.5748 -0.6295 -1.0950
 7561TIP3    H244175   3.012   3.085   2.340  0.7355 -0.5105  1.3807
 7562TIP3   OH244176   4.092   3.753  15.777 -0.2237 -0.4314 -0.4563
 7562TIP3    H144177   4.041   3.714  15.707  0.8220 -1.4727 -0.6741
 7562TIP3    H244178   4.163   3.799  15.732  1.0512 -1.9625 -0.1050
 7563TIP3   OH244179   4.298   4.156   2.103  0.4081 -0.0918 -0.4646
 7563TIP3    H144180   4.239   4.083   2.121 -0.6156  0.8684  0.2700
 7563TIP3    H244181   4.268   4.226   2.161  2.2143  0.4872 -0.1541
 7564TIP3   OH244182   4.016   4.284  11.673  0.2122 -0.0614 -0.5492
 7564TIP3    H144183   4.007   4.205  11.725  0.7735 -1.4604 -2.4413
 7564TIP3    H244184   4.109   4.303  11.673  0.0220  0.9410  0.3332
 7565TIP3   OH244185   4.676   3.776  15.639  0.2689 -0.3308 -0.0097
 7565TIP3    H144186   4.713   3.704  15.587  1.4083 -1.3370  2.0375
 7565TIP3    H244187   4.593   3.742  15.672 -0.1370  0.0508 -0.6374
 7566TIP3   OH244188   4.207   3.430  15.385 -0.0234  0.1687  0.4134
 7566TIP3    H144189   4.262   3.377  15.327  0.5198 -1.7931  2.5457
 7566TIP3    H244190   4.146   3.475  15.327  0.3404 -1.8434 -1.6682
 7567TIP3   OH244191   5.034   3.031   4.621 -0.2212 -0.3248  0.1874
 7567TIP3    H144192   5.006   2.940   4.618  0.4346 -0.5478  0.5348
 7567TIP3    H244193   5.090   3.042   4.544  0.8229 -0.6134  0.8866
 7568TIP3   OH244194   5.203   5.024   1.001  0.0197  0.0716  0.7243
 7568TIP3    H144195   5.231   4.987   1.085 -0.6949  0.5963  1.2042
 7568TIP3    H244196   5.170   4.949   0.951  1.3872 -0.4118  0.4952
 7569TIP3   OH244197   1.892   3.115   1.491 -0.0785 -0.1496  0.2962
 7569TIP3    H144198   1.851   3.057   1.428  1.2011  0.0796 -0.7767
 7569TIP3    H244199   1.904   3.061   1.569 -1.1170 -0.6029  0.1601
 7570TIP3   OH244200   6.293   5.203   3.596  0.0833  0.1580 -0.1960
 7570TIP3    H144201   6.228   5.272   3.583  1.2676  1.3956  0.2136
 7570TIP3    H244202   6.315   5.175   3.507 -0.8721 -0.1617 -0.3420
 7571TIP3   OH244203   2.170   6.052  15.099  0.2522 -0.3764  0.5017
 7571TIP3    H144204   2.197   6.142  15.084  0.9759 -0.6901 -0.1960
 7571TIP3    H244205   2.139   6.050  15.189 -0.1157  0.6447  0.4056
 7572TIP3   OH244206   1.628   3.791   1.780 -0.4127 -0.5097  0.7397
 7572TIP3    H144207   1.671   3.709   1.761  1.7584  0.4678  1.1731
 7572TIP3    H244208   1.677   3.829   1.853  0.0614  2.1551 -0.8264
 7573TIP3   OH244209   4.902   3.254   1.173  0.3850  0.3057 -0.2103
 7573TIP3    H144210   4.883   3.280   1.263 -0.1327 -0.3027 -0.1402
 7573TIP3    H244211   4.822   3.275   1.125 -0.5499 -2.2565  0.0829
 7574TIP3   OH244212   2.428   4.225   5.064  0.4611  0.7326  0.2190
 7574TIP3    H144213   2.518   4.254   5.048  0.5520  0.1736 -0.2886
 7574TIP3    H244214   2.385   4.302   5.101  0.8530  1.3466 -0.5721
 7575TIP3   OH244215   0.709   4.585   3.691  0.5853 -0.2546  0.6008
 7575TIP3    H144216   0.804   4.592   3.696  0.5290  0.9609  0.4185
 7575TIP3    H244217   0.683   4.652   3.628 -0.3750 -0.7519  0.4473
 7576TIP3   OH244218   1.189   6.192   5.234  0.4529  0.1833  0.5315
 7576TIP3    H144219   1.201   6.106   5.192  1.3943  0.9834 -0.9199
 7576TIP3    H244220   1.096   6.195   5.257 -0.1041 -0.3519 -1.4527
 7577TIP3   OH244221   3.844   5.125  16.718  0.1471 -0.7917 -0.9029
 7577TIP3    H144222   3.755   5.090  16.726 -0.5676  0.8465 -1.1159
 7577TIP3    H244223   3.881   5.118  16.806 -0.9421  0.2777 -0.3218
 7578TIP3   OH244224   6.710   0.990  17.124  0.3081  0.2552  0.0522
 7578TIP3    H144225   6.786   0.949  17.166  0.2531  1.5962  1.5810
 7578TIP3    H244226   6.674   1.047  17.192 -1.4033  0.5034 -1.0219
 7579TIP3   OH244227   0.600   3.422   6.086  0.1626  0.6286 -0.6190
 7579TIP3    H144228   0.643   3.377   6.013  0.8031  1.4089 -0.7317
 7579TIP3    H244229   0.649   3.392   6.164  0.3222  0.8009 -0.6511
 7580TIP3   OH244230   5.888   0.543   2.733 -0.1386 -0.4616 -0.0476
 7580TIP3    H144231   5.875   0.559   2.639  1.0723  0.4713 -0.0808
 7580TIP3    H244232   5.803   0.563   2.772 -0.8190 -1.3818 -0.9957
 7581TIP3   OH244233   5.148   5.823   3.273 -0.3969  0.1211 -0.0694
 7581TIP3    H144234   5.239   5.829   3.243 -0.7290  1.3082 -0.9249
 7581TIP3    H244235   5.139   5.733   3.305  1.1475  0.0652  0.2952
 7582TIP3   OH244236   5.489   0.863   5.346  0.7995  0.2823  0.3591
 7582TIP3    H144237   5.432   0.890   5.274  2.2595 -1.3059 -1.5089
 7582TIP3    H244238   5.526   0.945   5.379  1.1301  1.0025 -1.6434
 7583TIP3   OH244239   3.833   2.465  14.880  0.0155 -0.2671 -0.4096
 7583TIP3    H144240   3.758   2.524  14.876  0.3372  0.1652 -0.2374
 7583TIP3    H244241   3.830   2.428  14.969  0.1917  0.0025 -0.2902
 7584TIP3   OH244242   1.853   3.804  13.664  0.3322  0.0715 -0.0322
 7584TIP3    H144243   1.805   3.746  13.605  0.5848  0.4781 -0.6517
 7584TIP3    H244244   1.936   3.758  13.680 -1.3360 -2.0905  3.4544
 7585TIP3   OH244245   2.459   3.566   1.081  0.0519  0.3711 -0.1341
 7585TIP3    H144246   2.380   3.524   1.117 -0.0473 -2.2156 -2.9156
 7585TIP3    H244247   2.526   3.552   1.148 -0.7983 -1.5271  0.4076
 7586TIP3   OH244248   4.235   5.230   1.030  0.6623 -0.4820  0.3823
 7586TIP3    H144249   4.271   5.262   1.113  2.3036  0.5341 -0.6724
 7586TIP3    H244250   4.273   5.287   0.963 -1.3310 -0.6995 -1.0258
 7587TIP3   OH244251   1.919   5.097   0.240  0.6473 -0.4419  0.0470
 7587TIP3    H144252   1.952   5.029   0.180 -0.8109 -0.5589 -0.6638
 7587TIP3    H244253   1.829   5.114   0.210 -0.6496 -1.4685  3.0121
 7588TIP3   OH244254   0.044   2.095  11.771 -0.2216  0.9160  0.2511
 7588TIP3    H144255   0.074   2.116  11.683  1.8497 -0.2447  0.6061
 7588TIP3    H244256  -0.027   2.031  11.759  0.3038  0.4777 -0.5751
 7589TIP3   OH244257   2.738   3.872   2.860  0.0892 -0.0979 -0.0643
 7589TIP3    H144258   2.737   3.778   2.877 -1.8429 -0.0970  0.0882
 7589TIP3    H244259   2.829   3.898   2.873  0.3348 -1.6228  1.6292
 7590TIP3   OH244260   1.172   2.928   0.031  0.2631 -0.4414  0.2811
 7590TIP3    H144261   1.141   2.846   0.068  0.3690 -0.8033 -0.4187
 7590TIP3    H244262   1.231   2.902  -0.040 -0.8133  0.2030 -0.8983
 7591TIP3   OH244263   5.793   3.437  12.606 -0.3112 -0.3606 -0.0831
 7591TIP3    H144264   5.767   3.439  12.699 -1.7417 -1.5935 -0.4099
 7591TIP3    H244265   5.855   3.509  12.597  2.3569 -2.0699  2.5344
 7592TIP3   OH244266   6.760   3.106  14.919  0.9315 -0.5139 -0.0975
 7592TIP3    H144267   6.755   3.068  15.006 -0.8111 -1.1829 -0.4547
 7592TIP3    H244268   6.706   3.049  14.864  0.5502  0.8914 -1.2435
 7593TIP3   OH244269   0.481   5.590   1.439  0.3740  0.3884 -0.1049
 7593TIP3    H144270   0.418   5.658   1.462 -0.3949  0.0583 -1.1610
 7593TIP3    H244271   0.443   5.509   1.473 -1.0713 -0.2055 -2.8194
 7594TIP3   OH244272   3.685   1.113  15.169 -0.1138 -0.0018 -0.6889
 7594TIP3    H144273   3.596   1.117  15.202 -0.0868 -1.4151 -0.3857
 7594TIP3    H244274   3.677   1.133  15.076 -0.6764  0.3212 -0.5787
 7595TIP3   OH244275   5.863   0.612   1.401  0.0777  0.0738 -0.0920
 7595TIP3    H144276   5.923   0.540   1.421  0.4154  0.2440 -0.4692
 7595TIP3    H244277   5.776   0.575   1.413  0.2333 -0.6329 -1.0565
 7596TIP3   OH244278   4.155   2.261   1.637 -0.3470 -0.5232  0.1974
 7596TIP3    H144279   4.125   2.171   1.652  0.6174 -0.5757  2.0259
 7596TIP3    H244280   4.130   2.280   1.546 -0.0442 -2.8257 -0.4114
 7597TIP3   OH244281   6.649   1.214   4.649  0.2784 -0.8783  0.2734
 7597TIP3    H144282   6.651   1.259   4.733 -0.0705 -0.6129  0.1371
 7597TIP3    H244283   6.600   1.133   4.666 -0.2294 -0.5844  0.2034
 7598TIP3   OH244284   5.715   5.704  13.955 -0.2618  0.2774  0.2243
 7598TIP3    H144285   5.661   5.629  13.932 -1.6973  1.3474 -0.0229
 7598TIP3    H244286   5.724   5.700  14.050 -0.4671 -0.1166  0.2254
 7599TIP3   OH244287   4.797   6.801  13.934  0.0574 -0.1660 -0.2470
 7599TIP3    H144288   4.841   6.730  13.981  0.1153 -0.1346 -0.2538
 7599TIP3    H244289   4.762   6.760  13.855 -0.3765 -0.3029  0.0119
 7600TIP3   OH244290   3.192   5.711  14.882 -0.5058 -0.2590 -0.1541
 7600TIP3    H144291   3.200   5.636  14.941 -2.0510 -0.3737 -0.0482
 7600TIP3    H244292   3.199   5.787  14.940  0.1573 -0.3256 -0.1378
 7601TIP3   OH244293   1.612   2.908  16.269 -0.0934 -0.1802 -0.4510
 7601TIP3    H144294   1.660   2.965  16.329 -2.0803  0.8491  0.2408
 7601TIP3    H244295   1.538   2.875  16.321 -1.1223 -0.3317 -1.9454
 7602TIP3   OH244296   4.244   0.024   1.034  0.7931  0.2113 -0.1668
 7602TIP3    H144297   4.280  -0.053   1.079 -0.2870 -0.7981 -0.9526
 7602TIP3    H244298   4.179   0.059   1.095  0.8899  0.1705 -0.0389
 7603TIP3   OH244299   6.162   4.156   1.681 -0.1981 -0.1102  0.0850
 7603TIP3    H144300   6.158   4.199   1.595 -0.0620 -0.7115 -0.2290
 7603TIP3    H244301   6.173   4.063   1.661  1.4547 -0.0945  0.7507
 7604TIP3   OH244302   3.874   4.637   5.880  0.3034 -0.5786 -0.9377
 7604TIP3    H144303   3.870   4.557   5.933 -1.1513 -0.3953 -0.7358
 7604TIP3    H244304   3.866   4.606   5.790  3.1432 -0.9239 -1.1614
 7605TIP3   OH244305   2.004   3.322  13.201  0.3297 -0.2856 -0.0922
 7605TIP3    H144306   1.918   3.360  13.186  0.4063 -0.4811 -1.1617
 7605TIP3    H244307   2.050   3.385  13.256 -0.0738  0.4309 -0.5653
 7606TIP3   OH244308   3.003   0.260  16.097 -0.2197  0.1348 -0.0996
 7606TIP3    H144309   3.006   0.184  16.155  0.4861 -0.1527 -0.4968
 7606TIP3    H244310   2.927   0.245  16.041 -2.3816  1.5533  2.2267
 7607TIP3   OH244311   0.201   4.045  13.676  0.0219  0.0412 -0.1996
 7607TIP3    H144312   0.267   3.995  13.629  0.7615 -0.0548  0.9055
 7607TIP3    H244313   0.159   4.098  13.609  1.2885  0.1748 -0.9182
 7608TIP3   OH244314   6.291   5.331  12.339 -0.3524  0.1926 -0.1827
 7608TIP3    H144315   6.215   5.379  12.306  0.5478  0.8192 -1.4438
 7608TIP3    H244316   6.315   5.271  12.268  1.3302  1.2247 -0.5732
 7609TIP3   OH244317   0.021   6.339   0.054 -0.2418 -0.4367 -0.2321
 7609TIP3    H144318   0.016   6.346  -0.041  0.6207  0.5075 -0.2310
 7609TIP3    H244319   0.073   6.260   0.070  2.2691  1.0137 -0.6603
 7610TIP3   OH244320   2.401   5.340  11.303  0.0099  0.5339  0.2387
 7610TIP3    H144321   2.441   5.299  11.227  1.2656  0.2760  0.9973
 7610TIP3    H244322   2.435   5.290  11.378 -1.8874  0.1999  0.9311
 7611TIP3   OH244323   1.960   3.698  11.505  0.1208 -0.2423  1.0206
 7611TIP3    H144324   1.867   3.712  11.523 -0.4159  0.8386 -2.0112
 7611TIP3    H244325   1.968   3.603  11.494 -1.2959 -0.1569 -1.4030
 7612TIP3   OH244326   2.296   6.048  13.714 -0.3823  0.0807 -0.3390
 7612TIP3    H144327   2.341   6.110  13.771 -0.6169 -0.1569  0.1066
 7612TIP3    H244328   2.249   6.103  13.651 -1.3677  0.3922  0.6311
 7613TIP3   OH244329   6.628   4.929  14.891  0.2066  0.1319  0.1643
 7613TIP3    H144330   6.540   4.962  14.873 -0.2506 -0.3970  1.3609
 7613TIP3    H244331   6.682   5.008  14.895 -0.1404  0.4389 -0.8716
 7614TIP3   OH244332   1.656   0.979   5.967 -0.1187 -0.8744 -0.2659
 7614TIP3    H144333   1.639   0.954   6.058 -1.3270 -2.8433 -0.9747
 7614TIP3    H244334   1.732   0.926   5.942  0.3062 -0.2229 -0.3964
 7615TIP3   OH244335   2.102   3.031   4.998  0.0148 -0.0785  0.5971
 7615TIP3    H144336   2.184   3.075   5.019 -0.1958 -0.9943  3.8644
 7615TIP3    H244337   2.124   2.972   4.926  1.9352  0.4269  0.7143
 7616TIP3   OH244338   5.882   4.717   3.829 -0.6746 -0.0493  0.2807
 7616TIP3    H144339   5.931   4.645   3.870 -0.3042  0.9744  1.7307
 7616TIP3    H244340   5.948   4.784   3.812 -1.4359  1.1509  1.7968
 7617TIP3   OH244341   2.463   2.162  13.826 -0.5640  0.3285  0.0549
 7617TIP3    H144342   2.553   2.170  13.857 -0.0312 -2.4468 -0.4746
 7617TIP3    H244343   2.412   2.145  13.905 -0.1476 -0.7935  0.1038
 7618TIP3   OH244344   2.460   4.577   3.879 -0.0604  0.0802 -0.2580
 7618TIP3    H144345   2.371   4.613   3.870 -0.0492  0.5038  1.0859
 7618TIP3    H244346   2.484   4.597   3.969  1.5907  0.3636 -0.7394
 7619TIP3   OH244347   1.498   1.888  16.883  0.4242  0.0387 -0.7880
 7619TIP3    H144348   1.476   1.951  16.952 -1.7442 -0.3792 -1.0328
 7619TIP3    H244349   1.487   1.937  16.802  1.0038 -0.0249 -0.9082
 7620TIP3   OH244350   1.371   0.388   0.620 -0.0380 -0.4622  0.5755
 7620TIP3    H144351   1.446   0.343   0.659  0.0745 -0.3777  0.4585
 7620TIP3    H244352   1.394   0.399   0.528  0.4770  0.9004  0.8351
 7621TIP3   OH244353   1.803   2.503   2.615 -0.1451  0.4518  0.1227
 7621TIP3    H144354   1.753   2.426   2.643  0.5578  0.3207  1.0422
 7621TIP3    H244355   1.736   2.571   2.603 -0.7742 -0.2767 -0.6995
 7622TIP3   OH244356   4.764   5.378   0.088 -0.5013  0.4331 -0.1038
 7622TIP3    H144357   4.851   5.408   0.061  1.2287 -2.4296  1.7016
 7622TIP3    H244358   4.771   5.368   0.183 -2.1083 -1.6946 -0.1271
 7623TIP3   OH244359   6.106   1.577  11.903  0.1214  0.8046 -0.3068
 7623TIP3    H144360   6.094   1.614  11.991  2.1097  0.9342 -0.0392
 7623TIP3    H244361   6.157   1.497  11.917 -1.0557 -0.1302 -1.2077
 7624TIP3   OH244362   5.920   1.168  16.785 -0.2288 -0.0799  0.4063
 7624TIP3    H144363   5.882   1.117  16.714 -0.3566 -1.9720  1.7676
 7624TIP3    H244364   5.857   1.238  16.801 -0.5697 -0.0847 -0.7932
 7625TIP3   OH244365   6.274   3.304   3.512 -0.1037 -0.3281 -0.4507
 7625TIP3    H144366   6.296   3.352   3.433 -1.6798 -0.6755 -1.1351
 7625TIP3    H244367   6.354   3.257   3.535  1.2476  1.9505 -0.2002
 7626TIP3   OH244368   5.258   0.211   5.075  0.3662 -0.0960 -0.2573
 7626TIP3    H144369   5.316   0.162   5.016 -0.9036  0.5027 -2.1001
 7626TIP3    H244370   5.280   0.178   5.162  2.4483 -0.9064 -1.0099
 7627TIP3   OH244371   1.698   2.873  12.076 -0.7360 -0.5821  0.2671
 7627TIP3    H144372   1.737   2.806  12.131  3.0124  1.6359  0.6107
 7627TIP3    H244373   1.640   2.922  12.135 -0.4693 -1.1350  1.0036
 7628TIP3   OH244374   6.040   3.623   3.449 -0.0632 -0.0729 -0.6058
 7628TIP3    H144375   6.114   3.680   3.467 -0.0732 -0.0565 -0.6166
 7628TIP3    H244376   6.026   3.631   3.355  0.5739 -0.8645 -0.7827
 7629TIP3   OH244377   5.448   6.811   5.572  0.7047  0.3218 -0.4423
 7629TIP3    H144378   5.532   6.856   5.573  1.7684 -1.5625  0.6490
 7629TIP3    H244379   5.464   6.731   5.522 -0.9780  0.7779 -1.8377
 7630TIP3   OH244380   2.516   3.954  12.463 -0.2137  0.5332  0.5900
 7630TIP3    H144381   2.467   4.034  12.484  1.7349  1.7739  0.6931
 7630TIP3    H244382   2.515   3.951  12.367  0.5941  1.3143  0.5380
 7631TIP3   OH244383   0.122   1.911   1.795 -0.2855  0.2545  0.2218
 7631TIP3    H144384   0.198   1.869   1.836  0.9604  2.0696 -0.0863
 7631TIP3    H244385   0.065   1.839   1.770  1.5736 -1.2234  0.0239
 7632TIP3   OH244386   4.258   4.323   4.302 -0.4793  0.0207  0.3989
 7632TIP3    H144387   4.266   4.411   4.340  1.1490 -0.2939  0.8486
 7632TIP3    H244388   4.302   4.330   4.218 -1.7297  0.0124 -0.2801
 7633TIP3   OH244389   6.125   6.638   0.447 -0.5224 -0.7703 -0.8078
 7633TIP3    H144390   6.043   6.611   0.405 -1.6656  0.1967  0.7051
 7633TIP3    H244391   6.152   6.562   0.498 -2.6115  0.0878  1.7695
 7634TIP3   OH244392   2.270   0.771   6.401 -0.2908  0.1913 -0.1950
 7634TIP3    H144393   2.348   0.725   6.371  0.0399 -0.8576  2.1084
 7634TIP3    H244394   2.198   0.728   6.355  0.2995 -0.1817 -0.7905
 7635TIP3   OH244395   5.289   0.066  11.649 -0.2641 -0.6233 -0.1864
 7635TIP3    H144396   5.199   0.095  11.665 -0.6342 -0.7553 -1.8001
 7635TIP3    H244397   5.327   0.055  11.736 -0.7283  2.7090  0.5685
 7636TIP3   OH244398   5.988   0.429   1.718  0.3460 -0.5690 -0.3073
 7636TIP3    H144399   5.902   0.415   1.680  1.2331  0.5600 -3.0038
 7636TIP3    H244400   5.973   0.490   1.790 -1.1470 -0.7133 -0.4685
 7637TIP3   OH244401   2.618   0.716   0.581  0.0892 -0.6322  0.0797
 7637TIP3    H144402   2.551   0.660   0.540  1.2314 -1.3315 -0.8879
 7637TIP3    H244403   2.678   0.654   0.622  1.0885 -0.0964 -0.5555
 7638TIP3   OH244404   2.441   5.730   0.550  0.5500  0.7333  0.1271
 7638TIP3    H144405   2.369   5.735   0.613 -0.4961  0.5963 -1.0044
 7638TIP3    H244406   2.479   5.644   0.564 -0.2762  0.3295 -0.0418
 7639TIP3   OH244407   2.897   4.738  16.880 -0.1151 -0.6668 -0.3489
 7639TIP3    H144408   2.928   4.698  16.961  0.8748 -1.0198 -0.8909
 7639TIP3    H244409   2.814   4.780  16.904  0.1068 -0.8708  0.8122
 7640TIP3   OH244410   2.825   6.602   2.829 -0.3600  0.4335  0.4968
 7640TIP3    H144411   2.877   6.681   2.840 -0.1953  0.3717  0.1813
 7640TIP3    H244412   2.889   6.534   2.806 -0.3874  0.0197  1.5851
 7641TIP3   OH244413   0.123   3.006   2.468 -0.0707 -0.7365  0.0524
 7641TIP3    H144414   0.181   2.974   2.537  1.7021 -1.1037 -1.5358
 7641TIP3    H244415   0.154   3.095   2.450 -0.1226 -0.8609 -0.6718
 7642TIP3   OH244416   2.185   2.960   6.682  0.4339  0.1527 -0.4416
 7642TIP3    H144417   2.192   3.019   6.758 -0.8658 -1.0817  0.6874
 7642TIP3    H244418   2.225   2.878   6.711  0.1837 -0.2531 -1.2105
 7643TIP3   OH244419   1.849   0.451   6.547 -0.1926  0.6996  0.6111
 7643TIP3    H144420   1.907   0.427   6.620 -0.2348  1.5269  0.9288
 7643TIP3    H244421   1.799   0.372   6.529 -0.6128  0.6415  1.8994
 7644TIP3   OH244422   4.183   4.765   5.062 -0.3326  0.2771 -0.1813
 7644TIP3    H144423   4.249   4.719   5.010  0.7185 -2.0489  2.9479
 7644TIP3    H244424   4.104   4.713   5.052 -1.2665  1.9246 -2.2664
 7645TIP3   OH244425   2.191   2.864  13.724 -0.3739  0.0044  0.2152
 7645TIP3    H144426   2.151   2.946  13.693 -3.9706 -1.4578  0.4948
 7645TIP3    H244427   2.172   2.801  13.654  1.0954 -0.9328  0.6356
 7646TIP3   OH244428   1.619   2.026   4.291  0.0886  0.1228  0.4761
 7646TIP3    H144429   1.631   2.119   4.308  2.5284  0.0725 -0.4800
 7646TIP3    H244430   1.636   1.983   4.375  2.1188  0.4088  0.2526
 7647TIP3   OH244431   5.046   5.310   2.854 -0.1699 -0.5545 -0.6896
 7647TIP3    H144432   4.957   5.341   2.872 -0.3546 -0.5540 -1.5396
 7647TIP3    H244433   5.043   5.283   2.762  0.7206 -0.5274 -0.7309
 7648TIP3   OH244434   5.089   2.792   4.262  0.0385  0.7216  0.5742
 7648TIP3    H144435   5.029   2.807   4.189 -0.0427 -1.5929  0.0926
 7648TIP3    H244436   5.135   2.711   4.240  2.6689  1.8875  1.4061
 7649TIP3   OH244437   0.814   3.327  16.795 -0.5817 -0.1268  1.1357
 7649TIP3    H144438   0.751   3.274  16.845 -0.6686  0.9865  2.2716
 7649TIP3    H244439   0.900   3.292  16.820 -0.6460  0.1329  1.7445
 7650TIP3   OH244440   0.064   2.774  11.616  0.2961 -0.0828  0.3357
 7650TIP3    H144441   0.065   2.869  11.628 -1.2341  0.0301 -0.1578
 7650TIP3    H244442  -0.006   2.759  11.553  0.8425 -1.5115  0.0357
 7651TIP3   OH244443   6.411   5.392   1.037  0.1862 -0.4064 -0.0059
 7651TIP3    H144444   6.407   5.343   1.119 -1.7362 -0.0645  0.1432
 7651TIP3    H244445   6.329   5.373   0.993  0.5104  0.6532 -1.1453
 7652TIP3   OH244446   2.980   3.845   2.626  0.7543 -0.1314  0.0760
 7652TIP3    H144447   2.903   3.885   2.586  1.7972  0.6651 -1.2237
 7652TIP3    H244448   3.040   3.918   2.643  1.2234 -0.7220  1.1007
 7653TIP3   OH244449   2.939   4.021  14.867  0.0109 -0.5787 -0.1237
 7653TIP3    H144450   2.894   4.028  14.783 -0.2998  0.6926  0.1317
 7653TIP3    H244451   2.872   3.990  14.928 -0.1413 -0.0882 -0.0419
 7654TIP3   OH244452   1.983   3.004  15.750  0.0081  0.8560 -0.0427
 7654TIP3    H144453   1.927   2.927  15.759 -0.9955  1.4820 -0.7565
 7654TIP3    H244454   1.988   3.019  15.656  0.3290  1.5751  0.0826
 7655TIP3   OH244455   5.841   2.646  10.734 -0.1703 -0.5272  0.1882
 7655TIP3    H144456   5.762   2.694  10.758  0.1808  0.2121 -0.0848
 7655TIP3    H244457   5.810   2.564  10.695 -0.8889  0.6121 -1.8138
 7656TIP3   OH244458   5.288   3.956   3.622 -0.4131 -0.1744 -0.1236
 7656TIP3    H144459   5.330   4.039   3.642  1.4852 -0.8660 -1.0149
 7656TIP3    H244460   5.354   3.906   3.573 -2.1301 -1.4986 -1.2202
 7657TIP3   OH244461   2.823   2.615  15.872  0.1006 -0.2926  0.3390
 7657TIP3    H144462   2.840   2.687  15.811  0.3239  0.4363  1.2381
 7657TIP3    H244463   2.836   2.536  15.820 -0.9209  0.3025 -0.8880
 7658TIP3   OH244464   3.637   6.093   4.844  1.0067  0.6445  0.3056
 7658TIP3    H144465   3.627   6.010   4.797  0.0001  0.6674  0.4404
 7658TIP3    H244466   3.727   6.092   4.877  1.4981  0.3219 -1.0168
 7659TIP3   OH244467   0.916   5.365  10.336  0.0401  0.3807 -0.9407
 7659TIP3    H144468   0.946   5.431  10.398  1.1075 -0.7140 -0.2465
 7659TIP3    H244469   0.828   5.394  10.311 -0.2753  1.0606  0.7951
 7660TIP3   OH244470   0.386   6.177  13.274  0.1308  0.1443 -0.5213
 7660TIP3    H144471   0.364   6.093  13.314 -1.3488 -0.7303 -2.9173
 7660TIP3    H244472   0.332   6.241  13.321 -1.8561 -0.8938 -1.2810
 7661TIP3   OH244473   5.155   1.879   2.317 -0.6404  0.0649  0.3077
 7661TIP3    H144474   5.169   1.786   2.296  0.1117  0.0734  0.7499
 7661TIP3    H244475   5.069   1.899   2.280 -0.2003 -0.4348 -1.0486
 7662TIP3   OH244476   2.538   4.061   5.270 -0.1139  0.6340  0.0676
 7662TIP3    H144477   2.570   4.106   5.349  1.8520 -0.2611 -0.1588
 7662TIP3    H244478   2.562   4.119   5.198  3.3194 -1.0130 -0.3199
 7663TIP3   OH244479   6.026   2.490   4.285 -0.3988 -0.8825 -0.7762
 7663TIP3    H144480   6.013   2.552   4.214  0.5788 -0.0893 -0.2886
 7663TIP3    H244481   6.051   2.544   4.360 -0.0959 -1.8154 -0.1877
 7664TIP3   OH244482   0.547   1.337   6.610 -0.0254  0.7383  0.0579
 7664TIP3    H144483   0.465   1.346   6.659  0.6375 -2.3683  2.0251
 7664TIP3    H244484   0.534   1.390   6.531 -3.8990  0.4241  0.2918
 7665TIP3   OH244485   4.093   4.746  12.962  0.1031  0.0517 -0.1549
 7665TIP3    H144486   4.102   4.740  12.867 -1.4513  1.0633 -0.3921
 7665TIP3    H244487   4.148   4.675  12.996  0.0818 -0.8034 -1.8249
 7666TIP3   OH244488   2.039   4.224   4.436  0.3898 -0.6336 -1.1379
 7666TIP3    H144489   2.012   4.186   4.352 -2.7674 -0.2530 -0.4105
 7666TIP3    H244490   1.991   4.173   4.502  0.8404  0.6840  0.2686
 7667TIP3   OH244491   4.303   5.650   0.920 -0.5638  0.2709 -0.7913
 7667TIP3    H144492   4.257   5.733   0.912 -0.7388  0.4627  1.5211
 7667TIP3    H244493   4.236   5.588   0.948 -0.0076 -0.0935 -0.2364
 7668TIP3   OH244494   6.165   0.502  16.985 -0.1773 -0.4351 -0.0065
 7668TIP3    H144495   6.099   0.435  16.968 -0.6067 -0.2850  0.9852
 7668TIP3    H244496   6.203   0.477  17.070 -0.9131  1.0013  0.7840
 7669TIP3   OH244497   4.043   1.315  16.989  0.0696 -0.5112  0.3297
 7669TIP3    H144498   4.013   1.405  17.003 -0.9756 -0.6938 -0.6168
 7669TIP3    H244499   4.125   1.324  16.940 -1.2346 -0.0693 -1.9243
 7670TIP3   OH244500   2.938   0.009  14.920 -0.0313 -0.6070  0.1482
 7670TIP3    H144501   2.951  -0.083  14.895 -0.7215 -0.9085  0.8465
 7670TIP3    H244502   3.021   0.035  14.960 -0.5308 -1.6421  1.9958
 7671TIP3   OH244503   0.716   0.884   3.302  0.3238  0.1496 -0.6136
 7671TIP3    H144504   0.759   0.906   3.385  2.0822 -0.6371 -1.2558
 7671TIP3    H244505   0.745   0.952   3.241  0.1356 -0.0254 -0.9009
 7672TIP3   OH244506   2.660   5.570   0.746 -0.2152 -0.2484  0.0969
 7672TIP3    H144507   2.627   5.519   0.820  0.4116 -1.2203 -0.2729
 7672TIP3    H244508   2.698   5.648   0.787  0.1819 -0.8021  0.8245
 7673TIP3   OH244509   1.046   0.750  13.359 -0.3582 -0.0158  0.0327
 7673TIP3    H144510   0.956   0.723  13.338 -0.0647 -2.2136  1.3101
 7673TIP3    H244511   1.096   0.668  13.359  1.2433  0.9172  1.2797
 7674TIP3   OH244512   2.865   1.915   5.984  0.0691  0.1222 -0.7108
 7674TIP3    H144513   2.818   1.833   5.970 -1.3792  0.9496 -1.0015
 7674TIP3    H244514   2.877   1.921   6.078 -0.3336 -0.1755 -0.6372
 7675TIP3   OH244515   0.393   2.417  11.282  0.2196  0.1682 -0.1046
 7675TIP3    H144516   0.443   2.349  11.236  1.8633  2.7434 -2.4747
 7675TIP3    H244517   0.302   2.402  11.255  0.3433 -1.7520  0.4039
 7676TIP3   OH244518   0.222   6.375   2.440  0.0853  0.6674  0.0068
 7676TIP3    H144519   0.280   6.309   2.402 -2.0455 -1.0595 -0.5189
 7676TIP3    H244520   0.198   6.338   2.526 -0.6366  1.0436 -0.0223
 7677TIP3   OH244521   2.355   5.950   1.173 -0.2647 -0.7660 -0.2109
 7677TIP3    H144522   2.264   5.982   1.171 -0.0818 -0.0723 -3.2341
 7677TIP3    H244523   2.408   6.029   1.164  0.4351 -1.3653 -1.9185
 7678TIP3   OH244524   3.651   6.047   6.277 -0.1692  0.4425  0.0525
 7678TIP3    H144525   3.665   6.045   6.182 -0.8286  0.5921 -0.0559
 7678TIP3    H244526   3.737   6.064   6.314  0.4706 -1.4214 -0.4267
 7679TIP3   OH244527   5.035   4.680  16.365  0.4659 -0.0800 -0.4834
 7679TIP3    H144528   4.988   4.641  16.438  0.4592 -1.3545 -1.1376
 7679TIP3    H244529   5.083   4.607  16.326  0.9622  0.6988 -1.3706
 7680TIP3   OH244530   6.659   5.750  16.263  0.1115 -0.0157  0.1636
 7680TIP3    H144531   6.600   5.729  16.334 -0.9191  1.9511 -0.0442
 7680TIP3    H244532   6.728   5.802  16.304  0.5677 -0.5015  0.0295
 7681TIP3   OH244533   6.704   3.108   2.453 -0.8568  0.0967 -0.4720
 7681TIP3    H144534   6.688   3.095   2.359  1.3730  5.3999 -2.0051
 7681TIP3    H244535   6.787   3.063   2.469 -0.4670  0.3770 -1.5546
 7682TIP3   OH244536   4.768   4.810  12.188 -0.0789  0.1640 -1.1843
 7682TIP3    H144537   4.854   4.777  12.162 -0.7193 -1.0385 -1.8542
 7682TIP3    H244538   4.724   4.830  12.106 -0.7258  0.0287 -0.8782
 7683TIP3   OH244539   0.125   3.352  13.383  0.2619 -0.4563  0.4662
 7683TIP3    H144540   0.092   3.442  13.385  1.3887 -0.0162  0.0191
 7683TIP3    H244541   0.097   3.318  13.297  0.5999 -0.2330  0.2680
 7684TIP3   OH244542   1.807   5.680   0.051 -0.4777  0.3311 -0.1731
 7684TIP3    H144543   1.890   5.727   0.060 -0.3755  0.2157 -0.5002
 7684TIP3    H244544   1.825   5.593   0.088 -1.1979  1.1226  2.1889
 7685TIP3   OH244545   0.448   2.215  16.669  0.0669  0.5770 -0.3142
 7685TIP3    H144546   0.406   2.271  16.734 -0.6778  1.0280 -1.1718
 7685TIP3    H244547   0.382   2.202  16.601  0.0159 -1.7618  0.0871
 7686TIP3   OH244548   1.839   3.839   2.725 -0.7732  0.9930 -0.5780
 7686TIP3    H144549   1.758   3.790   2.719 -0.5389  0.4522  0.5097
 7686TIP3    H244550   1.857   3.867   2.635 -0.2059 -2.0519 -1.5186
 7687TIP3   OH244551   4.098   5.166   0.040 -0.2748  0.8617  0.4920
 7687TIP3    H144552   4.184   5.187   0.076 -0.3873 -0.3245  1.5270
 7687TIP3    H244553   4.116   5.116  -0.039  0.0362 -0.5520  1.4147
 7688TIP3   OH244554   3.937   1.625   2.104  0.4824  0.4542  0.3944
 7688TIP3    H144555   4.000   1.604   2.172  1.8409  1.9459 -0.3527
 7688TIP3    H244556   3.893   1.541   2.085  1.5258 -0.3976  1.6128
 7689TIP3   OH244557   1.009   3.272   5.515  0.8649 -0.3055 -0.1261
 7689TIP3    H144558   1.077   3.255   5.581  2.2702  0.9051 -1.1798
 7689TIP3    H244559   1.042   3.229   5.436 -0.8573 -1.8515 -0.0596
 7690TIP3   OH244560   4.726   3.548  13.534  0.6656  0.2058 -0.0178
 7690TIP3    H144561   4.631   3.552  13.545  0.7436  1.9696  0.3079
 7690TIP3    H244562   4.740   3.551  13.439  0.4267  1.3975 -0.0223
 7691TIP3   OH244563   5.942   4.492   0.288  0.8915 -0.1292 -0.2409
 7691TIP3    H144564   5.988   4.510   0.370  1.1179 -2.3788  0.2034
 7691TIP3    H244565   6.005   4.442   0.236  0.1782 -0.1472 -1.1049
 7692TIP3   OH244566   3.774   0.413  16.047 -0.0359 -0.7134  0.0404
 7692TIP3    H144567   3.679   0.402  16.051 -0.1225  0.2442  0.9998
 7692TIP3    H244568   3.807   0.324  16.037 -1.0727 -0.9635 -1.6139
 7693TIP3   OH244569   6.595   0.095   5.273  0.2926 -0.8348 -0.1127
 7693TIP3    H144570   6.515   0.112   5.323  0.8566  1.8058  0.0308
 7693TIP3    H244571   6.658   0.159   5.306  1.7110 -1.2021 -1.9495
 7694TIP3   OH244572   2.555   0.084  11.120 -0.1588  0.2300  0.1864
 7694TIP3    H144573   2.627   0.020  11.118  1.1776  1.6767  0.1930
 7694TIP3    H244574   2.553   0.120  11.032  0.7873  1.9194  0.8035
 7695TIP3   OH244575   0.430   1.051   0.824 -0.5575  0.6303 -0.0906
 7695TIP3    H144576   0.520   1.040   0.857 -0.3591  1.0853 -0.4589
 7695TIP3    H244577   0.392   1.116   0.883 -0.6617  0.4108  0.0876
 7696TIP3   OH244578   2.874   4.932   1.541  0.1969  0.2416 -0.1124
 7696TIP3    H144579   2.965   4.957   1.522 -0.2858  1.6087 -0.7627
 7696TIP3    H244580   2.822   4.982   1.478 -0.9918 -0.8360 -0.0202
 7697TIP3   OH244581   5.931   0.963  14.405  0.0328  0.1217  0.2239
 7697TIP3    H144582   5.912   1.029  14.338  1.6028  0.2565 -0.1192
 7697TIP3    H244583   5.849   0.915  14.414 -1.9011  3.3215  1.9474
 7698TIP3   OH244584   5.288   4.886  11.715  0.4275 -0.4169  0.5848
 7698TIP3    H144585   5.327   4.799  11.707  1.3922  0.0618 -0.0291
 7698TIP3    H244586   5.236   4.896  11.635  2.8554  0.7809 -0.9852
 7699TIP3   OH244587   3.063   5.030   2.412 -0.7204 -0.7644 -0.3628
 7699TIP3    H144588   3.093   5.037   2.321 -0.7670 -0.6857 -0.3718
 7699TIP3    H244589   3.095   4.944   2.441 -0.5251 -0.7021 -0.3877
 7700TIP3   OH244590   5.159   0.583   3.730  0.3845  0.1275 -0.0481
 7700TIP3    H144591   5.142   0.618   3.643 -0.7445  0.0267  0.1135
 7700TIP3    H244592   5.190   0.494   3.715 -0.2375 -0.0441 -0.3355
 7701TIP3   OH244593   3.492   5.073   3.124 -0.5104 -0.0946  0.0598
 7701TIP3    H144594   3.437   5.037   3.055  0.3967 -0.1496 -0.6600
 7701TIP3    H244595   3.450   5.156   3.148 -1.4976 -0.6602  0.3135
 7702TIP3   OH244596   6.296   5.402  16.215  0.3453  0.3998 -0.6222
 7702TIP3    H144597   6.295   5.498  16.225  2.3063  0.3206  1.1083
 7702TIP3    H244598   6.204   5.377  16.216 -0.3031  2.3231 -2.3338
 7703TIP3   OH244599   6.455   1.655   1.411 -0.5193 -0.1493 -0.0550
 7703TIP3    H144600   6.463   1.735   1.463 -0.5670 -1.2508  1.7344
 7703TIP3    H244601   6.386   1.675   1.347 -0.9395  1.0531  0.7313
 7704TIP3   OH244602   1.178   2.930   5.144  0.2639 -0.4314 -0.1927
 7704TIP3    H144603   1.129   2.989   5.201  0.3040  0.3054 -0.9127
 7704TIP3    H244604   1.113   2.898   5.081  0.8274  1.2501 -1.7221
 7705TIP3   OH244605   4.115   1.897  14.195  0.0421  0.0605  1.2689
 7705TIP3    H144606   4.121   1.989  14.167  0.8281  0.1765  1.7843
 7705TIP3    H244607   4.021   1.880  14.199 -0.2293 -0.4104 -2.7350
 7706TIP3   OH244608   5.098   4.046  11.569  0.3600  0.3823 -0.2418
 7706TIP3    H144609   5.047   4.119  11.535 -0.7553 -0.0074  0.5326
 7706TIP3    H244610   5.045   3.969  11.551  0.8623 -0.0871  0.2331
 7707TIP3   OH244611   6.571   0.149  15.482  0.0316  0.6230 -0.4724
 7707TIP3    H144612   6.559   0.242  15.500  1.7823  1.3686 -2.6642
 7707TIP3    H244613   6.666   0.136  15.483 -0.1625 -1.0265 -0.6668
 7708TIP3   OH244614   0.731   5.533   2.791 -0.2130  0.1151  1.1234
 7708TIP3    H144615   0.721   5.619   2.832  1.7279  0.2033  1.4939
 7708TIP3    H244616   0.825   5.523   2.777 -0.4998 -1.4367 -0.0686
 7709TIP3   OH244617   4.441   2.988  14.945 -0.2426 -0.0600  0.1815
 7709TIP3    H144618   4.478   2.963  15.029 -1.2834 -1.1572  0.3416
 7709TIP3    H244619   4.429   3.083  14.951  0.0561 -0.0725  1.1082
 7710TIP3   OH244620   4.316   3.965   5.897  0.4274  0.0063 -0.4512
 7710TIP3    H144621   4.260   4.036   5.928 -0.6416 -0.4807 -1.1920
 7710TIP3    H244622   4.337   3.915   5.976 -0.6720 -0.1282 -0.2219
 7711TIP3   OH244623   5.871   4.631   1.616  0.4424  0.5384 -0.0678
 7711TIP3    H144624   5.868   4.640   1.711  0.3047  0.7242 -0.0898
 7711TIP3    H244625   5.794   4.679   1.585 -0.3740 -0.8180 -0.1823
 7712TIP3   OH244626   2.692   2.174  14.334 -0.7218 -0.3593 -0.1499
 7712TIP3    H144627   2.691   2.092  14.384 -1.6894  0.2541  0.8825
 7712TIP3    H244628   2.703   2.242  14.400  0.3445  0.3430 -1.0275
 7713TIP3   OH244629   5.002   5.136  12.843  0.0566 -0.1853 -0.1195
 7713TIP3    H144630   5.031   5.134  12.935 -2.2582 -0.6308  0.6671
 7713TIP3    H244631   5.066   5.083  12.796  1.9929  1.0666  0.9969
 7714TIP3   OH244632   0.739   2.199  12.327 -0.2575 -0.0093  0.0577
 7714TIP3    H144633   0.650   2.209  12.292 -0.9243 -1.0103  1.3731
 7714TIP3    H244634   0.748   2.271  12.389 -0.3755 -0.2669  0.3727
 7715TIP3   OH244635   2.180   3.672  15.386  0.0795  0.5472 -0.0198
 7715TIP3    H144636   2.245   3.602  15.396 -0.5880 -0.6703 -3.0825
 7715TIP3    H244637   2.223   3.749  15.422  1.2024 -1.1638  2.6722
 7716TIP3   OH244638   2.299   0.131  16.994  0.4121 -0.9605 -0.0404
 7716TIP3    H144639   2.235   0.130  17.064 -0.7064 -0.3057 -1.0269
 7716TIP3    H244640   2.364   0.065  17.020 -0.0597 -0.8486  1.4995
 7717TIP3   OH244641   5.483   4.178   1.531  0.0506  0.4900 -0.3015
 7717TIP3    H144642   5.516   4.186   1.620  0.7338  1.4037 -0.6291
 7717TIP3    H244643   5.412   4.241   1.525 -1.6481 -1.2531  0.3058
 7718TIP3   OH244644   6.085   5.054  11.349  0.3092 -0.2599  0.8758
 7718TIP3    H144645   6.061   5.146  11.354 -3.0128 -0.9256 -0.6963
 7718TIP3    H244646   6.166   5.048  11.401  0.1899  3.3281  1.7230
 7719TIP3   OH244647   5.253   6.627   4.520 -0.2975 -0.1295 -0.1929
 7719TIP3    H144648   5.330   6.683   4.511  1.3396 -2.1464  0.4397
 7719TIP3    H244649   5.225   6.612   4.430  1.4591 -1.1507 -0.6228
 7720TIP3   OH244650   3.432   1.501   5.121 -0.0790  0.9151 -0.0113
 7720TIP3    H144651   3.362   1.503   5.186 -0.2446  0.7537 -0.1803
 7720TIP3    H244652   3.388   1.474   5.040  0.6112 -1.9751  0.4471
 7721TIP3   OH244653   2.926   1.285  14.010  0.0034  0.2974 -0.2175
 7721TIP3    H144654   2.945   1.191  14.010  0.7271  0.4296 -0.8566
 7721TIP3    H244655   2.864   1.297  14.082  0.3961 -0.5723  0.2909
 7722TIP3   OH244656   5.672   2.252   0.232 -0.5046  0.2000 -0.1632
 7722TIP3    H144657   5.752   2.201   0.217  0.4866  1.5841  0.2899
 7722TIP3    H244658   5.603   2.186   0.235  0.7815 -1.1804  0.8277
 7723TIP3   OH244659   3.220   3.669   3.928 -0.5353  0.1452  0.3145
 7723TIP3    H144660   3.177   3.627   3.853 -0.5393  0.0947  0.3453
 7723TIP3    H244661   3.191   3.760   3.924  2.1139  1.0392 -1.7695
 7724TIP3   OH244662   6.143   5.970   3.614 -0.1122  0.0912 -0.0377
 7724TIP3    H144663   6.171   5.933   3.530  0.6417 -2.0176  1.0873
 7724TIP3    H244664   6.220   6.018   3.645 -0.9240  2.3462 -1.2499
 7725TIP3   OH244665   2.904   6.384  10.380 -0.0689  0.4763  0.1410
 7725TIP3    H144666   2.813   6.402  10.405 -0.2230  1.6351 -1.1117
 7725TIP3    H244667   2.952   6.384  10.463 -1.5667 -2.9686  1.1849
 7726TIP3   OH244668   1.695   4.779  11.101  0.5452  0.1510 -0.8524
 7726TIP3    H144669   1.680   4.829  11.181  0.2458  0.1318 -0.8989
 7726TIP3    H244670   1.779   4.736  11.116  0.3684 -0.0513 -0.4497
 7727TIP3   OH244671   1.962   0.987   1.839  0.2906 -0.6955 -0.3676
 7727TIP3    H144672   1.912   0.986   1.757 -0.3833 -0.4957  0.0303
 7727TIP3    H244673   2.053   0.988   1.811  0.1620 -3.0577 -1.1231
 7728TIP3   OH244674   5.077   3.033   0.375 -0.3082  0.1812 -0.5692
 7728TIP3    H144675   5.025   2.955   0.394  0.9521 -0.7826 -0.9511
 7728TIP3    H244676   5.043   3.100   0.435 -0.6687 -0.9701  0.5436
 7729TIP3   OH244677   6.746   5.700  16.824 -0.2514  0.0365 -0.2310
 7729TIP3    H144678   6.798   5.728  16.748  3.2760  1.0455  2.2679
 7729TIP3    H244679   6.690   5.775  16.844  1.7310  1.4210  0.4282
 7730TIP3   OH244680   3.619   3.420  11.858  0.0278 -0.3101  0.4785
 7730TIP3    H144681   3.539   3.441  11.810 -0.0590  0.0983  0.7917
 7730TIP3    H244682   3.613   3.326  11.875  0.0657 -0.4649 -0.3040
 7731TIP3   OH244683   3.219   4.311   2.328 -0.4679  0.3890  0.1215
 7731TIP3    H144684   3.229   4.406   2.334  1.8782  0.2222 -0.0151
 7731TIP3    H244685   3.144   4.298   2.271  0.2622  2.1941 -1.3457
 7732TIP3   OH244686   5.503   4.877  14.453 -0.3489  0.7490 -0.1976
 7732TIP3    H144687   5.423   4.924  14.432  0.6868  2.9121  0.3521
 7732TIP3    H244688   5.554   4.878  14.372 -1.3305 -1.7999 -0.9453
 7733TIP3   OH244689   4.956   0.322  15.743 -0.0918  0.3704  0.0883
 7733TIP3    H144690   4.921   0.404  15.707  1.3070  1.2929  0.7508
 7733TIP3    H244691   4.916   0.314  15.829 -0.2734  0.3228 -0.0005
 7734TIP3   OH244692   6.533   2.427   6.754 -0.2538  0.5526  0.5114
 7734TIP3    H144693   6.479   2.504   6.735  1.2918  1.2104 -1.7966
 7734TIP3    H244694   6.587   2.417   6.675  1.1962 -1.5552  1.6839
 7735TIP3   OH244695   4.824   0.106   5.649  0.1287 -0.0258 -0.0553
 7735TIP3    H144696   4.864   0.188   5.619 -0.1726  0.5465  1.0607
 7735TIP3    H244697   4.845   0.043   5.580 -1.2771  1.4254 -1.9375
 7736TIP3   OH244698   2.018   1.215   1.074 -0.0141  0.2325  0.2393
 7736TIP3    H144699   1.983   1.302   1.054  1.1142  1.2752  2.3951
 7736TIP3    H244700   1.951   1.174   1.128 -0.0172  0.2691  0.2637
 7737TIP3   OH244701   1.082   2.801  14.999  0.3111  0.2028 -0.0130
 7737TIP3    H144702   1.036   2.719  15.017 -1.2366  0.9756 -0.2915
 7737TIP3    H244703   1.090   2.844  15.084 -0.3774  0.5152 -0.1049
 7738TIP3   OH244704   4.757   0.245  13.463 -0.4284 -0.5356  0.2056
 7738TIP3    H144705   4.693   0.213  13.526  0.0309 -0.0327  0.9290
 7738TIP3    H244706   4.841   0.217  13.497 -0.0122  1.3703  0.8279
 7739TIP3   OH244707   6.587   0.279  12.706  0.3395  0.6800  0.5881
 7739TIP3    H144708   6.568   0.281  12.613  0.2077  2.7323  0.5993
 7739TIP3    H244709   6.502   0.285  12.749  0.5068  1.9073  0.7807
 7740TIP3   OH244710   5.013   1.974   4.578 -0.7600  0.2399  0.3930
 7740TIP3    H144711   5.077   2.036   4.543  0.9034 -0.7410  1.5498
 7740TIP3    H244712   4.983   2.015   4.660  0.1223 -0.3096  1.0087
 7741TIP3   OH244713   3.614   3.445   1.938 -0.0524  0.0822 -0.4568
 7741TIP3    H144714   3.555   3.436   1.863 -1.0122 -0.6314  0.3638
 7741TIP3    H244715   3.558   3.473   2.010  0.5018 -1.0883  0.4718
 7742TIP3   OH244716   1.525   3.153   1.653  0.3138  0.3227  0.0004
 7742TIP3    H144717   1.563   3.179   1.736 -0.3293  0.7645  0.1677
 7742TIP3    H244718   1.434   3.183   1.658 -0.0881 -0.7714 -0.3507
 7743TIP3   OH244719   2.034   1.408  15.801  0.2601 -0.1000 -0.3145
 7743TIP3    H144720   1.953   1.404  15.752  0.0549  1.0803 -0.1069
 7743TIP3    H244721   2.046   1.501  15.820  0.9993 -0.3882  0.7465
 7744TIP3   OH244722   5.580   1.218  15.151 -0.3129  0.3601  0.1936
 7744TIP3    H144723   5.639   1.160  15.198 -0.0645  0.7458  0.3621
 7744TIP3    H244724   5.502   1.164  15.133  0.1028 -0.1598 -0.0744
 7745TIP3   OH244725   6.677   1.980  13.248  0.5907 -0.0095  0.6150
 7745TIP3    H144726   6.605   2.028  13.290  0.8256  0.2904  0.6827
 7745TIP3    H244727   6.751   1.992  13.308  0.8134  0.0504  0.3288
 7746TIP3   OH244728   6.502   2.114  14.461  0.6231 -0.3614  0.4141
 7746TIP3    H144729   6.537   2.096  14.373 -0.2314 -1.3936  0.2601
 7746TIP3    H244730   6.408   2.125  14.447  0.5735  0.1519  1.1161
 7747TIP3   OH244731   4.847   0.359   4.991 -0.1212  0.0897  0.2719
 7747TIP3    H144732   4.859   0.343   5.085  0.5962  2.0301  0.5588
 7747TIP3    H244733   4.838   0.271   4.953 -0.3530 -0.7459  2.1265
 7748TIP3   OH244734   4.299   6.011  15.730 -0.2342  0.4877 -0.0023
 7748TIP3    H144735   4.275   6.082  15.669  1.1658  0.9696 -0.0316
 7748TIP3    H244736   4.392   5.997  15.714 -0.5449 -1.5868 -0.1922
 7749TIP3   OH244737   1.371   3.127  10.568  0.1985  0.0402 -0.6243
 7749TIP3    H144738   1.321   3.062  10.519  1.4900 -0.8547 -0.8038
 7749TIP3    H244739   1.453   3.137  10.519  1.5279 -0.8627  1.2597
 7750TIP3   OH244740   2.701   0.634   0.028  0.8411  0.1050  0.0898
 7750TIP3    H144741   2.657   0.622   0.112  1.1520 -0.2009  0.2096
 7750TIP3    H244742   2.737   0.723   0.032  1.5688 -0.2036  0.6167
 7751TIP3   OH244743   2.830   3.988   5.422  0.1271 -0.0357  0.6134
 7751TIP3    H144744   2.810   4.073   5.383  1.3474  0.5293  1.1451
 7751TIP3    H244745   2.756   3.968   5.478 -0.7825  0.0388 -0.5396
 7752TIP3   OH244746   4.267   5.430  14.869  0.6501  0.0127  0.3935
 7752TIP3    H144747   4.203   5.366  14.902  0.4763  0.2822  0.5844
 7752TIP3    H244748   4.241   5.444  14.778  1.1232 -0.7231  0.1342
 7753TIP3   OH244749   6.664   4.528   3.745  0.2349  0.2170 -0.2818
 7753TIP3    H144750   6.682   4.436   3.764 -0.3456  0.3994  1.3517
 7753TIP3    H244751   6.725   4.576   3.802 -0.5655  0.8184  0.0866
 7754TIP3   OH244752   5.166   1.061   4.661  0.8151  0.3085  0.2853
 7754TIP3    H144753   5.120   1.057   4.576  1.3892 -0.0161 -0.0123
 7754TIP3    H244754   5.119   0.999   4.716 -0.5376  1.6274  0.7026
 7755TIP3   OH244755   6.802   4.332  17.204  0.4572 -0.0467  0.0709
 7755TIP3    H144756   6.790   4.267  17.135 -1.3841  1.1479 -0.8334
 7755TIP3    H244757   6.713   4.362  17.223  1.2332  2.1987  0.4342
 7756TIP3   OH244758   3.892   5.527   3.543  0.6767  0.0996  0.0914
 7756TIP3    H144759   3.970   5.582   3.552  0.7586  0.1260 -0.6767
 7756TIP3    H244760   3.879   5.489   3.630  2.4912 -1.1320 -0.1223
 7757TIP3   OH244761   1.065   5.334   0.896 -0.0047 -0.4330  0.2327
 7757TIP3    H144762   1.084   5.241   0.910 -0.1931 -0.4363  0.4805
 7757TIP3    H244763   1.028   5.338   0.808  2.3965 -0.2407 -0.8321
 7758TIP3   OH244764   2.866   6.276   2.470  0.5397  0.0582 -0.3192
 7758TIP3    H144765   2.783   6.280   2.422  1.1166 -2.0591 -1.6435
 7758TIP3    H244766   2.922   6.221   2.415  1.6079 -1.6246  2.3082
 7759TIP3   OH244767   3.630   5.593   3.294  0.1528 -0.0903  0.6224
 7759TIP3    H144768   3.536   5.596   3.273 -0.2145 -1.4752  1.8446
 7759TIP3    H244769   3.673   5.627   3.216 -1.3325 -0.1341 -0.2660
 7760TIP3   OH244770   1.990   3.236  12.337  0.2745 -0.3377 -0.1968
 7760TIP3    H144771   1.898   3.245  12.363  0.9788  2.4231  1.7866
 7760TIP3    H244772   2.009   3.143  12.347 -1.5397 -0.5331  2.2481
 7761TIP3   OH244773   4.725   5.661  12.097 -0.1235 -0.1574  0.2745
 7761TIP3    H144774   4.793   5.709  12.142  0.4038 -0.0095 -0.6510
 7761TIP3    H244775   4.682   5.609  12.165  1.1210 -0.4951  0.8200
 7762TIP3   OH244776   1.398   6.656   0.268  0.5150 -0.7808 -0.4137
 7762TIP3    H144777   1.391   6.683   0.177  1.2759 -0.5369 -0.4061
 7762TIP3    H244778   1.477   6.602   0.271 -0.3374 -2.0435 -0.1920
 7763TIP3   OH244779   6.004   0.901   6.678  0.0472  0.4721  0.0050
 7763TIP3    H144780   6.040   0.985   6.705 -0.8153  0.7391  0.3519
 7763TIP3    H244781   5.964   0.919   6.593 -0.3597  0.4705  0.1974
 7764TIP3   OH244782   4.219   6.050  12.533  0.1739 -0.0838  0.1700
 7764TIP3    H144783   4.173   5.974  12.498  2.1702 -0.4607 -1.9366
 7764TIP3    H244784   4.184   6.124  12.484 -1.2297  0.3267  1.6917
 7765TIP3   OH244785   4.298   5.574  12.906 -0.1861 -0.3334  0.0456
 7765TIP3    H144786   4.360   5.605  12.972 -1.5167  1.7384  0.4108
 7765TIP3    H244787   4.353   5.529  12.841  1.3383 -0.9672  1.6942
 7766TIP3   OH244788   6.384   0.095  16.730  0.7411 -0.0831 -0.2218
 7766TIP3    H144789   6.361   0.175  16.684  1.1479 -0.6222 -1.4226
 7766TIP3    H244790   6.350   0.025  16.674 -0.3495 -0.7442  1.2189
 7767TIP3   OH244791   4.603   5.107  12.900 -0.2799  0.6362 -0.0152
 7767TIP3    H144792   4.646   5.143  12.822  2.8558 -1.0256  0.8045
 7767TIP3    H244793   4.626   5.169  12.970 -0.1862  0.3324  0.2231
 7768TIP3   OH244794   1.053   1.360  12.645 -0.0413  0.0588  0.6491
 7768TIP3    H144795   0.980   1.310  12.680 -0.3411  0.1361  0.1523
 7768TIP3    H244796   1.018   1.401  12.565  0.8464 -0.7849 -0.2044
 7769TIP3   OH244797   1.742   2.265   4.364 -0.3437  0.4813  0.2984
 7769TIP3    H144798   1.732   2.238   4.455 -1.8899 -1.8488 -0.4832
 7769TIP3    H244799   1.772   2.356   4.369 -0.4368  0.4347  3.0977
 7770TIP3   OH244800   3.421   3.197  16.198  0.2177  0.4481  0.0542
 7770TIP3    H144801   3.352   3.262  16.215 -0.8006 -0.3698 -0.7792
 7770TIP3    H244802   3.386   3.144  16.126  1.1408 -0.8452  0.5201
 7771TIP3   OH244803   0.659   3.731  11.543  0.0812 -0.1529 -0.2253
 7771TIP3    H144804   0.658   3.744  11.637  0.2871 -0.6269 -0.1535
 7771TIP3    H244805   0.636   3.639  11.531 -0.6898  0.0803 -0.6778
 7772TIP3   OH244806   5.893   1.973   0.419 -0.0209 -0.1391  0.5059
 7772TIP3    H144807   5.914   1.887   0.382  0.5040  0.7151 -1.3349
 7772TIP3    H244808   5.907   2.034   0.346  0.0020  1.5576  1.8640
 7773TIP3   OH244809   1.245   1.043   4.343  0.5441  0.2019 -0.2015
 7773TIP3    H144810   1.233   0.948   4.338  2.6621 -0.1099 -0.2875
 7773TIP3    H244811   1.275   1.068   4.256  0.1283  0.9403 -0.1404
 7774TIP3   OH244812   2.678   6.663   1.848 -0.0943 -0.0644  0.3958
 7774TIP3    H144813   2.615   6.602   1.809 -1.1518  1.5134 -0.4437
 7774TIP3    H244814   2.628   6.711   1.914  0.1773  1.2842 -0.3468
 7775TIP3   OH244815   1.736   3.050  13.508  0.2496 -0.5176  0.4035
 7775TIP3    H144816   1.666   2.992  13.479  0.1728  0.7891 -2.4607
 7775TIP3    H244817   1.817   3.007  13.480  0.1985  0.5193 -1.5977
 7776TIP3   OH244818   0.738   4.998  13.484  0.2193 -0.3897  0.1423
 7776TIP3    H144819   0.778   4.912  13.481  0.0617 -0.4836  0.7332
 7776TIP3    H244820   0.812   5.059  13.474  0.3504 -0.5862 -0.0947
 7777TIP3   OH244821   0.245   4.672  16.755  0.0124 -0.8538  0.2582
 7777TIP3    H144822   0.212   4.670  16.845 -0.0822 -1.1935  0.2149
 7777TIP3    H244823   0.250   4.766  16.734 -3.5079 -0.7523 -0.6934
 7778TIP3   OH244824   0.172   1.854  15.991  0.8136  0.1217 -0.3460
 7778TIP3    H144825   0.233   1.924  15.969 -0.2134  0.6103 -1.8660
 7778TIP3    H244826   0.104   1.897  16.043  1.0025 -0.0999  0.0870
 7779TIP3   OH244827   3.427   6.016   3.518 -0.2246  0.1176  0.1318
 7779TIP3    H144828   3.337   5.993   3.542 -0.1222 -1.0890 -0.6093
 7779TIP3    H244829   3.419   6.104   3.481 -0.7402  1.0221  2.1912
 7780TIP3   OH244830   2.955   1.251  15.407  0.5093 -0.2859  0.1103
 7780TIP3    H144831   2.958   1.253  15.312 -0.0293 -0.0116  0.0990
 7780TIP3    H244832   3.028   1.193  15.432  0.6575 -0.3491 -0.4606
 7781TIP3   OH244833   3.353   6.750  10.861 -0.7935 -0.3153 -0.3064
 7781TIP3    H144834   3.259   6.741  10.880 -0.4701 -0.1437  1.5764
 7781TIP3    H244835   3.396   6.704  10.933  0.5925  1.0086 -0.2494
 7782TIP3   OH244836   6.410   6.196   4.038 -0.3289 -0.2449  0.3388
 7782TIP3    H144837   6.479   6.247   4.080 -1.8833  2.3745 -0.1256
 7782TIP3    H244838   6.434   6.194   3.945 -0.2494 -0.4271  0.3620
 7783TIP3   OH244839   1.901   2.701   0.572 -0.5194  0.2836 -0.1343
 7783TIP3    H144840   1.961   2.630   0.597  0.2828  1.1373  0.4405
 7783TIP3    H244841   1.949   2.750   0.506 -1.2755  0.0103 -0.8974
 7784TIP3   OH244842   6.437   0.238  13.841 -0.4401 -0.0270 -0.0876
 7784TIP3    H144843   6.504   0.202  13.782 -0.7271 -2.0159  0.7479
 7784TIP3    H244844   6.467   0.328  13.857  0.7380 -0.0865 -1.6102
 7785TIP3   OH244845   1.864   1.457  11.121 -0.4020  0.1854 -0.1079
 7785TIP3    H144846   1.831   1.528  11.066  1.2461  1.0653 -0.0204
 7785TIP3    H244847   1.888   1.499  11.203  1.1774 -0.3280 -0.2747
 7786TIP3   OH244848   4.759   2.928   0.553  0.4210 -0.4945  0.6868
 7786TIP3    H144849   4.664   2.941   0.558  0.5048 -0.3089  2.0124
 7786TIP3    H244850   4.796   2.998   0.607  1.2180 -1.6116  1.6275
 7787TIP3   OH244851   4.285   6.638  12.696 -0.0987  0.7592  0.1995
 7787TIP3    H144852   4.244   6.570  12.642  1.0957 -1.9625  2.4920
 7787TIP3    H244853   4.213   6.675  12.747 -0.3151 -1.4223  1.5678
 7788TIP3   OH244854   1.577   1.484   0.747  0.6140 -0.0576  0.0116
 7788TIP3    H144855   1.569   1.490   0.651 -0.9473  0.5911  0.1529
 7788TIP3    H244856   1.487   1.489   0.778  1.1982  1.2606  1.6096
 7789TIP3   OH244857   6.165   4.490   2.698 -0.1274 -0.0424  0.1961
 7789TIP3    H144858   6.119   4.483   2.782  2.1381 -2.1763  1.4190
 7789TIP3    H244859   6.171   4.584   2.681 -1.4131  0.4158  1.9840
 7790TIP3   OH244860   6.242   2.636  15.748  0.6375  0.4482 -0.2079
 7790TIP3    H144861   6.293   2.594  15.818  1.3722  0.0758 -0.9535
 7790TIP3    H244862   6.290   2.716  15.728  0.5797  0.4165 -0.4760
 7791TIP3   OH244863   6.070   5.098  13.805 -0.5197 -0.0829  0.2202
 7791TIP3    H144864   6.016   5.049  13.868 -1.0456 -1.3253 -1.1226
 7791TIP3    H244865   6.156   5.057  13.812 -0.5177 -0.0688  0.2857
 7792TIP3   OH244866   4.351   5.107   2.075 -0.1444  0.1147  0.0699
 7792TIP3    H144867   4.263   5.094   2.109 -0.1006  0.1849  0.2135
 7792TIP3    H244868   4.406   5.115   2.154  0.4031 -2.4825  0.0614
 7793TIP3   OH244869   1.422   6.777  11.437 -0.3865 -0.3231 -0.2175
 7793TIP3    H144870   1.446   6.861  11.398 -1.9010  0.7037  0.9530
 7793TIP3    H244871   1.411   6.796  11.530 -1.6181 -1.6172 -0.0559
 7794TIP3   OH244872   3.280   1.057   1.827 -0.0361 -0.0865 -0.3511
 7794TIP3    H144873   3.228   1.135   1.806  0.7092  0.4957 -0.0737
 7794TIP3    H244874   3.270   1.046   1.921  0.4256  0.0938 -0.2785
 7795TIP3   OH244875   3.475   1.393  14.882 -0.8527  0.1052  0.3013
 7795TIP3    H144876   3.471   1.344  14.801 -0.4742 -1.2694  1.0794
 7795TIP3    H244877   3.396   1.449  14.881 -1.9829 -1.4328 -0.0530
 7796TIP3   OH244878   3.587   1.387   0.981  0.1044  0.2711 -0.4000
 7796TIP3    H144879   3.496   1.410   0.995 -0.2041 -0.9182 -0.3344
 7796TIP3    H244880   3.603   1.314   1.041  1.8122  2.0264  1.4594
 7797TIP3   OH244881   4.505   4.393   0.377 -0.1303  0.3374 -0.3246
 7797TIP3    H144882   4.451   4.460   0.418  0.3186  1.1251 -0.9895
 7797TIP3    H244883   4.591   4.433   0.368  0.7255 -1.0441  1.1045
 7798TIP3   OH244884   0.417   5.940   1.070  0.3176 -0.0043 -0.3916
 7798TIP3    H144885   0.365   5.982   1.002 -0.7733 -0.3869  0.1789
 7798TIP3    H244886   0.357   5.876   1.109  1.5628 -1.2627 -0.4649
 7799TIP3   OH244887   1.971   6.467   0.268  0.1723  0.1467  0.4691
 7799TIP3    H144888   1.915   6.437   0.196 -1.4424 -1.2903  2.2088
 7799TIP3    H244889   1.937   6.554   0.289  2.1945  1.6712 -1.9095
 7800TIP3   OH244890   3.571   1.180  13.574 -0.2226 -0.5473 -0.5178
 7800TIP3    H144891   3.537   1.166  13.486 -4.5464  1.0272  0.6118
 7800TIP3    H244892   3.529   1.113  13.627  0.4279 -0.0467  0.6721
 7801TIP3   OH244893   4.034   5.600  14.319  0.5363  0.4542  0.1555
 7801TIP3    H144894   4.014   5.594  14.413 -1.4042  1.4770 -0.1452
 7801TIP3    H244895   4.087   5.680  14.312  0.0240  0.8108  0.2906
 7802TIP3   OH244896   6.576   3.946   5.878 -0.0444 -0.1816 -0.3358
 7802TIP3    H144897   6.566   3.919   5.969  1.8734  0.2292  0.0333
 7802TIP3    H244898   6.587   3.865   5.829  0.5236 -0.3289  0.0319
 7803TIP3   OH244899   0.459   5.384  16.267 -0.2053  0.5508  0.2393
 7803TIP3    H144900   0.544   5.427  16.259 -0.9255  1.9100 -0.4842
 7803TIP3    H244901   0.421   5.420  16.347 -0.8851  1.4113 -0.4607
 7804TIP3   OH244902   3.129   6.648  11.012  0.4627 -0.5619 -0.1063
 7804TIP3    H144903   3.064   6.578  11.007 -1.1098  0.7711  0.6234
 7804TIP3    H244904   3.150   6.654  11.105 -1.8128  1.9263  0.3601
 7805TIP3   OH244905   5.795   0.950   2.183  0.5123  0.0118 -0.0535
 7805TIP3    H144906   5.806   0.897   2.261  0.9638 -0.0609 -0.1658
 7805TIP3    H244907   5.786   0.887   2.111 -1.0591  0.0534  0.0767
 7806TIP3   OH244908   4.041   2.024   2.770  0.6605 -0.7757  0.2443
 7806TIP3    H144909   3.986   2.057   2.840  0.0874 -0.3431 -0.3932
 7806TIP3    H244910   4.127   2.063   2.787 -0.0293  1.2390 -0.5652
 7807TIP3   OH244911   4.329   0.334  13.971  0.2772 -0.0632 -0.3127
 7807TIP3    H144912   4.265   0.296  13.911  0.6546  0.1307 -0.8481
 7807TIP3    H244913   4.342   0.266  14.038  0.5449 -0.6687 -0.9671
 7808TIP3   OH244914   2.821   2.568  11.257 -0.5382 -0.2164 -0.5461
 7808TIP3    H144915   2.837   2.473  11.263  0.7312 -0.1600 -2.1161
 7808TIP3    H244916   2.890   2.599  11.198 -0.7860  1.7424  0.1513
 7809TIP3   OH244917   4.853   3.024   1.558 -0.0505 -0.4707  0.2705
 7809TIP3    H144918   4.782   3.054   1.502  0.3492  0.1335  0.0798
 7809TIP3    H244919   4.930   3.073   1.528  0.5451 -1.4380  0.1727
 7810TIP3   OH244920   1.075   5.341   1.455  0.2366 -0.4301 -0.1162
 7810TIP3    H144921   1.032   5.406   1.399  0.3446 -0.3587 -0.1176
 7810TIP3    H244922   1.169   5.352   1.437  0.2710 -0.4194  0.0642
 7811TIP3   OH244923   5.236   4.495  14.085  0.0060  0.2739 -0.6581
 7811TIP3    H144924   5.216   4.558  14.154  2.2914  0.3024  0.0821
 7811TIP3    H244925   5.188   4.416  14.108  0.8172  0.2464  1.0695
 7812TIP3   OH244926   4.532   6.524   1.615  0.0924 -0.2576  0.2309
 7812TIP3    H144927   4.481   6.601   1.642  0.7260  0.1241  0.3863
 7812TIP3    H244928   4.539   6.532   1.520 -1.6784 -1.3069 -0.0106
 7813TIP3   OH244929   3.406   2.749   0.150  0.0879  0.5919 -0.2375
 7813TIP3    H144930   3.447   2.662   0.147  0.9115  0.9535  0.0872
 7813TIP3    H244931   3.373   2.763   0.061 -0.5328 -0.2735 -0.1546
 7814TIP3   OH244932   6.576   4.524  15.873 -0.1182 -0.1709 -0.1167
 7814TIP3    H144933   6.536   4.563  15.796  2.9020 -0.2796 -1.9360
 7814TIP3    H244934   6.536   4.438  15.881 -1.9274  0.6284 -0.2610
 7815TIP3   OH244935   0.604   5.288   5.064 -0.5534  0.1188 -0.0945
 7815TIP3    H144936   0.629   5.379   5.076 -0.0099  0.2718 -2.1108
 7815TIP3    H244937   0.686   5.239   5.069 -0.5880 -0.0373 -0.9463
 7816TIP3   OH244938   5.242   1.894  14.427 -0.6474  0.0032  0.3280
 7816TIP3    H144939   5.150   1.901  14.403 -0.7975 -1.6197  0.2641
 7816TIP3    H244940   5.242   1.875  14.521 -0.3654  0.3623  0.4019
 7817TIP3   OH244941   3.110   0.111  16.992  0.0159 -0.1527 -0.0413
 7817TIP3    H144942   3.140   0.174  17.057 -0.8238 -0.0798  0.2828
 7817TIP3    H244943   3.025   0.143  16.964  0.6579  0.2150 -1.7218
 7818TIP3   OH244944   3.730   6.480   0.196  0.1304 -0.1755 -0.1892
 7818TIP3    H144945   3.822   6.451   0.193  0.8571  1.8079  0.6983
 7818TIP3    H244946   3.721   6.521   0.282 -1.0090  1.3937 -0.9965
 7819TIP3   OH244947   0.902   4.714   6.396 -0.0922  0.3980  0.3281
 7819TIP3    H144948   0.806   4.717   6.399 -0.2039 -1.5396  0.4446
 7819TIP3    H244949   0.927   4.676   6.480  0.4504 -2.6725 -1.0608
 7820TIP3   OH244950   0.885   0.439   0.673  0.9832  0.7945 -0.1947
 7820TIP3    H144951   0.872   0.435   0.578  0.6731 -1.1242 -0.0970
 7820TIP3    H244952   0.806   0.400   0.710  2.2693 -1.0192  0.7588
 7821TIP3   OH244953   1.250   4.495  13.062  0.2796 -0.7288  0.1085
 7821TIP3    H144954   1.322   4.449  13.018  0.3210 -2.1083  1.5382
 7821TIP3    H244955   1.287   4.527  13.144 -0.0541  0.9629 -0.3604
 7822TIP3   OH244956   3.423   1.100   3.220 -0.3837 -0.5933 -0.4800
 7822TIP3    H144957   3.473   1.121   3.142  0.0214  0.6685  0.0901
 7822TIP3    H244958   3.459   1.016   3.250 -0.1227 -0.7763 -1.2921
 7823TIP3   OH244959   1.701   0.788   1.180 -0.5092 -0.0596 -0.4660
 7823TIP3    H144960   1.657   0.704   1.194  0.9043 -0.6082  1.1295
 7823TIP3    H244961   1.714   0.793   1.085 -0.4224 -1.7824 -0.5816
 7824TIP3   OH244962   4.162   4.310  11.358 -0.2738  0.3243 -0.6192
 7824TIP3    H144963   4.111   4.252  11.304  1.8861 -0.2135 -2.2240
 7824TIP3    H244964   4.192   4.256  11.431  1.1842 -0.4745 -1.7597
 7825TIP3   OH244965   2.607   3.914   3.527 -0.1852  0.0692 -0.4945
 7825TIP3    H144966   2.679   3.975   3.545 -0.5206  0.1797  0.5633
 7825TIP3    H244967   2.556   3.958   3.459  0.3781  0.2995 -0.7781
 7826TIP3   OH244968   4.154   6.073  16.943  0.0824 -0.2134  0.0335
 7826TIP3    H144969   4.073   6.029  16.917  0.1087  0.9951 -2.3646
 7826TIP3    H244970   4.219   6.041  16.881  0.7775  0.9835  0.1281
 7827TIP3   OH244971   6.342   2.453   0.546  0.1195  0.3553  0.1050
 7827TIP3    H144972   6.347   2.501   0.629 -0.0731  1.2821 -0.4142
 7827TIP3    H244973   6.263   2.399   0.554 -1.0692  1.9623 -0.2508
 7828TIP3   OH244974   2.320   6.402   4.687 -0.2665  0.2492 -0.0744
 7828TIP3    H144975   2.264   6.344   4.636  0.5275 -0.4179 -0.1939
 7828TIP3    H244976   2.317   6.367   4.776  1.9146 -1.3211 -0.5458
 7829TIP3   OH244977   2.707   3.966   0.806 -0.5830 -0.0316 -0.3660
 7829TIP3    H144978   2.764   3.940   0.734  0.5205  1.3241 -0.0233
 7829TIP3    H244979   2.754   3.938   0.885 -0.5989  0.7069 -0.0935
 7830TIP3   OH244980   5.855   5.767  12.119 -0.7718 -0.3180  0.2300
 7830TIP3    H144981   5.941   5.807  12.133 -0.4688 -0.9091  0.0390
 7830TIP3    H244982   5.837   5.781  12.026 -1.3326  0.6804  0.4620
 7831TIP3   OH244983   0.057   2.602   0.818 -0.4847  0.2564 -0.0941
 7831TIP3    H144984   0.030   2.640   0.902  0.2425 -1.5658  1.0348
 7831TIP3    H244985   0.126   2.660   0.786 -0.5148  0.7747  0.7531
 7832TIP3   OH244986   0.595   2.453   3.659  0.4438 -0.2032  0.2079
 7832TIP3    H144987   0.653   2.527   3.677  0.3090  0.5337 -2.0335
 7832TIP3    H244988   0.588   2.451   3.564 -1.5795 -1.5465  0.3219
 7833TIP3   OH244989   5.362   0.348   4.409 -0.1705 -0.2731  0.6653
 7833TIP3    H144990   5.455   0.359   4.391  0.0295 -3.3095 -0.9418
 7833TIP3    H244991   5.358   0.268   4.461 -1.9158 -1.3158 -0.9364
 7834TIP3   OH244992   2.969   6.737   0.455  0.1358  0.2700 -0.3649
 7834TIP3    H144993   3.024   6.812   0.477  1.1116 -0.4792 -0.1688
 7834TIP3    H244994   2.912   6.727   0.531  2.5353 -1.4285  1.3955
 7835TIP3   OH244995   3.647   5.121   0.900  0.0839  0.6865  0.0875
 7835TIP3    H144996   3.614   5.211   0.907  2.4427  1.5488  1.0426
 7835TIP3    H244997   3.690   5.118   0.815 -0.2099  0.3728 -0.0521
 7836TIP3   OH244998   2.542   3.697   2.009  0.2397 -0.2697  0.3274
 7836TIP3    H144999   2.635   3.690   1.989  0.0026  0.0430 -0.9874
 7836TIP3    H245000   2.515   3.780   1.970 -1.6160 -2.5743 -3.9443
 7837TIP3   OH245001   5.238   6.454  13.134  0.1411  0.3429 -0.7659
 7837TIP3    H145002   5.259   6.408  13.216 -0.9510 -2.0569 -1.7412
 7837TIP3    H245003   5.312   6.435  13.076 -0.3864 -0.3901 -1.2224
 7838TIP3   OH245004   4.669   1.194   3.004 -0.1157 -0.0559  0.0229
 7838TIP3    H145005   4.693   1.282   3.036  0.2183 -0.1969  0.1657
 7838TIP3    H245006   4.574   1.197   2.995 -0.2669 -0.1328  1.4196
 7839TIP3   OH245007   5.943   3.910  17.132 -0.3490 -0.1457  0.3712
 7839TIP3    H145008   5.974   4.000  17.138 -0.2522 -0.0878 -0.8469
 7839TIP3    H245009   5.988   3.865  17.204  1.0846  0.3766 -0.1536
 7840TIP3   OH245010   3.914   0.623  15.877  0.5401 -0.7251  0.0443
 7840TIP3    H145011   3.975   0.609  15.804 -0.9703 -1.1330 -1.2004
 7840TIP3    H245012   3.847   0.556  15.865 -1.1279  0.8178  0.2630
 7841TIP3   OH245013   1.449   2.316   0.996 -0.1257 -0.0969  0.2850
 7841TIP3    H145014   1.378   2.339   1.056 -0.0812  0.2910  0.1950
 7841TIP3    H245015   1.526   2.358   1.033 -0.1505  0.3766 -0.1870
 7842TIP3   OH245016   1.653   0.236   6.523  0.5974  0.1244 -0.3027
 7842TIP3    H145017   1.670   0.236   6.429  2.1974 -1.9622 -0.0884
 7842TIP3    H245018   1.651   0.143   6.547  0.5066  0.6049  1.7723
 7843TIP3   OH245019   0.359   0.641   4.650 -0.0838  0.3773 -0.3523
 7843TIP3    H145020   0.397   0.651   4.562  1.5408  0.8440  0.3670
 7843TIP3    H245021   0.365   0.728   4.689  3.2684 -0.5744  1.7273
 7844TIP3   OH245022   3.517   6.589   4.705 -0.2433  0.1505 -0.2276
 7844TIP3    H145023   3.545   6.677   4.728 -2.3951  1.1359 -1.1584
 7844TIP3    H245024   3.598   6.539   4.699  0.9798  1.8684  1.0159
 7845TIP3   OH245025   2.580   1.630  15.064 -0.4103  0.1452 -0.3239
 7845TIP3    H145026   2.636   1.571  15.113 -0.3877 -0.2159 -0.7745
 7845TIP3    H245027   2.639   1.675  15.003 -0.2095  1.5910  0.8853
 7846TIP3   OH245028   2.149   0.167  14.383 -0.0147 -0.4775  0.4280
 7846TIP3    H145029   2.106   0.249  14.358  1.2591 -0.0008 -0.2858
 7846TIP3    H245030   2.229   0.194  14.428 -0.2162 -1.3460  1.3312
 7847TIP3   OH245031   4.489   4.904  14.800 -0.4013  0.0666  0.1730
 7847TIP3    H145032   4.428   4.884  14.871 -0.5174 -0.3545 -0.0434
 7847TIP3    H245033   4.459   4.850  14.726 -1.1078  1.5074 -0.6280
 7848TIP3   OH245034   4.859   4.200  12.361  0.2750  0.4460 -0.5646
 7848TIP3    H145035   4.845   4.294  12.353  0.4317  1.5167  5.9078
 7848TIP3    H245036   4.954   4.189  12.358  0.2559  0.4232 -1.3349
 7849TIP3   OH245037   4.661   3.171   1.389 -0.4631 -0.4438  0.4092
 7849TIP3    H145038   4.612   3.135   1.315 -3.2543 -1.1760  2.4459
 7849TIP3    H245039   4.669   3.264   1.369 -1.1955 -0.6170 -0.7837
 7850TIP3   OH245040   6.586   1.551  10.779 -0.5516  0.2620  0.1704
 7850TIP3    H145041   6.540   1.619  10.730  0.2353 -0.7089 -2.0312
 7850TIP3    H245042   6.568   1.572  10.871 -1.0064  2.9481 -0.4358
 7851TIP3   OH245043   1.303   1.467  13.352  0.4325  0.1681  0.3414
 7851TIP3    H145044   1.256   1.401  13.403 -0.3214  1.0932  0.8808
 7851TIP3    H245045   1.253   1.547  13.364 -0.5315  0.1894 -2.9241
 7852TIP3   OH245046   6.661   4.885   2.922  0.1203  0.5318 -0.2052
 7852TIP3    H145047   6.614   4.859   3.002  1.2290 -1.0784 -0.0199
 7852TIP3    H245048   6.749   4.850   2.934  0.2817  0.1498 -2.1763
 7853TIP3   OH245049   2.619   1.410   1.991 -0.3772 -0.1561 -0.2034
 7853TIP3    H145050   2.625   1.327   1.943 -0.4527 -0.1205 -0.2728
 7853TIP3    H245051   2.573   1.469   1.932  1.8145  0.6889 -1.1883
 7854TIP3   OH245052   5.726   6.409  15.723  0.1812  0.3968  0.3660
 7854TIP3    H145053   5.734   6.320  15.758  1.8476  0.0062 -0.8827
 7854TIP3    H245054   5.806   6.453  15.751  0.7117  0.6106 -1.3566
 7855TIP3   OH245055   3.078   0.319  14.737 -0.4546  0.1678 -0.1678
 7855TIP3    H145056   3.147   0.299  14.673 -0.4026  1.8002 -0.6709
 7855TIP3    H245057   3.120   0.304  14.822  0.1561  0.0107 -0.4874
 7856TIP3   OH245058   3.172   0.195  14.127  0.6679  0.1598 -0.3192
 7856TIP3    H145059   3.235   0.123  14.131  1.7628  0.9762 -1.8337
 7856TIP3    H245060   3.088   0.152  14.114  1.0512 -0.8974  0.4865
 7857TIP3   OH245061   3.743   5.695  15.308  0.7970  0.1054 -0.1479
 7857TIP3    H145062   3.714   5.704  15.399  0.3395 -0.0598 -0.2759
 7857TIP3    H245063   3.755   5.601  15.296 -1.4049 -0.1227 -0.9383
 7858TIP3   OH245064   4.366   2.495  16.472  0.5064  0.2491 -0.0756
 7858TIP3    H145065   4.277   2.487  16.507  1.0109 -0.8472  1.0374
 7858TIP3    H245066   4.390   2.586  16.489 -0.6704  0.7836 -1.1069
 7859TIP3   OH245067   5.420   0.151   3.704 -0.0293  0.1021  0.3848
 7859TIP3    H145068   5.438   0.060   3.727  0.2703  0.4302  1.5263
 7859TIP3    H245069   5.478   0.169   3.630  0.7267 -0.3138  0.8612
 7860TIP3   OH245070   0.281   6.740  16.571  0.3168 -0.6893 -0.1159
 7860TIP3    H145071   0.221   6.708  16.504 -0.5465  0.0316  0.2964
 7860TIP3    H245072   0.250   6.828  16.591 -0.0223 -1.1942  1.8848
 7861TIP3   OH245073   3.497   4.880  14.836  0.5203 -0.3557  0.2375
 7861TIP3    H145074   3.559   4.940  14.794 -0.1469 -0.1643 -0.5071
 7861TIP3    H245075   3.552   4.813  14.877  1.2219 -0.3035 -0.5860
 7862TIP3   OH245076   1.134   4.614  16.340 -0.1182  0.6535 -0.1477
 7862TIP3    H145077   1.086   4.560  16.403 -2.5569  1.9166 -0.7935
 7862TIP3    H245078   1.126   4.567  16.257  1.2483  0.0591  0.0273
 7863TIP3   OH245079   4.167   0.166  13.782 -0.1544  0.6324  0.0023
 7863TIP3    H145080   4.173   0.182  13.688 -0.7601 -0.8902 -0.3394
 7863TIP3    H245081   4.078   0.131  13.794 -0.0285  0.6627  1.1172
 7864TIP3   OH245082   3.618   1.357  12.147 -0.4716 -0.3684  0.1262
 7864TIP3    H145083   3.642   1.293  12.213 -1.5117 -0.8694  0.0458
 7864TIP3    H245084   3.633   1.313  12.063 -0.1873 -0.1241  0.0452
 7865TIP3   OH245085   5.140   3.540   2.785  0.0949 -0.0718  0.4404
 7865TIP3    H145086   5.146   3.634   2.806  0.3153  0.0702 -0.2592
 7865TIP3    H245087   5.095   3.502   2.861  0.7822  0.4568  1.1366
 7866TIP3   OH245088   0.593   0.902  17.212 -0.0231 -0.5271  0.2294
 7866TIP3    H145089   0.501   0.917  17.234  0.1097  1.3508 -0.2943
 7866TIP3    H245090   0.640   0.920  17.294 -0.0857 -0.9867  0.3651
 7867TIP3   OH245091   2.784   0.534   1.051  0.8363 -0.0210  0.3854
 7867TIP3    H145092   2.836   0.467   1.007 -0.3495  0.3192 -1.6602
 7867TIP3    H245093   2.822   0.617   1.023 -1.2665  0.2661 -1.9306
 7868TIP3   OH245094   5.951   5.245  13.574  0.1104 -0.7083 -0.1566
 7868TIP3    H145095   5.994   5.197  13.645  0.2946 -0.2479  0.0445
 7868TIP3    H245096   5.865   5.268  13.608  0.5016  0.2366  0.2369
 7869TIP3   OH245097   5.242   4.806   0.251 -0.2450  0.0020  0.2303
 7869TIP3    H145098   5.261   4.720   0.287  0.0133 -0.5850 -1.2179
 7869TIP3    H245099   5.327   4.841   0.224 -0.0278  1.6934  2.7470
 7870TIP3   OH245100   1.376   6.502   1.723 -0.0510  0.0559  0.4324
 7870TIP3    H145101   1.315   6.560   1.768 -0.0494 -0.5789  1.2601
 7870TIP3    H245102   1.352   6.509   1.630  0.2042  1.6727  0.4611
 7871TIP3   OH245103   4.846   0.002  15.128  0.4311 -0.2972  0.3135
 7871TIP3    H145104   4.914  -0.018  15.192 -0.2589  2.0263  1.8956
 7871TIP3    H245105   4.785   0.060  15.174  0.5451  2.5483 -2.7510
 7872TIP3   OH245106   1.839   0.086   3.544  0.2686  0.3211  0.0211
 7872TIP3    H145107   1.826  -0.003   3.511 -1.0391  1.3295 -2.4368
 7872TIP3    H245108   1.765   0.136   3.509  1.4147  2.5635  0.6137
 7873TIP3   OH245109   3.449   4.148   2.180 -0.5670  0.7551  0.5068
 7873TIP3    H145110   3.459   4.232   2.135  1.4914  0.8006  0.9316
 7873TIP3    H245111   3.402   4.169   2.260 -3.1927  0.8750 -0.9680
 7874TIP3   OH245112   1.105   3.395  15.405 -0.0079  0.1853 -0.5404
 7874TIP3    H145113   1.163   3.421  15.476 -0.7675  0.2410  0.0753
 7874TIP3    H245114   1.105   3.300  15.407 -1.1527  0.1841  0.4955
 7875TIP3   OH245115   4.854   3.275  11.903 -0.3985  0.4580 -0.1412
 7875TIP3    H145116   4.841   3.258  11.997  0.5277  1.1316  0.1191
 7875TIP3    H245117   4.814   3.360  11.888  2.7880  2.2162  0.5177
 7876TIP3   OH245118   5.624   2.716  15.427  0.8017  0.1053  0.7119
 7876TIP3    H145119   5.695   2.670  15.382  1.2093  0.1249  1.3224
 7876TIP3    H245120   5.571   2.752  15.357  0.7198 -0.9280  0.2260
 7877TIP3   OH245121   3.739   1.655  11.638  0.0009  0.5397 -0.0790
 7877TIP3    H145122   3.805   1.668  11.706 -1.1895  1.5057  0.9476
 7877TIP3    H245123   3.706   1.743  11.619 -1.7184 -0.0125  0.1968
 7878TIP3   OH245124   2.318   0.458   3.640  1.0833 -0.7701 -0.5863
 7878TIP3    H145125   2.303   0.472   3.546 -2.4254 -2.5790 -0.4663
 7878TIP3    H245126   2.291   0.367   3.655 -0.4375  0.0719  2.5206
 7879TIP3   OH245127   6.124   5.760  15.098 -0.0882  0.2296 -0.0299
 7879TIP3    H145128   6.137   5.821  15.171  0.6151 -1.2347  1.1188
 7879TIP3    H245129   6.031   5.771  15.076 -0.1039  1.3518  0.4636
 7880TIP3   OH245130   6.373   3.819  11.409 -0.9565 -0.3736  0.7415
 7880TIP3    H145131   6.348   3.729  11.432 -0.8612 -0.6265 -0.0901
 7880TIP3    H245132   6.344   3.872  11.483 -0.4388 -1.1714  1.5353
 7881TIP3   OH245133   5.049   0.037  17.005  0.2460 -0.5147  0.7314
 7881TIP3    H145134   5.125   0.064  16.955 -0.8987 -0.9588 -1.3486
 7881TIP3    H245135   5.053  -0.059  17.005  0.1603 -0.5263  1.4167
 7882TIP3   OH245136   5.656   1.152  12.262 -0.1164  0.3558 -0.1944
 7882TIP3    H145137   5.593   1.221  12.240  0.0470  0.0329 -1.8181
 7882TIP3    H245138   5.732   1.200  12.297 -0.0118  1.0178 -1.2812
 7883TIP3   OH245139   0.161   6.562  11.014 -0.0708  0.2599  0.4179
 7883TIP3    H145140   0.241   6.581  11.062 -0.0494 -0.4126  0.6533
 7883TIP3    H245141   0.191   6.525  10.931 -0.1115  1.2786 -0.0695
 7884TIP3   OH245142   6.556   3.402  14.172  0.4412 -0.2133 -0.2915
 7884TIP3    H145143   6.472   3.361  14.191  1.0819 -1.4530 -0.0496
 7884TIP3    H245144   6.558   3.479  14.230 -0.6866  0.0686 -0.6047
 7885TIP3   OH245145   5.275   5.974   4.071 -0.4755 -0.5449 -0.0934
 7885TIP3    H145146   5.287   5.989   4.165  1.6669  2.4813 -0.7237
 7885TIP3    H245147   5.347   5.916   4.047  0.5884  0.7945 -0.2566
 7886TIP3   OH245148   0.016   1.258  14.039 -0.6610  0.5444  0.0890
 7886TIP3    H145149  -0.035   1.178  14.035 -2.1331  1.5265 -2.3817
 7886TIP3    H245150   0.024   1.277  14.133 -0.1660 -2.4764  0.7408
 7887TIP3   OH245151   3.950   4.300   3.492 -0.3865 -0.1465  0.6028
 7887TIP3    H145152   4.009   4.255   3.553 -1.3460 -0.1896  1.5454
 7887TIP3    H245153   3.948   4.244   3.415  1.3456  0.2264  0.2452
 7888TIP3   OH245154   4.347   2.253  14.893  0.1199  0.0962 -0.2917
 7888TIP3    H145155   4.296   2.308  14.834  0.0537  0.7898  0.3922
 7888TIP3    H245156   4.282   2.207  14.946  0.1447 -1.5132 -1.6016
 7889TIP3   OH245157   4.260   2.777  10.920  0.2068 -0.0731  0.1212
 7889TIP3    H145158   4.260   2.784  10.824  1.4367  2.5945  0.2250
 7889TIP3    H245159   4.168   2.792  10.945 -0.1489 -0.9207 -0.6108
 7890TIP3   OH245160   4.408   3.196   1.108  0.1350  0.2961 -0.0228
 7890TIP3    H145161   4.359   3.219   1.187 -0.3981  1.2689 -0.6146
 7890TIP3    H245162   4.367   3.247   1.039  2.5642  1.9098 -0.4082
 7891TIP3   OH245163   0.843   1.645   5.771 -0.1038  0.0772 -0.0481
 7891TIP3    H145164   0.833   1.560   5.814  0.4459  1.6021  3.3641
 7891TIP3    H245165   0.763   1.693   5.795 -0.0501  0.8233 -1.2806
 7892TIP3   OH245166   1.848   4.533  14.060 -0.2991  0.3755 -0.0485
 7892TIP3    H145167   1.788   4.472  14.102 -0.5821  1.5911  1.4226
 7892TIP3    H245168   1.927   4.482  14.043 -1.2547 -0.9039 -0.8007
 7893TIP3   OH245169   4.040   0.153   2.618  0.0872  0.0051 -0.0896
 7893TIP3    H145170   4.037   0.079   2.678 -2.8425  1.1219  1.4064
 7893TIP3    H245171   4.092   0.219   2.664  0.4382 -0.2124 -0.1795
 7894TIP3   OH245172   3.925   2.609   3.684  0.0460 -0.0554 -0.3833
 7894TIP3    H145173   3.916   2.679   3.620 -1.7435  0.5759  0.4861
 7894TIP3    H245174   3.942   2.530   3.632  1.5572  0.8957 -1.4068
 7895TIP3   OH245175   1.738   6.500   0.130 -0.3817  0.1044 -0.4417
 7895TIP3    H145176   1.710   6.556   0.057  2.6599  0.7898 -1.2506
 7895TIP3    H245177   1.720   6.552   0.208  0.4212  1.3691 -1.0522
 7896TIP3   OH245178   1.198   6.440  15.077  0.2320  0.1257  0.1199
 7896TIP3    H145179   1.108   6.438  15.045 -0.1568  1.1549  1.0678
 7896TIP3    H245180   1.251   6.424  15.000 -0.7216  0.7470 -0.6975
 7897TIP3   OH245181   1.416   3.725   2.179 -0.4759 -0.2716 -0.2062
 7897TIP3    H145182   1.350   3.715   2.110  1.0478 -0.7081 -1.6863
 7897TIP3    H245183   1.439   3.818   2.177 -0.0542 -0.3771 -0.6987
 7898TIP3   OH245184   3.604   2.722  11.171  0.2222 -0.1750  0.0828
 7898TIP3    H145185   3.580   2.794  11.229  0.1964  0.3236 -0.5314
 7898TIP3    H245186   3.526   2.667  11.168  0.1478 -0.0861  0.3446
 7899TIP3   OH245187   5.104   6.482  15.059  0.3886  0.1574  0.1393
 7899TIP3    H145188   5.123   6.445  15.145 -0.1668 -0.1397  0.1342
 7899TIP3    H245189   5.067   6.410  15.009 -0.2269  0.5855 -0.0345
 7900TIP3   OH245190   4.837   3.722  14.739 -0.6722  0.2631  0.2183
 7900TIP3    H145191   4.755   3.769  14.755  0.1201  1.1878  1.8290
 7900TIP3    H245192   4.858   3.682  14.824  0.4858 -0.0652 -0.2064
 7901TIP3   OH245193   2.328   4.449  15.976  0.2754  0.2838  0.2313
 7901TIP3    H145194   2.391   4.382  16.003  1.3464  1.0427 -0.2796
 7901TIP3    H245195   2.247   4.426  16.021  1.1967 -0.1326  1.7495
 7902TIP3   OH245196   3.938   2.387  14.441 -0.4334 -0.0525  0.4427
 7902TIP3    H145197   4.022   2.410  14.480 -0.1741 -0.1033 -0.0785
 7902TIP3    H245198   3.887   2.469  14.444  0.5301  0.6835 -1.5208
 7903TIP3   OH245199   3.951   2.149   2.229 -0.4153  0.1961 -0.1098
 7903TIP3    H145200   3.865   2.111   2.212  0.4008 -2.4223  0.9764
 7903TIP3    H245201   3.934   2.224   2.285 -2.0740  0.6100 -1.1115
 7904TIP3   OH245202   4.823   4.078  14.424 -0.3825 -1.0270 -0.1891
 7904TIP3    H145203   4.729   4.090  14.438 -0.0835 -1.5387  2.8150
 7904TIP3    H245204   4.865   4.143  14.480  1.1121 -0.8982 -1.3703
 7905TIP3   OH245205   0.615   2.929  10.801 -0.1375  0.9108  0.4211
 7905TIP3    H145206   0.634   2.838  10.819 -1.1649 -0.2633 -3.3828
 7905TIP3    H245207   0.701   2.970  10.789  0.3044 -0.0183  0.3455
 7906TIP3   OH245208   6.578   2.988   2.183 -0.2291  0.2896  0.6315
 7906TIP3    H145209   6.494   2.996   2.229 -0.5195 -1.3253  0.4508
 7906TIP3    H245210   6.592   3.073   2.144 -2.7666  0.0881 -0.9858
 7907TIP3   OH245211   2.970   6.639   1.221  0.3417 -0.0569 -0.3738
 7907TIP3    H145212   2.933   6.678   1.300  0.5167 -1.1717  0.2826
 7907TIP3    H245213   2.894   6.605   1.173  0.4192 -1.9201  0.7388
 7908TIP3   OH245214   4.004   1.861  12.923 -0.1584 -0.5936  0.6522
 7908TIP3    H145215   4.005   1.823  12.835 -0.5678  2.1609 -0.6424
 7908TIP3    H245216   3.986   1.954  12.909 -0.4893 -0.0988  3.6938
 7909TIP3   OH245217   1.128   2.020   3.479  0.0996  0.2676 -0.1538
 7909TIP3    H145218   1.069   1.969   3.423  0.0516  0.2259 -0.0670
 7909TIP3    H245219   1.125   2.109   3.445  0.4005  0.1534 -0.4802
 7910TIP3   OH245220   1.163   5.825  16.438  0.2419 -0.2157 -0.0387
 7910TIP3    H145221   1.111   5.896  16.476  1.1965  0.1447  0.6270
 7910TIP3    H245222   1.152   5.752  16.499  2.0192  0.4566  1.1652
 7911TIP3   OH245223   6.362   0.894   5.818  0.3212  0.2231  0.3198
 7911TIP3    H145224   6.335   0.809   5.783 -3.0268  1.2420  0.1317
 7911TIP3    H245225   6.344   0.888   5.912 -1.4787  1.2135  0.0644
 7912TIP3   OH245226   4.344   6.692  15.228  0.1136 -0.2243  0.4379
 7912TIP3    H145227   4.262   6.673  15.182  0.1364  0.1392  0.2360
 7912TIP3    H245228   4.413   6.671  15.165  0.1709 -0.3842  0.5533
 7913TIP3   OH245229   2.806   3.174  16.679 -0.2768 -0.4822  0.0087
 7913TIP3    H145230   2.857   3.096  16.703  1.0760  0.4278  0.1755
 7913TIP3    H245231   2.726   3.166  16.731  0.7527 -0.7310  1.6375
 7914TIP3   OH245232   5.827   0.063  12.172 -0.0746  0.6737 -0.0581
 7914TIP3    H145233   5.829   0.103  12.259  2.0409 -1.7768  1.1381
 7914TIP3    H245234   5.747   0.010  12.172 -0.5567  1.3892  0.0258
 7915TIP3   OH245235   1.507   2.738  16.857 -0.2238 -0.6226  0.1147
 7915TIP3    H145236   1.568   2.717  16.786  1.4479 -0.9446  1.5863
 7915TIP3    H245237   1.543   2.816  16.898 -2.4030  0.9224 -0.7191
 7916TIP3   OH245238   1.126   0.592  12.833 -0.0413 -0.1894  0.2125
 7916TIP3    H145239   1.123   0.532  12.759 -0.6932  1.1988 -0.9432
 7916TIP3    H245240   1.190   0.554  12.892  0.9495 -1.0368 -1.3372
 7917TIP3   OH245241   5.607   5.477   6.546 -0.3615 -0.3186  0.5755
 7917TIP3    H145242   5.655   5.398   6.520  0.4376 -0.3332  1.9642
 7917TIP3    H245243   5.542   5.446   6.609 -2.2708 -0.2950 -1.2902
 7918TIP3   OH245244   5.065   2.498   3.566 -0.3068 -0.3754 -0.5867
 7918TIP3    H145245   5.019   2.579   3.587 -1.6245 -0.8107 -1.6575
 7918TIP3    H245246   5.024   2.432   3.623 -0.1540 -0.5391 -0.6665
 7919TIP3   OH245247   5.189   1.909  15.331 -0.4058  0.7179 -0.1912
 7919TIP3    H145248   5.136   1.977  15.290 -1.2644  0.9331  1.1934
 7919TIP3    H245249   5.133   1.875  15.400  0.7368 -0.0756  0.3620
 7920TIP3   OH245250   1.647   4.886  15.525 -0.5139 -0.3228 -0.4017
 7920TIP3    H145251   1.725   4.911  15.574  0.0164 -0.0530 -1.3568
 7920TIP3    H245252   1.606   4.817  15.578 -0.0137  0.0252  0.4532
 7921TIP3   OH245253   4.418   5.608  16.727 -0.1046 -0.5935  0.1752
 7921TIP3    H145254   4.410   5.600  16.822 -0.3547 -3.0235 -0.0041
 7921TIP3    H245255   4.452   5.524  16.698  1.3673  0.5795 -1.7859
 7922TIP3   OH245256   4.158   0.525   0.055 -0.0048  0.4328 -0.3829
 7922TIP3    H145257   4.224   0.564  -0.003 -1.5076 -0.3109 -2.7157
 7922TIP3    H245258   4.183   0.432   0.059  0.2934  0.5384  0.5201
 7923TIP3   OH245259   3.790   3.621   1.272  0.0797 -0.0800 -0.2010
 7923TIP3    H145260   3.869   3.569   1.256  0.2235  0.1479 -0.2326
 7923TIP3    H245261   3.738   3.568   1.333 -0.8857 -1.3770 -2.0640
 7924TIP3   OH245262   0.388   2.809  16.333  0.1293  0.5874  0.3417
 7924TIP3    H145263   0.451   2.741  16.308  1.1275  0.5488  2.7060
 7924TIP3    H245264   0.304   2.763  16.341  0.4454 -0.0221  0.2334
 7925TIP3   OH245265   6.367   0.244   5.816 -0.5095  0.0770  0.4034
 7925TIP3    H145266   6.403   0.316   5.764  2.1458 -2.1956 -1.1843
 7925TIP3    H245267   6.411   0.250   5.900  1.4573 -0.8637 -0.4818
 7926TIP3   OH245268   3.951   6.671   5.331 -0.2347 -0.1433 -0.1307
 7926TIP3    H145269   3.959   6.762   5.301  0.0038 -0.7699 -2.0512
 7926TIP3    H245270   3.860   6.665   5.363  0.2852  1.2382  1.8321
 7927TIP3   OH245271   2.048   2.382   0.040 -0.5397  0.2629  0.2635
 7927TIP3    H145272   1.986   2.348   0.104  1.6405 -1.2377  1.7121
 7927TIP3    H245273   2.097   2.306   0.009  2.6970  1.5835  1.5782
 7928TIP3   OH245274   3.384   0.950  11.465 -0.6514 -0.0097  0.1864
 7928TIP3    H145275   3.356   1.012  11.532  1.1546  0.1115  0.8791
 7928TIP3    H245276   3.398   0.868  11.513 -0.0821 -0.1193 -0.1546
 7929TIP3   OH245277   1.665   1.976   1.127  0.4652 -0.1745  0.0242
 7929TIP3    H145278   1.713   2.031   1.190  0.0804  0.2771 -0.0709
 7929TIP3    H245279   1.731   1.916   1.092  0.8371  0.0594  0.3224
 7930TIP3   OH245280   5.947   3.208   5.208  0.1607 -0.2047  0.0705
 7930TIP3    H145281   5.945   3.287   5.263  1.5305 -2.1949  3.2848
 7930TIP3    H245282   6.029   3.215   5.160  0.2704  0.3455  0.3292
 7931TIP3   OH245283   4.890   4.442  13.884  0.0656  0.2324  0.0707
 7931TIP3    H145284   4.811   4.490  13.908 -0.8148 -1.2681  0.3006
 7931TIP3    H245285   4.903   4.379  13.955  0.6007 -0.5310 -0.6787
 7932TIP3   OH245286   3.945   2.396  12.107 -0.4347 -0.3021  0.3606
 7932TIP3    H145287   3.855   2.417  12.131 -0.3692 -0.2075  0.5220
 7932TIP3    H245288   3.995   2.406  12.188 -0.6688 -2.7323  0.9052
 7933TIP3   OH245289   1.671   3.572  12.799 -0.4421 -0.1107 -0.4795
 7933TIP3    H145290   1.655   3.660  12.832 -0.7351 -0.7454  1.1384
 7933TIP3    H245291   1.759   3.550  12.830 -0.4831 -0.5023 -0.6321
 7934TIP3   OH245292   0.297   1.227  14.160 -0.0451 -0.0244  0.0565
 7934TIP3    H145293   0.358   1.154  14.142 -0.8983 -0.1512 -2.9494
 7934TIP3    H245294   0.211   1.193  14.135 -1.6981 -0.1172  4.9483
 7935TIP3   OH245295   3.627   6.147  16.163 -0.2565 -0.5014 -0.0740
 7935TIP3    H145296   3.700   6.097  16.128 -0.4581 -1.2219  0.5113
 7935TIP3    H245297   3.578   6.085  16.216  0.0017  0.5346  1.4406
 7936TIP3   OH245298   5.168   0.603   2.206 -0.1601  0.8496  0.2743
 7936TIP3    H145299   5.243   0.633   2.156 -0.1195  0.9450  0.3919
 7936TIP3    H245300   5.093   0.650   2.168 -0.6734 -1.6020 -1.9986
 7937TIP3   OH245301   1.079   5.689  13.780  0.4004 -0.5275 -0.3736
 7937TIP3    H145302   1.165   5.651  13.766  0.5112 -0.9188  1.2351
 7937TIP3    H245303   1.054   5.662  13.868 -1.4790 -0.6229 -0.8817
 7938TIP3   OH245304   5.640   1.951  13.528  0.2141  0.9742  0.2243
 7938TIP3    H145305   5.703   1.904  13.474  1.9085  2.0897  1.1450
 7938TIP3    H245306   5.647   1.910  13.614  0.1345  1.5012  0.4884
 7939TIP3   OH245307   6.568   3.678   1.822 -0.3867 -0.3394  0.2213
 7939TIP3    H145308   6.629   3.708   1.755 -0.9606 -0.0527 -0.1850
 7939TIP3    H245309   6.552   3.756   1.876  0.2752 -0.6367  0.8523
 7940TIP3   OH245310   1.396   0.036   0.777  0.7018 -0.5483  0.2289
 7940TIP3    H145311   1.458  -0.016   0.828  0.9832 -0.4917 -0.0504
 7940TIP3    H245312   1.434   0.038   0.689  0.7165  0.1744  0.2509
 7941TIP3   OH245313   5.453   5.049   0.876  0.8889 -0.1183  0.2005
 7941TIP3    H145314   5.364   5.049   0.911  0.6621  0.0702 -0.3674
 7941TIP3    H245315   5.495   5.123   0.920 -0.0936  1.6164 -1.6220
 7942TIP3   OH245316   0.478   5.604   1.167 -0.3035 -0.3125  0.1953
 7942TIP3    H145317   0.385   5.620   1.182 -0.3605 -1.6972  1.5777
 7942TIP3    H245318   0.519   5.624   1.252  0.2681 -2.3391  0.4467
 7943TIP3   OH245319   6.454   6.525   1.541  0.5936 -0.1092 -0.1087
 7943TIP3    H145320   6.360   6.542   1.527  0.0005 -3.0523 -0.2327
 7943TIP3    H245321   6.498   6.579   1.476 -0.8965  2.1694  0.6414
 7944TIP3   OH245322   6.671   3.613   6.096 -0.2650 -0.2456  0.0055
 7944TIP3    H145323   6.749   3.655   6.061  1.1111 -1.4138  1.5063
 7944TIP3    H245324   6.612   3.685   6.119 -0.0531  0.6208 -1.9834
 7945TIP3   OH245325   5.265   2.132   4.553 -0.3695 -0.1222  0.3130
 7945TIP3    H145326   5.316   2.184   4.490  1.3138 -1.0421  0.8575
 7945TIP3    H245327   5.267   2.183   4.634 -0.1594 -0.2421  0.3837
 7946TIP3   OH245328   2.411   5.061  13.336  0.1114  0.6700 -0.3813
 7946TIP3    H145329   2.416   5.155  13.354  0.6974  0.6632 -0.4702
 7946TIP3    H245330   2.398   5.021  13.422  1.4344  0.7380 -0.1202
 7947TIP3   OH245331   2.702   0.708   0.289  0.5222  0.2801 -0.6642
 7947TIP3    H145332   2.629   0.738   0.343  1.4563  2.1983 -0.3723
 7947TIP3    H245333   2.771   0.772   0.305  2.5132 -1.7861 -0.4564
 7948TIP3   OH245334   2.460   6.201  16.868  0.5919 -0.5255 -0.3910
 7948TIP3    H145335   2.410   6.138  16.920 -0.8502  0.2063 -0.8581
 7948TIP3    H245336   2.551   6.175  16.881  0.1513 -1.5192  0.9773
 7949TIP3   OH245337   1.261   5.642  13.191  0.3250 -0.5602  0.0666
 7949TIP3    H145338   1.333   5.621  13.132  0.3913 -0.0492 -0.0339
 7949TIP3    H245339   1.233   5.557  13.226  0.9291 -0.7666  0.0548
 7950TIP3   OH245340   4.031   3.166  14.388  0.3269  0.0078  0.3420
 7950TIP3    H145341   3.980   3.090  14.361 -0.3539  0.6391 -0.1905
 7950TIP3    H245342   4.113   3.159  14.339  0.0917 -0.1476 -0.0260
 7951TIP3   OH245343   2.055   0.866  12.921 -0.3377 -0.0057 -0.6142
 7951TIP3    H145344   2.003   0.817  12.985  1.2614  0.8927  1.5409
 7951TIP3    H245345   2.075   0.803  12.852 -2.4549 -0.9268 -0.4574
 7952TIP3   OH245346   2.901   5.852   2.032  0.0724 -0.1963 -0.1714
 7952TIP3    H145347   2.893   5.789   2.103 -1.2058 -0.2058 -0.3047
 7952TIP3    H245348   2.993   5.846   2.005  0.0223 -1.8796 -0.0706
 7953TIP3   OH245349   5.940   3.406   2.508 -0.1375 -0.6536 -0.2789
 7953TIP3    H145350   6.032   3.419   2.532  0.6190 -2.1532 -2.1098
 7953TIP3    H245351   5.925   3.470   2.439  0.0323 -1.4329 -1.0583
 7954TIP3   OH245352   2.548   5.434   0.082  0.2350  0.3400  0.1509
 7954TIP3    H145353   2.531   5.525   0.056 -2.6084  0.0255  0.6242
 7954TIP3    H245354   2.568   5.439   0.175 -0.9230  0.3939  0.4000
 7955TIP3   OH245355   1.626   2.333   3.073  0.1681 -0.6759 -0.2836
 7955TIP3    H145356   1.713   2.297   3.086 -0.2000 -1.1147  1.0906
 7955TIP3    H245357   1.573   2.260   3.041  0.4963 -0.1862 -2.0327
 7956TIP3   OH245358   6.493   6.127  15.118 -0.2395  0.2344  0.9612
 7956TIP3    H145359   6.521   6.217  15.133  0.7863 -0.0836  0.9877
 7956TIP3    H245360   6.553   6.074  15.170  0.5768 -0.6092 -0.7560
 7957TIP3   OH245361   1.475   2.729   4.526 -0.1245 -0.0715  0.7574
 7957TIP3    H145362   1.398   2.674   4.541 -0.3925  0.0369 -0.1354
 7957TIP3    H245363   1.440   2.811   4.491  0.2144  0.9938  2.7548
 7958TIP3   OH245364   5.553   4.609  16.931  0.1514 -0.4826  0.0959
 7958TIP3    H145365   5.555   4.524  16.974  0.8004  0.0664  1.1814
 7958TIP3    H245366   5.529   4.671  17.000  0.1568  0.2823 -0.5648
 7959TIP3   OH245367   4.313   5.113   4.572  0.2157  0.6165  0.3548
 7959TIP3    H145368   4.377   5.146   4.509  0.3635  0.4043  0.3938
 7959TIP3    H245369   4.245   5.180   4.575  0.8753  1.2694  0.9960
 7960TIP3   OH245370   6.672   0.855  14.467 -0.1359 -0.4034 -0.2926
 7960TIP3    H145371   6.659   0.869  14.561  1.1434 -0.6298 -0.0570
 7960TIP3    H245372   6.665   0.943  14.428  1.5330  0.0403  0.3300
 7961TIP3   OH245373   2.122   1.667   3.799 -0.1414 -0.1298 -0.4844
 7961TIP3    H145374   2.215   1.685   3.808 -0.7318  2.6219  1.4610
 7961TIP3    H245375   2.111   1.643   3.707  2.4121 -0.1704 -0.8487
 7962TIP3   OH245376   4.683   1.088   5.797  0.4301 -0.3675  0.4847
 7962TIP3    H145377   4.752   1.142   5.837  1.4309 -1.3480  0.1379
 7962TIP3    H245378   4.601   1.132   5.820  1.2222  1.4415 -0.0212
 7963TIP3   OH245379   4.163   3.978   1.442 -0.2690 -0.0698 -0.2632
 7963TIP3    H145380   4.241   3.945   1.396 -1.0871 -1.1783 -0.9170
 7963TIP3    H245381   4.105   3.902   1.447 -1.5415  0.8774 -0.2726
 7964TIP3   OH245382   3.488   4.417  11.224 -0.0214 -0.1211  0.2886
 7964TIP3    H145383   3.453   4.448  11.141 -1.1482 -1.2109  0.3279
 7964TIP3    H245384   3.486   4.494  11.281  2.5453  1.1647 -1.1510
 7965TIP3   OH245385   0.161   0.925   3.136 -0.1052 -0.0603  0.7795
 7965TIP3    H145386   0.091   0.985   3.162 -1.0426 -0.3385 -0.9548
 7965TIP3    H245387   0.231   0.982   3.103 -1.7884  0.1857 -2.8266
 7966TIP3   OH245388   3.389   4.390  16.319 -0.4256  0.6785 -0.5138
 7966TIP3    H145389   3.300   4.403  16.352 -1.0964 -1.8866 -1.1039
 7966TIP3    H245390   3.432   4.337  16.386  0.1660  0.6301 -0.9262
 7967TIP3   OH245391   6.624   4.143   1.675 -0.0506  0.1628  0.2199
 7967TIP3    H145392   6.603   4.059   1.716  1.4852 -0.7116 -0.6941
 7967TIP3    H245393   6.563   4.150   1.602 -0.1817 -0.1781  0.2958
 7968TIP3   OH245394   2.102   5.884   2.919  0.5648 -0.6509  0.3030
 7968TIP3    H145395   2.077   5.969   2.884 -1.1374 -0.8317  0.9481
 7968TIP3    H245396   2.070   5.820   2.854 -0.8636 -0.8915  1.1833
 7969TIP3   OH245397   2.887   2.016  13.887  0.1608 -0.5437 -0.1638
 7969TIP3    H145398   2.953   1.956  13.851  1.7327  0.8856  0.1939
 7969TIP3    H245399   2.820   1.959  13.924  0.8159 -2.0595 -1.2135
 7970TIP3   OH245400   0.629   2.476   4.194  0.2724 -0.0341 -0.9390
 7970TIP3    H145401   0.546   2.514   4.167  0.0620 -1.2148 -2.0531
 7970TIP3    H245402   0.691   2.549   4.191 -0.4687  0.5926 -1.3193
 7971TIP3   OH245403   6.167   6.533   1.596  0.0641  0.3978  0.2978
 7971TIP3    H145404   6.088   6.579   1.566  0.6114  1.2062  0.0527
 7971TIP3    H245405   6.134   6.455   1.640 -0.8041 -0.2235 -1.3798
 7972TIP3   OH245406   4.836   3.113  13.159  0.3109  0.2233 -0.1911
 7972TIP3    H145407   4.810   3.150  13.074 -1.3225  1.6209  0.8196
 7972TIP3    H245408   4.771   3.149  13.220 -0.2256 -2.9007  1.2363
 7973TIP3   OH245409   5.126   6.470   2.360 -0.6455 -0.1033  0.4201
 7973TIP3    H145410   5.173   6.497   2.281 -1.3481  0.9168  0.3386
 7973TIP3    H245411   5.155   6.532   2.427 -1.5367  0.2762  0.4706
 7974TIP3   OH245412   3.752   3.418  15.996 -0.6453 -0.1843 -0.1124
 7974TIP3    H145413   3.765   3.345  16.058  3.0990 -0.9046 -1.4750
 7974TIP3    H245414   3.773   3.496  16.047 -0.3240 -0.5098  0.2651
 7975TIP3   OH245415   3.267   6.815  11.921  0.2614 -0.6178 -0.3704
 7975TIP3    H145416   3.347   6.852  11.883 -0.4639 -0.0948 -1.4366
 7975TIP3    H245417   3.293   6.728  11.951  1.3635 -0.2378 -0.1962
 7976TIP3   OH245418   1.187   2.516   5.207  0.0306  0.0613  0.1477
 7976TIP3    H145419   1.104   2.523   5.160 -0.7952 -0.2299  1.5030
 7976TIP3    H245420   1.179   2.436   5.258  0.9459  0.2977  0.6813
 7977TIP3   OH245421   0.099   2.716  13.795  0.0322 -0.1722  0.1635
 7977TIP3    H145422   0.066   2.626  13.805 -2.7754  0.8572  1.2646
 7977TIP3    H245423   0.084   2.737  13.703 -1.8734  0.0088  0.4792
 7978TIP3   OH245424   1.241   0.357  11.786 -0.6866 -0.2987 -0.0286
 7978TIP3    H145425   1.268   0.436  11.833 -2.9917  0.9332 -0.6335
 7978TIP3    H245426   1.312   0.339  11.725 -0.7210  2.1685 -0.8702
 7979TIP3   OH245427   6.538   1.509  14.413  0.4075 -0.0832  0.0201
 7979TIP3    H145428   6.540   1.491  14.507  1.3507 -1.3870 -0.2351
 7979TIP3    H245429   6.548   1.604  14.407 -2.8559  0.4834  1.3227
 7980TIP3   OH245430   3.017   4.015  16.952 -0.4341  0.0868 -0.5486
 7980TIP3    H145431   3.036   4.081  16.886 -2.9876  1.4879  0.0055
 7980TIP3    H245432   3.037   4.057  17.036 -0.1276 -0.5994 -0.2667
 7981TIP3   OH245433   0.483   3.108   2.831  0.7765 -0.0798 -0.5921
 7981TIP3    H145434   0.389   3.124   2.833  0.8436  0.2465 -0.2278
 7981TIP3    H245435   0.510   3.136   2.743  0.3878 -0.9915 -1.0162
 7982TIP3   OH245436   6.644   1.303  13.154 -0.1361 -0.0115  0.1257
 7982TIP3    H145437   6.580   1.245  13.113  0.1555  0.6951 -1.4147
 7982TIP3    H245438   6.691   1.248  13.215 -3.2618 -0.2376  2.5978
 7983TIP3   OH245439   6.304   2.952  10.586  0.3819  0.0797 -0.6602
 7983TIP3    H145440   6.358   2.877  10.610  1.8364  1.4647  0.6299
 7983TIP3    H245441   6.216   2.928  10.616  0.7399 -1.2130 -0.5525
 7984TIP3   OH245442   1.170   3.681  15.904 -0.1758  0.3862 -0.0979
 7984TIP3    H145443   1.264   3.691  15.888 -0.5220  2.0520 -1.3125
 7984TIP3    H245444   1.148   3.598  15.861  0.8897 -0.5381  1.0589
 7985TIP3   OH245445   2.635   4.892   5.635 -0.3765 -0.1801 -0.0947
 7985TIP3    H145446   2.705   4.954   5.614  0.1395 -0.0456  1.8453
 7985TIP3    H245447   2.647   4.820   5.572  0.8932  0.2970 -0.4276
 7986TIP3   OH245448   4.408   2.068  12.632 -0.7224  0.4328  0.1592
 7986TIP3    H145449   4.422   2.003  12.700 -2.1635  0.2192  0.2748
 7986TIP3    H245450   4.314   2.065  12.615 -0.5152  1.1309 -1.1954
 7987TIP3   OH245451   4.086   4.294   2.808 -0.1431  0.1079  1.0287
 7987TIP3    H145452   4.164   4.343   2.834  0.8092 -0.3084 -0.8637
 7987TIP3    H245453   4.096   4.209   2.849 -0.8869  0.8191  2.8125
 7988TIP3   OH245454   1.338   4.751  12.167  0.1430  0.2379 -0.0977
 7988TIP3    H145455   1.420   4.755  12.117  0.3726  2.4853  0.3660
 7988TIP3    H245456   1.275   4.712  12.105  1.6431 -2.2408 -0.2210
 7989TIP3   OH245457   5.516   1.953  14.413 -0.0908  0.0057  0.4208
 7989TIP3    H145458   5.422   1.936  14.404  0.0276  0.2030 -1.7643
 7989TIP3    H245459   5.521   2.038  14.456 -1.0997  1.8199 -2.7080
 7990TIP3   OH245460   5.062   4.954  11.938  0.0637 -0.1378  0.4319
 7990TIP3    H145461   5.109   4.943  11.856 -1.0090  0.4971 -0.3025
 7990TIP3    H245462   4.991   5.015  11.917  0.9127  1.5891  2.2986
 7991TIP3   OH245463   3.525   4.372   2.021 -0.1273  0.4536  0.1065
 7991TIP3    H145464   3.503   4.465   2.030 -4.3204 -0.4090  0.7874
 7991TIP3    H245465   3.498   4.350   1.932  0.3885 -0.2138  0.1123
 7992TIP3   OH245466   5.342   6.720  13.925 -0.0540 -0.1159 -0.6377
 7992TIP3    H145467   5.422   6.681  13.891  0.0707 -0.8205  0.4525
 7992TIP3    H245468   5.287   6.646  13.951  0.2397  0.3799  1.5658
 7993TIP3   OH245469   6.610   1.380  13.932 -0.4097 -0.4258 -0.3972
 7993TIP3    H145470   6.654   1.386  14.017 -0.9019 -0.9069 -0.1028
 7993TIP3    H245471   6.655   1.308  13.887  0.4401  0.4017 -0.9070
 7994TIP3   OH245472   0.492   2.858  12.138  0.0214  0.4485  0.0480
 7994TIP3    H145473   0.441   2.938  12.132  1.7237  1.5051 -1.9111
 7994TIP3    H245474   0.554   2.874  12.209 -0.1966  0.5157  0.2224
 7995TIP3   OH245475   1.217   0.423   6.745  0.1035 -0.7796  0.0239
 7995TIP3    H145476   1.218   0.485   6.817  0.3069  0.3709 -0.9262
 7995TIP3    H245477   1.214   0.478   6.666 -0.1556 -1.9880 -0.8423
 7996TIP3   OH245478   1.267   2.935   6.648 -0.1403  0.2515 -0.2327
 7996TIP3    H145479   1.172   2.942   6.652 -0.2444 -1.1630  0.8027
 7996TIP3    H245480   1.298   3.025   6.639 -1.5690  0.7234 -0.6494
 7997TIP3   OH245481   5.706   3.823   0.512 -0.6831  0.3501 -0.4483
 7997TIP3    H145482   5.703   3.903   0.459  1.1109  0.1663 -0.8832
 7997TIP3    H245483   5.621   3.781   0.497 -0.8716  1.1547 -1.8179
 7998TIP3   OH245484   3.808   5.462  15.174  0.8187  0.2632 -0.4150
 7998TIP3    H145485   3.804   5.368  15.161  1.2037  0.1534  0.2427
 7998TIP3    H245486   3.889   5.477  15.222  0.0989  0.7692  0.7088
 7999TIP3   OH245487   2.460   0.598  12.074  0.4698 -0.1563 -0.5107
 7999TIP3    H145488   2.412   0.637  12.001  0.4607  1.0683  0.1201
 7999TIP3    H245489   2.524   0.665  12.099  0.7225 -0.7057  0.3532
 8000TIP3   OH245490   0.802   1.739   1.734  0.2463 -0.1204 -0.3552
 8000TIP3    H145491   0.726   1.740   1.676  0.2020 -1.5437 -0.3473
 8000TIP3    H245492   0.877   1.726   1.675  0.0139 -4.2718 -0.0526
 8001TIP3   OH245493   4.758   3.819  12.241 -0.4807  0.0387 -0.1553
 8001TIP3    H145494   4.729   3.801  12.330  1.6899  0.2344  0.6432
 8001TIP3    H245495   4.751   3.734  12.196 -3.3299  0.3071 -0.4116
 8002TIP3   OH245496   0.618   6.800  16.747  0.0136  0.3392  0.1153
 8002TIP3    H145497   0.571   6.717  16.744 -1.3382  1.0724  0.5966
 8002TIP3    H245498   0.570   6.854  16.810  0.8844  1.4835 -0.1597
 8003TIP3   OH245499   3.054   1.537  13.968  0.0384  0.0291  0.2455
 8003TIP3    H145500   3.139   1.493  13.969 -0.5607 -1.2301 -0.9476
 8003TIP3    H245501   2.991   1.469  13.989 -0.6575  1.0822  1.7131
 8004TIP3   OH245502   3.205   5.609   4.061  0.0333  0.8571 -0.5169
 8004TIP3    H145503   3.206   5.704   4.063  0.1207  0.8990 -1.8505
 8004TIP3    H245504   3.286   5.583   4.104  0.2459  1.4036 -0.5837
 8005TIP3   OH245505   5.091   4.431   3.651  0.0291  0.2757 -0.2540
 8005TIP3    H145506   5.113   4.377   3.727  2.0087  0.7060 -0.4682
 8005TIP3    H245507   5.040   4.374   3.595 -1.8710  0.0740  1.5677
 8006TIP3   OH245508   4.528   2.517   4.614 -0.7019 -0.6401  0.1502
 8006TIP3    H145509   4.514   2.490   4.523 -1.0022 -1.6639  0.4817
 8006TIP3    H245510   4.562   2.439   4.657 -1.4325 -0.4401  1.1203
 8007TIP3   OH245511   0.398   0.022  14.767 -0.0595 -0.3771 -0.0822
 8007TIP3    H145512   0.439  -0.053  14.723 -1.3982 -0.1800 -1.7566
 8007TIP3    H245513   0.438   0.099  14.727 -0.5504 -0.1984 -0.2408
 8008TIP3   OH245514   5.768   3.287  14.021 -0.9830  0.4689  0.1842
 8008TIP3    H145515   5.689   3.333  13.993 -0.7707  1.2076  0.7827
 8008TIP3    H245516   5.757   3.275  14.115 -0.4767  0.3910  0.2356
 8009TIP3   OH245517   3.912   5.971  14.673 -0.1281  0.1657  0.6989
 8009TIP3    H145518   3.820   5.982  14.651  0.0487  0.0660 -0.1186
 8009TIP3    H245519   3.913   5.908  14.745 -0.5519 -1.9958 -1.0896
 8010TIP3   OH245520   6.136   3.662  15.305  0.0739 -0.2458  0.1799
 8010TIP3    H145521   6.217   3.698  15.266 -0.1451 -0.2473 -0.2907
 8010TIP3    H245522   6.124   3.713  15.385  0.3065  0.0607  0.0268
 8011TIP3   OH245523   2.660   0.197  13.344  0.6076 -0.5229 -0.4424
 8011TIP3    H145524   2.581   0.233  13.305 -0.2244 -1.8661 -0.0577
 8011TIP3    H245525   2.731   0.251  13.308 -0.5041  1.1605 -0.2590
 8012TIP3   OH245526   1.643   2.585  12.440 -0.1782 -1.0989  0.6365
 8012TIP3    H145527   1.548   2.585  12.428 -0.0866  0.3075 -0.2998
 8012TIP3    H245528   1.678   2.577  12.351  0.5607  1.3030  0.6621
 8013TIP3   OH245529   1.482   2.483  16.530 -0.4886  0.3095 -0.3107
 8013TIP3    H145530   1.516   2.506  16.443 -0.4669  1.4349 -0.0284
 8013TIP3    H245531   1.400   2.438  16.513 -1.7007  2.5807 -0.9155
 8014TIP3   OH245532   3.636   6.488  13.297  0.1960  0.2208 -0.2304
 8014TIP3    H145533   3.731   6.486  13.286  0.2744 -0.8675  0.4596
 8014TIP3    H245534   3.604   6.424  13.233 -0.1796  1.3992 -1.2493
 8015TIP3   OH245535   5.454   2.181   4.824  0.2639  0.4679 -0.6767
 8015TIP3    H145536   5.372   2.231   4.829  0.7966  1.3132 -0.1058
 8015TIP3    H245537   5.444   2.126   4.747 -0.3313  1.4927 -1.3580
 8016TIP3   OH245538   2.004   0.223   0.449 -0.1192 -0.1795 -0.0538
 8016TIP3    H145539   2.052   0.301   0.421 -0.1970 -0.4355 -0.9235
 8016TIP3    H245540   2.072   0.163   0.480 -0.0115  0.0071  0.0800
 8017TIP3   OH245541   2.720   0.619   4.843  0.2956 -0.4340  0.6399
 8017TIP3    H145542   2.815   0.625   4.857  0.1705 -1.3643  2.0964
 8017TIP3    H245543   2.682   0.644   4.927 -0.7098 -1.2370  0.4489
 8018TIP3   OH245544   1.498   0.633  13.650  0.4201  0.0657 -0.1650
 8018TIP3    H145545   1.509   0.552  13.600  1.9549 -0.0146  0.2579
 8018TIP3    H245546   1.434   0.684  13.599  0.4657 -0.8358 -1.1539
 8019TIP3   OH245547   4.345   2.034   3.216  0.3019  0.1502 -0.0164
 8019TIP3    H145548   4.437   2.059   3.219 -0.0671  1.5268  1.2379
 8019TIP3    H245549   4.326   1.999   3.303 -0.7053  1.3824  0.3055
 8020TIP3   OH245550   1.068   4.614  11.545 -0.8875  0.1687 -1.2551
 8020TIP3    H145551   1.157   4.596  11.514 -0.3066 -2.0851  1.3419
 8020TIP3    H245552   1.079   4.679  11.614 -1.2018 -0.3268 -0.7311
 8021TIP3   OH245553   2.235   6.408   5.811 -0.2496 -0.1864 -0.1939
 8021TIP3    H145554   2.236   6.314   5.828  2.9186 -0.5517 -1.6434
 8021TIP3    H245555   2.328   6.432   5.806 -0.9631  2.8698 -0.7052
 8022TIP3   OH245556   0.520   5.133   2.863 -0.2792 -0.5496  0.1399
 8022TIP3    H145557   0.451   5.200   2.858 -0.9803 -1.3072 -0.6004
 8022TIP3    H245558   0.484   5.058   2.817  0.5988 -1.3668  0.7407
 8023TIP3   OH245559   0.027   5.332   5.880  0.5530 -0.0999 -0.6188
 8023TIP3    H145560   0.074   5.403   5.837  2.0156 -0.5533  0.1687
 8023TIP3    H245561   0.033   5.352   5.974 -1.0767 -0.0334 -0.5067
 8024TIP3   OH245562   3.772   1.670  16.269 -0.5511  0.1136  0.6228
 8024TIP3    H145563   3.791   1.580  16.296 -1.4165 -0.2919 -0.0766
 8024TIP3    H245564   3.787   1.671  16.175  0.7075  1.0607  0.7951
 8025TIP3   OH245565   1.043   6.461   2.973 -0.4209  0.3504  0.2884
 8025TIP3    H145566   1.043   6.406   2.895 -1.8874 -1.8675  1.7401
 8025TIP3    H245567   1.122   6.514   2.965  0.8099 -1.5889 -1.4769
 8026TIP3   OH245568   6.728   2.934  12.596  0.1396 -0.2390  0.0153
 8026TIP3    H145569   6.646   2.970  12.629 -0.0952  0.1519 -0.9408
 8026TIP3    H245570   6.793   2.954  12.663 -0.6177 -0.9568  0.9995
 8027TIP3   OH245571   3.546   2.961  17.144  0.2698  0.2579  0.2347
 8027TIP3    H145572   3.483   3.026  17.114  0.3887  0.3217  0.1255
 8027TIP3    H245573   3.595   2.936  17.066  2.1995  2.1746  0.7266
 8028TIP3   OH245574   4.076   4.169   5.838  0.2111  0.2319  0.2827
 8028TIP3    H145575   4.118   4.131   5.761  0.6716 -0.8983  1.0577
 8028TIP3    H245576   4.092   4.263   5.832  1.9847 -0.0660  0.0311
 8029TIP3   OH245577   4.619   1.479   0.191 -0.6018 -0.3044  0.0964
 8029TIP3    H145578   4.701   1.472   0.142  0.2724  2.3478  0.9772
 8029TIP3    H245579   4.554   1.507   0.127  0.0457  1.0939  0.0291
 8030TIP3   OH245580   2.436   0.456  13.469  0.0097  0.5526 -0.5026
 8030TIP3    H145581   2.375   0.478  13.539  0.1508 -1.2735  0.2515
 8030TIP3    H245582   2.451   0.539  13.424 -0.8135  1.5948  1.0359
 8031TIP3   OH245583   2.234   0.954   1.814 -0.3870  0.6961 -0.1423
 8031TIP3    H145584   2.277   0.922   1.893 -1.8857 -0.9955  0.0401
 8031TIP3    H245585   2.306   0.970   1.753  0.7756  1.7555  1.4211
 8032TIP3   OH245586   2.543   1.200   2.440  0.2892  0.3944  0.5340
 8032TIP3    H145587   2.626   1.215   2.395  0.1730  1.5313  0.6460
 8032TIP3    H245588   2.492   1.146   2.381 -1.0658  4.2928 -2.2622
 8033TIP3   OH245589   4.407   5.599   3.136  0.4575  0.2066 -0.1622
 8033TIP3    H145590   4.477   5.613   3.072 -0.2612 -0.4520 -1.1320
 8033TIP3    H245591   4.452   5.575   3.217  1.3486 -0.8717 -0.9415
 8034TIP3   OH245592   2.490   4.153   2.216 -0.1494 -0.4892  0.5027
 8034TIP3    H145593   2.428   4.084   2.240 -0.2914 -0.5234  0.0409
 8034TIP3    H245594   2.492   4.151   2.121 -0.1513  0.1455  0.4896
 8035TIP3   OH245595   1.668   3.570   4.187  0.2535  0.2277  0.1953
 8035TIP3    H145596   1.626   3.566   4.101  1.2459  0.8585 -0.3471
 8035TIP3    H245597   1.611   3.519   4.245 -0.5083 -0.0798 -0.8034
 8036TIP3   OH245598   6.143   2.404   6.176 -0.0412  0.1085  0.0951
 8036TIP3    H145599   6.070   2.462   6.202 -0.9340 -0.9194 -0.0449
 8036TIP3    H245600   6.179   2.372   6.258 -0.8588 -0.7089  0.1477
 8037TIP3   OH245601   0.549   1.434  10.653  0.3426  0.0989  0.7352
 8037TIP3    H145602   0.603   1.450  10.575  0.9579  0.2024  1.1758
 8037TIP3    H245603   0.460   1.426  10.619  0.5865  0.2724  0.0343
 8038TIP3   OH245604   1.350   2.453   4.026 -0.0477 -0.6066 -0.1073
 8038TIP3    H145605   1.435   2.426   4.062  0.1718  0.0562 -0.1115
 8038TIP3    H245606   1.288   2.438   4.098 -0.1589 -2.2605 -0.4985
 8039TIP3   OH245607   0.511   2.411  12.607  0.4530  0.1536  0.3333
 8039TIP3    H145608   0.530   2.332  12.657  0.3389 -0.0349  0.0803
 8039TIP3    H245609   0.451   2.461  12.663  0.6115  0.1125  0.5398
 8040TIP3   OH245610   5.013   0.122   4.887 -0.6818  0.0280  0.0928
 8040TIP3    H145611   5.035   0.048   4.831  0.4801  0.3742  0.0512
 8040TIP3    H245612   5.097   0.149   4.925 -0.8296  2.1224 -0.9094
 8041TIP3   OH245613   5.566   2.474   2.385  0.0076  0.0510 -0.1097
 8041TIP3    H145614   5.583   2.488   2.292  1.3333  0.1202  0.1312
 8041TIP3    H245615   5.588   2.382   2.401  0.6408  0.2725  0.3169
 8042TIP3   OH245616   4.859   2.230  16.350  0.1435 -0.4644 -0.1730
 8042TIP3    H145617   4.860   2.250  16.256  0.7618 -1.5035 -0.4049
 8042TIP3    H245618   4.860   2.315  16.393  0.2966  0.0223 -1.1120
 8043TIP3   OH245619   0.359   4.529   4.385  0.3712 -0.3203 -0.5482
 8043TIP3    H145620   0.282   4.566   4.427 -0.2314 -1.6440 -0.4514
 8043TIP3    H245621   0.404   4.605   4.347 -2.4110  0.2654 -3.0316
 8044TIP3   OH245622   3.788   0.266   2.524 -0.0080 -0.2535  0.0463
 8044TIP3    H145623   3.752   0.202   2.585 -0.0721  1.3195  1.7763
 8044TIP3    H245624   3.878   0.280   2.554 -0.3848  1.3580  0.5443
 8045TIP3   OH245625   4.272   0.385   0.820  0.0433 -0.0867 -0.1166
 8045TIP3    H145626   4.197   0.330   0.799 -0.0537  0.6127 -1.7675
 8045TIP3    H245627   4.313   0.403   0.736  2.3258 -0.7586  0.7635
 8046TIP3   OH245628   5.041   0.431  14.455  0.2331  0.0785 -0.2139
 8046TIP3    H145629   5.065   0.365  14.390  2.2642 -0.3366  0.8802
 8046TIP3    H245630   5.120   0.483  14.467 -0.3158  0.5883  1.4002
 8047TIP3   OH245631   4.870   2.164  16.037 -0.5570  0.0280 -0.3721
 8047TIP3    H145632   4.782   2.143  16.068 -0.5997  1.5813  0.7036
 8047TIP3    H245633   4.869   2.143  15.944 -1.7560 -0.8863 -0.1711
 8048TIP3   OH245634   5.754   0.802   1.225 -0.9198 -0.0113  0.2978
 8048TIP3    H145635   5.781   0.892   1.242 -0.9732  0.2955 -1.1101
 8048TIP3    H245636   5.810   0.748   1.282 -0.8084  0.8948  1.0592
 8049TIP3   OH245637   5.712   0.233   2.841 -0.0801  0.2804 -0.4166
 8049TIP3    H145638   5.733   0.319   2.878 -0.5106  0.6364 -0.9705
 8049TIP3    H245639   5.695   0.178   2.917 -1.4524  1.1311 -0.0575
 8050TIP3   OH245640   3.753   4.029  12.758  0.0465 -0.2515  0.0873
 8050TIP3    H145641   3.682   4.000  12.815  0.1362  0.7944  0.7574
 8050TIP3    H245642   3.828   3.974  12.782 -0.3357 -0.8642 -0.1147
 8051TIP3   OH245643   4.949   1.480   3.701 -0.1005 -0.4664  0.6332
 8051TIP3    H145644   5.007   1.405   3.685 -0.3715 -0.7141  0.7969
 8051TIP3    H245645   4.871   1.441   3.739 -0.6677 -0.2169 -0.2559
 8052TIP3   OH245646   1.437   5.195   2.631 -0.7328 -0.0689  0.1484
 8052TIP3    H145647   1.408   5.104   2.633 -0.1314 -0.2609  0.0951
 8052TIP3    H245648   1.356   5.245   2.624 -1.0428 -0.6126 -0.2321
 8053TIP3   OH245649   5.599   4.544  11.690 -0.1041  0.0898 -0.5529
 8053TIP3    H145650   5.676   4.586  11.729  1.1590 -0.7055 -2.0310
 8053TIP3    H245651   5.558   4.613  11.638  0.9432  0.0019 -1.5485
 8054TIP3   OH245652   5.204   2.187  16.567  0.0977  0.3525 -0.8499
 8054TIP3    H145653   5.220   2.281  16.566  1.5785  0.1116 -1.1197
 8054TIP3    H245654   5.257   2.152  16.495 -1.3593 -0.5644 -1.5354
 8055TIP3   OH245655   5.388   5.929   6.058 -0.2485 -0.3255 -0.2788
 8055TIP3    H145656   5.312   5.987   6.065 -0.7762 -1.0273 -0.0693
 8055TIP3    H245657   5.355   5.843   6.084  1.0519 -0.3171  1.5863
 8056TIP3   OH245658   1.796   1.810   2.809  0.0627 -0.1998 -0.1420
 8056TIP3    H145659   1.881   1.854   2.806  1.0948 -2.0787 -0.0803
 8056TIP3    H245660   1.814   1.723   2.775 -2.1150 -0.2706 -1.2557
 8057TIP3   OH245661   1.242   4.016   0.572 -0.3530 -0.1483 -0.3164
 8057TIP3    H145662   1.265   4.006   0.480  0.4341 -1.3426 -0.0223
 8057TIP3    H245663   1.285   3.942   0.615  1.3024  1.6485  1.3659
 8058TIP3   OH245664   1.761   2.495   6.477 -0.0436  0.0110 -0.3687
 8058TIP3    H145665   1.843   2.534   6.448  0.4092  0.9312  1.9733
 8058TIP3    H245666   1.787   2.422   6.533 -0.7190  1.3112  1.7476
 8059TIP3   OH245667   6.781   2.182  14.534 -0.5075  0.5483  0.3620
 8059TIP3    H145668   6.701   2.164  14.484  0.2624 -2.1858 -0.0440
 8059TIP3    H245669   6.851   2.145  14.481  0.5107 -1.0653  2.6478
 8060TIP3   OH245670   4.579   1.219  12.242  0.0742 -0.2647  0.0242
 8060TIP3    H145671   4.547   1.164  12.170  0.6810 -0.7325  0.0984
 8060TIP3    H245672   4.623   1.157  12.300 -0.0860  0.1684  0.6104
 8061TIP3   OH245673   4.453   2.979  14.336 -0.3491  0.1607  0.7300
 8061TIP3    H145674   4.470   2.898  14.288 -1.1871  0.4134 -0.0254
 8061TIP3    H245675   4.412   3.037  14.272  1.9261  1.8819  0.7229
 8062TIP3   OH245676   3.651   1.207   6.206 -0.7955 -0.7240 -1.1051
 8062TIP3    H145677   3.586   1.137   6.216  0.1469 -1.5341 -0.2337
 8062TIP3    H245678   3.734   1.164   6.228 -0.5292  1.3978  2.9380
 8063TIP3   OH245679   5.543   3.078   4.585  0.0995  0.3479 -0.4319
 8063TIP3    H145680   5.474   3.030   4.539  0.0498  0.2962 -0.3045
 8063TIP3    H245681   5.513   3.169   4.585 -0.3518  0.2133  0.3070
 8064TIP3   OH245682   3.512   4.742   1.082  0.3311  0.3550 -0.3610
 8064TIP3    H145683   3.551   4.786   1.006 -1.4523  0.5089 -1.2418
 8064TIP3    H245684   3.430   4.705   1.049 -1.2661  1.6852  1.7738
 8065TIP3   OH245685   4.543   5.429   5.850 -0.8448 -0.1698  0.2673
 8065TIP3    H145686   4.568   5.521   5.862 -1.7112  0.3857 -1.7426
 8065TIP3    H245687   4.553   5.414   5.756  0.3037 -2.4780  0.7052
 8066TIP3   OH245688   5.154   2.410   1.078 -0.4457  0.2121  0.0213
 8066TIP3    H145689   5.165   2.426   0.985 -0.4083 -3.0548 -0.6537
 8066TIP3    H245690   5.139   2.497   1.116  0.6010  1.7600 -2.8214
 8067TIP3   OH245691   0.313   4.824  12.352 -0.1811  0.4845 -0.0427
 8067TIP3    H145692   0.376   4.797  12.284  0.8837 -1.1306  1.5108
 8067TIP3    H245693   0.339   4.775  12.430 -2.6881  0.6520  0.9876
 8068TIP3   OH245694   0.567   1.537  14.354 -0.2172  0.2514 -0.5837
 8068TIP3    H145695   0.515   1.609  14.390 -0.3125 -0.4272  0.6870
 8068TIP3    H245696   0.600   1.490  14.431  3.1441  1.2091 -1.2508
 8069TIP3   OH245697   1.899   4.795  16.904  0.3320 -0.6774  0.4834
 8069TIP3    H145698   1.994   4.806  16.891  0.2623  0.1865  0.6255
 8069TIP3    H245699   1.870   4.744  16.829  0.4504  1.5343 -1.1797
 8070TIP3   OH245700   1.877   4.016  13.506 -0.5164  0.5196  0.1901
 8070TIP3    H145701   1.803   4.030  13.447 -0.3371 -0.0566 -0.1794
 8070TIP3    H245702   1.851   3.941  13.560 -0.2783  0.4279  0.1797
 8071TIP3   OH245703   6.549   0.228  11.059 -0.2949 -0.0064  0.0359
 8071TIP3    H145704   6.609   0.224  10.985 -0.9076 -1.2161 -0.4222
 8071TIP3    H245705   6.462   0.216  11.020 -0.7646  0.7547  0.7944
 8072TIP3   OH245706   1.427   6.704  12.397 -0.0747  0.2782 -0.4883
 8072TIP3    H145707   1.453   6.656  12.319 -0.5727  0.4924 -0.7921
 8072TIP3    H245708   1.429   6.639  12.467  0.6378  0.1436 -0.6190
 8073TIP3   OH245709   0.212   5.614   4.244 -0.4683 -0.0124  0.0243
 8073TIP3    H145710   0.268   5.561   4.301  0.0633  0.6094  0.0995
 8073TIP3    H245711   0.260   5.696   4.234 -1.3117  0.4827 -0.0274
 8074TIP3   OH245712   0.967   6.040   1.165  0.0934 -0.1545 -0.4681
 8074TIP3    H145713   1.057   6.009   1.152  0.2529 -0.2735  0.7861
 8074TIP3    H245714   0.974   6.134   1.176 -0.3667  0.4108 -4.0253
 8075TIP3   OH245715   1.712   5.199  15.361  0.2222  0.8562  0.2475
 8075TIP3    H145716   1.684   5.133  15.298 -0.3145  0.1359  1.2008
 8075TIP3    H245717   1.687   5.283  15.322  0.0901  0.4386 -0.5748
 8076TIP3   OH245718   5.880   0.457   4.057 -0.2287 -0.0644 -0.3536
 8076TIP3    H145719   5.966   0.468   4.017 -0.1753  1.4110  0.1359
 8076TIP3    H245720   5.872   0.531   4.117 -1.6255 -0.4821 -0.0070
 8077TIP3   OH245721   4.761   2.768  14.890  0.0553  0.2206  0.2877
 8077TIP3    H145722   4.750   2.673  14.880 -2.6652  0.3882  0.8655
 8077TIP3    H245723   4.763   2.800  14.800 -0.6074 -0.2579  0.0920
 8078TIP3   OH245724   4.941   0.314   0.790 -0.3449 -0.1468  0.3955
 8078TIP3    H145725   4.946   0.290   0.698 -2.1977 -0.1526  0.2597
 8078TIP3    H245726   4.974   0.404   0.793 -0.6062 -0.0239 -0.3190
 8079TIP3   OH245727   1.210   4.930  14.017 -0.4824 -0.1752  0.0147
 8079TIP3    H145728   1.237   4.943  13.927 -0.5388 -0.4331 -0.0390
 8079TIP3    H245729   1.279   4.972  14.069 -1.0570  1.0315 -0.1730
 8080TIP3   OH245730   6.025   5.331   3.696 -0.1776  0.3262 -0.2438
 8080TIP3    H145731   5.989   5.311   3.610 -0.3270 -1.0166  0.1177
 8080TIP3    H245732   5.952   5.370   3.744 -0.0806  1.1255 -0.7162
 8081TIP3   OH245733   3.663   6.422   3.664  0.5785  0.1957 -0.0230
 8081TIP3    H145734   3.610   6.365   3.609 -0.3078  0.5663  0.4284
 8081TIP3    H245735   3.600   6.469   3.719  1.4051  0.2057  0.9548
 8082TIP3   OH245736   4.456   6.304  11.847 -0.2370  0.2772 -0.0360
 8082TIP3    H145737   4.473   6.229  11.903 -1.1408  0.6701  0.8121
 8082TIP3    H245738   4.410   6.268  11.771  1.7452 -0.3765 -0.9873
 8083TIP3   OH245739   2.469   2.412   5.871 -0.8427 -0.3318 -0.5488
 8083TIP3    H145740   2.524   2.475   5.823  0.3974 -1.0285 -0.0936
 8083TIP3    H245741   2.398   2.465   5.907 -0.4930  0.5941 -1.1768
 8084TIP3   OH245742   1.881   1.800  11.211  0.7149 -0.7558  0.5033
 8084TIP3    H145743   1.828   1.877  11.236  2.6562  0.7129  0.2917
 8084TIP3    H245744   1.875   1.797  11.116  1.2907 -0.3596  0.4507
 8085TIP3   OH245745   6.244   5.841   3.300 -0.1142 -0.6087 -0.1904
 8085TIP3    H145746   6.294   5.761   3.316  1.8061  0.9470  2.4984
 8085TIP3    H245747   6.310   5.910   3.296 -1.8468  1.5477  3.2638
 8086TIP3   OH245748   1.665   3.935   2.451  0.7398  0.0122 -0.2737
 8086TIP3    H145749   1.610   4.000   2.494  1.6020 -0.1070  1.0701
 8086TIP3    H245750   1.606   3.863   2.431  0.1042  0.5273 -0.2886
 8087TIP3   OH245751   6.035   0.955   1.598 -0.2382 -0.3277  0.2455
 8087TIP3    H145752   5.955   0.913   1.631  0.0885 -0.9188  0.3043
 8087TIP3    H245753   6.094   0.954   1.673 -0.2093  0.2114  0.2346
 8088TIP3   OH245754   5.903   2.036  13.682  0.0600  0.1124  0.1236
 8088TIP3    H145755   5.830   2.032  13.744 -0.6601 -0.1620 -0.7376
 8088TIP3    H245756   5.966   2.095  13.724 -0.2577 -0.3280  1.2764
 8089TIP3   OH245757   3.717   6.404   0.919  0.7434  0.4277  0.5227
 8089TIP3    H145758   3.709   6.469   0.989 -0.5229  0.3498  0.4801
 8089TIP3    H245759   3.674   6.445   0.844 -0.7375 -0.7201  0.7045
 8090TIP3   OH245760   4.860   0.291   5.257  0.0886 -0.3575 -0.0358
 8090TIP3    H145761   4.933   0.262   5.312  0.7230  0.8161 -0.2352
 8090TIP3    H245762   4.806   0.344   5.315 -0.0200 -0.3175 -0.1735
 8091TIP3   OH245763   0.322   1.280   3.456 -0.1195  0.3809  0.0489
 8091TIP3    H145764   0.328   1.185   3.455  1.0036  0.4261 -1.1966
 8091TIP3    H245765   0.327   1.305   3.363  1.4670  1.7136  0.4348
 8092TIP3   OH245766   5.572   4.822   0.990  0.1711  0.1952 -0.1983
 8092TIP3    H145767   5.544   4.890   0.929 -0.2949 -0.6977 -1.0025
 8092TIP3    H245768   5.563   4.863   1.076  1.0821  1.5681 -0.7083
 8093TIP3   OH245769   2.297   4.477  16.433  0.2075 -0.4219 -0.4260
 8093TIP3    H145770   2.384   4.516  16.438 -0.2953  0.6389  0.8589
 8093TIP3    H245771   2.237   4.550  16.450 -1.0387 -0.8140 -2.7262
 8094TIP3   OH245772   4.996   5.827   6.115  0.1305 -0.0044 -0.3875
 8094TIP3    H145773   4.968   5.809   6.205 -0.0523 -2.3951 -0.8642
 8094TIP3    H245774   4.915   5.844   6.067  0.3074  2.7639  0.0927
 8095TIP3   OH245775   0.349   3.975  15.078  0.3822  0.0769 -0.0102
 8095TIP3    H145776   0.307   4.060  15.063  0.1504 -0.2368 -1.2295
 8095TIP3    H245777   0.293   3.913  15.032  1.0584 -0.6182  0.0903
 8096TIP3   OH245778   2.197   1.054  16.397 -0.7604  0.2695  0.3144
 8096TIP3    H145779   2.255   1.081  16.326 -0.2483  3.4082  1.7505
 8096TIP3    H245780   2.109   1.065  16.363 -0.5275 -0.2679 -0.4814
 8097TIP3   OH245781   6.021   0.130   3.931  0.2170 -0.2675 -0.4169
 8097TIP3    H145782   5.984   0.120   4.019 -1.5764 -2.2200 -1.2799
 8097TIP3    H245783   5.947   0.111   3.872  1.7705 -0.7981 -2.3085
 8098TIP3   OH245784   5.576   1.192   2.822  0.6729 -0.7702 -0.4482
 8098TIP3    H145785   5.668   1.192   2.847  0.2234  0.2511  1.3751
 8098TIP3    H245786   5.564   1.274   2.774  0.1725  0.5217  1.7479
 8099TIP3   OH245787   5.116   6.630  11.461  0.1088  0.3712 -0.0029
 8099TIP3    H145788   5.087   6.583  11.383 -0.2049  0.1976  0.2169
 8099TIP3    H245789   5.207   6.652  11.442  0.0836  0.1941 -0.3535
 8100TIP3   OH245790   5.845   2.294   5.584 -0.2102 -0.2480  0.2218
 8100TIP3    H145791   5.864   2.352   5.658  0.0834 -1.4126  1.0737
 8100TIP3    H245792   5.769   2.243   5.613 -0.9479  0.2175 -0.8260
 8101TIP3   OH245793   2.573   3.591   0.762 -0.3885  0.0088  0.5374
 8101TIP3    H145794   2.622   3.543   0.829 -0.2171  0.1092  0.4852
 8101TIP3    H245795   2.516   3.525   0.723 -0.2463 -0.1261  0.5537
 8102TIP3   OH245796   4.043   3.219  15.726  0.2536 -0.0501  0.3354
 8102TIP3    H145797   4.053   3.170  15.644  0.0617 -1.1891  0.9832
 8102TIP3    H245798   3.964   3.272  15.712 -0.1558 -0.7323  0.0256
 8103TIP3   OH245799   3.324   4.536  13.395 -0.2193 -0.5336 -0.7029
 8103TIP3    H145800   3.328   4.617  13.345 -0.9739 -0.8378 -1.2797
 8103TIP3    H245801   3.325   4.467  13.329 -0.7037 -0.9594 -0.2757
 8104TIP3   OH245802   1.969   4.299  13.831 -0.5683 -0.2739  0.0263
 8104TIP3    H145803   1.894   4.343  13.790 -0.3655 -1.2491 -1.4323
 8104TIP3    H245804   1.936   4.213  13.856 -0.0972 -0.4873 -0.0763
 8105TIP3   OH245805   4.224   0.180   3.459 -0.1327 -0.3513  0.2975
 8105TIP3    H145806   4.193   0.096   3.425  0.6969 -1.5553  2.3198
 8105TIP3    H245807   4.235   0.165   3.553  0.9442  1.7563  0.5658
 8106TIP3   OH245808   6.298   2.660  12.054 -0.1012  0.2404  0.4220
 8106TIP3    H145809   6.290   2.754  12.071 -0.3408  0.6290 -1.5565
 8106TIP3    H245810   6.385   2.649  12.016 -0.3547 -0.1950 -0.0561
 8107TIP3   OH245811   4.411   4.152   3.243  0.5558  0.1774 -0.6737
 8107TIP3    H145812   4.366   4.096   3.305  0.5036 -1.0007 -1.7225
 8107TIP3    H245813   4.499   4.115   3.237  0.7154  0.5850 -0.9138
 8108TIP3   OH245814   4.277   0.592   0.981  0.1499  0.0787  0.5664
 8108TIP3    H145815   4.268   0.507   0.938  1.1858  0.1128  0.2525
 8108TIP3    H245816   4.227   0.583   1.062  0.5162 -0.9483  0.7000
 8109TIP3   OH245817   5.326   4.610  14.795  0.7390 -0.0905  0.0672
 8109TIP3    H145818   5.259   4.546  14.771  0.2288  1.1869 -2.2711
 8109TIP3    H245819   5.404   4.581  14.748  1.0581 -0.0472  0.5657
 8110TIP3   OH245820   4.712   1.949   2.856  0.0579 -0.4348  0.4217
 8110TIP3    H145821   4.652   2.014   2.893  1.7933  1.5009  0.0247
 8110TIP3    H245822   4.699   1.956   2.762  0.6092 -0.2593  0.3517
 8111TIP3   OH245823   0.054   2.489  14.531 -0.1550  0.3064 -0.4844
 8111TIP3    H145824   0.009   2.457  14.609  0.8477 -0.4871 -0.1959
 8111TIP3    H245825   0.074   2.410  14.481 -1.5709  0.8703 -2.0168
 8112TIP3   OH245826   0.521   0.202  13.525 -0.2045 -0.3011  0.2645
 8112TIP3    H145827   0.607   0.166  13.505  0.6457  0.6357  2.0259
 8112TIP3    H245828   0.496   0.159  13.607 -0.9165  0.2582  0.3490
 8113TIP3   OH245829   1.767   3.070  15.247 -0.2401 -0.0400  0.3494
 8113TIP3    H145830   1.827   3.100  15.315  0.0385 -0.2209  0.1831
 8113TIP3    H245831   1.719   3.149  15.222 -0.3474  0.0287  0.7550
 8114TIP3   OH245832   0.585   3.677  13.526  0.3735  0.1021 -0.5817
 8114TIP3    H145833   0.664   3.688  13.580  0.6672 -0.7485 -0.8125
 8114TIP3    H245834   0.520   3.640  13.585  0.2262  0.5609 -0.4546
 8115TIP3   OH245835   5.105   0.994   0.874  0.2322 -1.0175  0.1216
 8115TIP3    H145836   5.174   1.058   0.860  0.4891 -1.6717 -1.9072
 8115TIP3    H245837   5.027   1.034   0.836  0.0293 -1.2728  0.2632
 8116TIP3   OH245838   0.086   4.471  13.664  0.4947 -0.1694 -0.9088
 8116TIP3    H145839   0.057   4.561  13.649  0.4749 -0.4313 -2.6286
 8116TIP3    H245840   0.076   4.428  13.580  2.0679 -1.3515 -0.5489
 8117TIP3   OH245841   5.969   5.248   2.346 -0.0810 -0.6687  0.3378
 8117TIP3    H145842   5.931   5.174   2.395 -2.3671 -0.5323 -1.1266
 8117TIP3    H245843   5.941   5.326   2.394 -2.0985 -0.5483 -0.9549
 8118TIP3   OH245844   1.917   4.922   5.874  0.4642  0.5290 -0.1912
 8118TIP3    H145845   1.880   4.943   5.960  2.6109 -0.1454  0.9995
 8118TIP3    H245846   1.854   4.957   5.811 -1.2877  0.8830  1.6430
 8119TIP3   OH245847   4.808   3.198  12.599 -0.4093  0.0639 -0.7256
 8119TIP3    H145848   4.852   3.113  12.595  0.4278  0.4910 -0.8280
 8119TIP3    H245849   4.725   3.184  12.552 -0.2313 -0.6666 -0.8332
 8120TIP3   OH245850   6.439   0.707   3.042 -0.3726 -0.0529 -0.1721
 8120TIP3    H145851   6.507   0.683   2.979 -1.5338  1.4913 -2.1226
 8120TIP3    H245852   6.368   0.643   3.026 -0.8045  0.5472 -0.7215
 8121TIP3   OH245853   4.760   4.470  14.768  0.2886  0.0201 -0.1763
 8121TIP3    H145854   4.735   4.447  14.679 -1.4031  0.0332  0.2564
 8121TIP3    H245855   4.692   4.431  14.823  1.2081  0.1397  1.1064
 8122TIP3   OH245856   0.479   5.492  13.289 -0.4064 -0.3849  0.4967
 8122TIP3    H145857   0.427   5.441  13.351 -2.1366 -0.9805 -1.3303
 8122TIP3    H245858   0.476   5.442  13.208 -0.0785  1.4187 -0.7004
 8123TIP3   OH245859   2.840   6.136   6.089 -0.4748 -0.0358  0.5667
 8123TIP3    H145860   2.861   6.061   6.145 -0.1764 -0.1338  0.3318
 8123TIP3    H245861   2.925   6.162   6.052 -0.8271 -0.7498 -0.7940
 8124TIP3   OH245862   3.859   6.103   2.256 -0.2685  0.8457 -0.2220
 8124TIP3    H145863   3.952   6.123   2.243  0.3747 -0.8180  1.4634
 8124TIP3    H245864   3.815   6.186   2.238  1.9202  2.9375  2.9894
 8125TIP3   OH245865   0.583   2.175  14.022 -0.7710  0.1009  0.4530
 8125TIP3    H145866   0.602   2.234  14.096 -2.0491  0.8634  0.2080
 8125TIP3    H245867   0.626   2.093  14.046  1.2532  1.1549  0.7168
 8126TIP3   OH245868   0.859   4.629   5.676  0.6286 -0.2542  0.0704
 8126TIP3    H145869   0.814   4.712   5.658 -0.2267 -0.6405  0.3568
 8126TIP3    H245870   0.938   4.655   5.723  0.4527  0.4111  0.0203
 8127TIP3   OH245871   0.662   0.252   4.215  0.4807  0.4989 -0.6524
 8127TIP3    H145872   0.649   0.197   4.137  1.3756 -0.0434 -0.4291
 8127TIP3    H245873   0.734   0.311   4.191  1.5754 -0.4748  0.1670
 8128TIP3   OH245874   3.991   6.434   3.876  0.2195 -0.1057  0.4858
 8128TIP3    H145875   4.077   6.473   3.890  0.4515 -0.6960  0.7822
 8128TIP3    H245876   3.942   6.499   3.827  0.7132  0.3935  0.6452
 8129TIP3   OH245877   4.955   3.844  15.417 -0.0409 -0.5740 -0.1418
 8129TIP3    H145878   4.913   3.829  15.502 -0.5680 -1.4594 -0.5481
 8129TIP3    H245879   4.920   3.775  15.361  0.0255  0.2195 -1.1782
 8130TIP3   OH245880   0.515   0.215  10.761  0.0747 -0.0014 -0.1298
 8130TIP3    H145881   0.503   0.120  10.766  0.1971 -0.0385 -0.5250
 8130TIP3    H245882   0.500   0.246  10.851  0.6121 -0.4643  0.1228
 8131TIP3   OH245883   3.755   0.771   0.600  0.4613  0.3033 -0.0082
 8131TIP3    H145884   3.842   0.788   0.637  0.3540  1.2409 -0.1713
 8131TIP3    H245885   3.771   0.706   0.531  0.7286 -1.1354  1.3424
 8132TIP3   OH245886   1.852   1.642   0.207 -0.3403 -0.3565 -0.1434
 8132TIP3    H145887   1.907   1.700   0.260  0.1643 -1.8013  0.9915
 8132TIP3    H245888   1.876   1.661   0.117  0.0120  0.9743  0.2105
 8133TIP3   OH245889   1.347   1.161   0.033 -0.4924 -0.1812  0.0636
 8133TIP3    H145890   1.254   1.182   0.017 -0.2445 -0.4643 -2.1185
 8133TIP3    H245891   1.368   1.097  -0.035  1.2000 -0.4708  0.8292
 8134TIP3   OH245892   0.904   5.302   5.933  0.2849 -0.3692 -0.1455
 8134TIP3    H145893   0.925   5.250   6.011 -1.1385  0.0590  0.5554
 8134TIP3    H245894   0.845   5.370   5.965  0.4785  0.4253 -1.4299
 8135TIP3   OH245895   0.027   2.203   2.896  0.0291 -0.3100  0.4162
 8135TIP3    H145896   0.005   2.111   2.879 -0.5202  0.3059 -2.7372
 8135TIP3    H245897  -0.056   2.243   2.922 -0.3989 -0.1459 -1.1189
 8136TIP3   OH245898   3.155   5.914  15.329 -0.1679  0.0303 -0.0647
 8136TIP3    H145899   3.249   5.924  15.346  0.0806 -0.6458 -0.9853
 8136TIP3    H245900   3.118   5.999  15.352  0.5393  0.0427  1.1217
 8137TIP3   OH245901   0.842   3.896  11.470 -0.1331  0.0791  0.2520
 8137TIP3    H145902   0.791   3.835  11.524  1.0709 -0.1164  1.2106
 8137TIP3    H245903   0.875   3.842  11.397  1.1716 -0.5443  1.2513
 8138TIP3   OH245904   2.017   6.108   2.763 -0.0311  0.1663  0.0935
 8138TIP3    H145905   2.012   6.105   2.667 -0.5771 -0.8872  0.1370
 8138TIP3    H245906   1.932   6.143   2.790 -0.2168 -0.3690  0.2160
 8139TIP3   OH245907   0.784   5.529   4.900 -0.4349  0.1418  0.2649
 8139TIP3    H145908   0.853   5.472   4.864 -1.5013 -1.8716  1.2136
 8139TIP3    H245909   0.789   5.516   4.995 -0.3612  2.1410  0.5797
 8140TIP3   OH245910   6.342   4.490   0.181  0.3152  0.2089  0.4885
 8140TIP3    H145911   6.419   4.526   0.225 -0.5844  0.3103  2.0292
 8140TIP3    H245912   6.301   4.566   0.139  1.3381  0.0627 -0.8396
 8141TIP3   OH245913   2.591   4.122   0.131  0.0840  0.4246  0.5059
 8141TIP3    H145914   2.647   4.060   0.177 -1.6023 -2.3590 -0.9606
 8141TIP3    H245915   2.507   4.119   0.178  0.0394  1.8842  0.5845
 8142TIP3   OH245916   6.327   4.984  14.330  0.2867  0.9185  0.4047
 8142TIP3    H145917   6.233   4.972  14.343  0.2769 -2.9758 -1.7447
 8142TIP3    H245918   6.368   4.935  14.401  0.5296 -1.0863 -1.0436
 8143TIP3   OH245919   0.427   1.910  16.799  0.6509 -0.2167 -0.0999
 8143TIP3    H145920   0.345   1.951  16.828  0.3195 -0.4141 -0.7378
 8143TIP3    H245921   0.495   1.954  16.850  0.3602  1.4956 -1.1072
 8144TIP3   OH245922   3.626   4.913  14.170  0.0529 -0.2266 -0.5666
 8144TIP3    H145923   3.711   4.942  14.137  0.2288 -0.2733 -0.1580
 8144TIP3    H245924   3.587   4.865  14.097  0.8602 -1.1826 -0.3856
 8145TIP3   OH245925   0.473   1.725  12.633 -0.4039 -0.4697 -0.5001
 8145TIP3    H145926   0.394   1.749  12.585 -0.1321  1.2473 -0.1641
 8145TIP3    H245927   0.541   1.784  12.600  0.5952 -1.4917 -0.3411
 8146TIP3   OH245928   2.057   1.544   4.560 -0.0464 -0.0955  0.3465
 8146TIP3    H145929   2.112   1.616   4.588 -1.1580  1.0126 -0.2383
 8146TIP3    H245930   2.099   1.510   4.481  0.2089  0.2373  0.3400
 8147TIP3   OH245931   2.869   3.332   0.593  0.6013 -0.3062  0.0140
 8147TIP3    H145932   2.905   3.304   0.677 -0.8659  0.5845  0.9803
 8147TIP3    H245933   2.777   3.303   0.595  0.2061  0.8204 -0.7471
 8148TIP3   OH245934   5.623   2.452  12.719 -0.3223  0.0508 -0.0143
 8148TIP3    H145935   5.698   2.511  12.729  0.2844 -0.3469 -1.8858
 8148TIP3    H245936   5.626   2.397  12.798 -0.1140  1.5983  1.1218
 8149TIP3   OH245937   2.161   3.593  10.973 -0.5014  0.7612 -0.1861
 8149TIP3    H145938   2.176   3.501  10.949 -1.1035  0.7717 -0.6262
 8149TIP3    H245939   2.113   3.629  10.898  1.0314  1.8376 -0.6987
 8150TIP3   OH245940   0.539   6.085   0.755  0.2220 -0.4086  0.0947
 8150TIP3    H145941   0.534   5.991   0.773  1.5522 -0.7012 -0.9228
 8150TIP3    H245942   0.558   6.125   0.840 -0.9802 -0.9681  0.6575
 8151TIP3   OH245943   6.441   0.076  16.362  0.7257  0.2424 -0.3672
 8151TIP3    H145944   6.386   0.087  16.440  0.5165  0.5262 -0.5502
 8151TIP3    H245945   6.495   0.000  16.381 -0.3524 -0.5998 -0.5474
 8152TIP3   OH245946   3.200   3.676  11.452 -0.6639  0.6207  0.5689
 8152TIP3    H145947   3.286   3.708  11.427  0.3725  0.5652  3.7128
 8152TIP3    H245948   3.140   3.747  11.426  0.6994  1.9690  0.9740
 8153TIP3   OH245949   0.567   2.049   1.931  0.0870  0.0296  0.3249
 8153TIP3    H145950   0.513   2.128   1.932 -2.8492 -1.7823 -1.0963
 8153TIP3    H245951   0.640   2.070   1.873 -0.3655  1.8599  0.3837
 8154TIP3   OH245952   6.473   0.421  15.427  0.7762  0.2585  0.4383
 8154TIP3    H145953   6.402   0.445  15.487 -0.1261 -1.8591  0.3329
 8154TIP3    H245954   6.517   0.503  15.407 -1.1899  1.5440  1.1048
 8155TIP3   OH245955   1.472   4.572  12.544 -0.4480 -0.0811  0.1177
 8155TIP3    H145956   1.453   4.497  12.488  1.7418 -0.3603 -0.3323
 8155TIP3    H245957   1.567   4.571  12.555 -0.6508  0.6702  2.8636
 8156TIP3   OH245958   0.383   0.482   2.142 -0.2986 -0.1985 -0.0220
 8156TIP3    H145959   0.426   0.559   2.105  2.9965 -1.5203  0.7467
 8156TIP3    H245960   0.355   0.431   2.066  0.7370  0.0838 -0.6080
 8157TIP3   OH245961   0.797   5.497   0.795 -0.2708  0.6464 -0.1142
 8157TIP3    H145962   0.726   5.518   0.855 -0.6781  0.8655 -0.6629
 8157TIP3    H245963   0.789   5.402   0.780 -1.2989  0.8811 -1.2193
 8158TIP3   OH245964   1.303   3.210   5.027  0.0870  0.0048  0.3853
 8158TIP3    H145965   1.271   3.144   5.088 -2.2140 -0.1465 -0.8629
 8158TIP3    H245966   1.249   3.287   5.044 -0.1654  0.1667 -0.9716
 8159TIP3   OH245967   5.281   6.005   2.074 -0.1352  0.2489 -0.0638
 8159TIP3    H145968   5.195   5.971   2.097  0.4431  0.5125  2.9132
 8159TIP3    H245969   5.272   6.100   2.082  0.2277  0.3213 -0.5002
 8160TIP3   OH245970   2.100   5.118  11.446  0.4434  0.0301 -0.1309
 8160TIP3    H145971   2.131   5.201  11.483  0.3013 -0.4579  1.1557
 8160TIP3    H245972   2.168   5.092  11.385  1.5771  0.0260  1.0860
 8161TIP3   OH245973   4.080   3.761  16.978  0.0562  0.1475 -0.5193
 8161TIP3    H145974   4.151   3.716  16.934  0.7210  0.3083  0.3633
 8161TIP3    H245975   4.078   3.724  17.066 -0.9317  0.1698 -0.5120
 8162TIP3   OH245976   6.410   1.190   5.965 -0.8483  0.1945  0.0144
 8162TIP3    H145977   6.378   1.279   5.951  1.4613  0.7666 -2.4478
 8162TIP3    H245978   6.394   1.145   5.882 -1.0227 -1.3978  0.8769
 8163TIP3   OH245979   5.866   2.949   4.749  0.4570 -0.0732  0.0885
 8163TIP3    H145980   5.962   2.942   4.744  0.6908  2.6261 -0.3487
 8163TIP3    H245981   5.849   2.973   4.840  0.1140 -1.1684  0.3256
 8164TIP3   OH245982   1.054   1.572  14.753 -0.2186 -0.4752  0.1433
 8164TIP3    H145983   0.985   1.507  14.768  0.1593 -0.5616  1.5744
 8164TIP3    H245984   1.123   1.524  14.707 -0.0490 -1.0342  0.9666
 8165TIP3   OH245985   1.626   4.565   2.742  0.2874  0.3881  0.0920
 8165TIP3    H145986   1.567   4.634   2.712  0.3136  0.6517  0.6355
 8165TIP3    H245987   1.651   4.519   2.662 -0.4215  0.4558 -0.1812
 8166TIP3   OH245988   0.615   4.153  17.183  0.0529 -0.3408  0.0144
 8166TIP3    H145989   0.587   4.080  17.237 -1.3530  0.6554  0.7123
 8166TIP3    H245990   0.704   4.173  17.212 -0.5750  0.0021  1.8240
 8167TIP3   OH245991   6.006   2.915   1.196  0.0781  0.3521 -0.0376
 8167TIP3    H145992   6.047   2.932   1.111  1.4992 -0.5360  0.4249
 8167TIP3    H245993   6.060   2.845   1.235 -1.6286 -0.5670  0.8163
 8168TIP3   OH245994   2.784   4.769   4.569 -0.0039  0.0116 -0.3716
 8168TIP3    H145995   2.733   4.827   4.513  0.8761 -0.2110 -1.4261
 8168TIP3    H245996   2.874   4.801   4.562  0.0857  0.1826  1.1879
 8169TIP3   OH245997   2.044   6.815  16.010  0.4460 -0.0401  0.1580
 8169TIP3    H145998   2.026   6.908  16.002 -1.8078 -0.2853  1.5048
 8169TIP3    H245999   1.986   6.774  15.946 -1.4330 -0.6869  2.1840
 8170TIP3   OH246000   6.189   3.574   6.670  0.2501  0.1244 -0.2467
 8170TIP3    H146001   6.166   3.619   6.588  0.4045 -0.0882 -0.4093
 8170TIP3    H246002   6.230   3.492   6.641  1.5632  0.6622  0.0255
 8171TIP3   OH246003   6.347   5.260  11.176  0.0545 -0.2117  0.2379
 8171TIP3    H146004   6.315   5.187  11.123 -0.3852 -1.0161  1.5419
 8171TIP3    H246005   6.279   5.327  11.168  0.3424 -0.0229 -0.7741
 8172TIP3   OH246006   5.622   4.057  11.633 -0.2981  0.3733 -0.2374
 8172TIP3    H146007   5.584   4.138  11.667 -3.4060 -0.9873 -0.1090
 8172TIP3    H246008   5.614   4.066  11.538 -4.0014 -1.0486 -0.2143
 8173TIP3   OH246009   3.381   5.620  15.435  0.0221 -0.2056  0.0056
 8173TIP3    H146010   3.316   5.555  15.409 -0.3669 -0.2213  0.9626
 8173TIP3    H246011   3.408   5.662  15.354  0.4878 -1.7424 -0.6747
 8174TIP3   OH246012   2.365   5.450  10.888  0.0847 -0.0902 -0.1261
 8174TIP3    H146013   2.447   5.404  10.872 -0.3847 -0.9419 -0.2137
 8174TIP3    H246014   2.390   5.541  10.904  1.1361 -0.5623  1.0575
 8175TIP3   OH246015   6.276   5.369   0.412  0.0839 -0.4409 -0.2519
 8175TIP3    H146016   6.315   5.311   0.478  0.8576 -0.5161 -0.7711
 8175TIP3    H246017   6.182   5.348   0.415  0.1330 -0.5647  0.6962
 8176TIP3   OH246018   0.896   5.477   2.325 -0.1046  0.6540  0.2565
 8176TIP3    H146019   0.941   5.519   2.398  0.7010 -0.3583  0.3467
 8176TIP3    H246020   0.964   5.463   2.259 -0.8368  1.6304 -0.7422
 8177TIP3   OH246021   0.698   3.486   3.231 -0.4130 -0.4283 -0.5016
 8177TIP3    H146022   0.671   3.440   3.152 -1.7376  0.8300 -0.8261
 8177TIP3    H246023   0.618   3.494   3.283  0.3478 -0.8520  0.7761
 8178TIP3   OH246024   6.114   1.825  14.452  0.6128 -0.2498 -0.0147
 8178TIP3    H146025   6.034   1.773  14.444  1.0759 -1.2534  1.4845
 8178TIP3    H246026   6.160   1.809  14.369  1.0088 -2.7839  0.6017
 8179TIP3   OH246027   0.132   5.396  16.727  0.3188  0.2543  1.0051
 8179TIP3    H146028   0.122   5.459  16.799 -0.4410 -0.8418  1.9110
 8179TIP3    H246029   0.227   5.387  16.716  0.4455  1.8787  0.5348
 8180TIP3   OH246030   4.551   4.629  14.268  0.0457  0.4744  0.4928
 8180TIP3    H146031   4.488   4.565  14.303  1.3259 -0.9584  0.2687
 8180TIP3    H246032   4.615   4.640  14.338  0.4309  0.6755  0.1092
 8181TIP3   OH246033   5.018   3.505   2.481 -0.2637 -0.0580 -0.0826
 8181TIP3    H146034   4.958   3.526   2.553  0.1994 -1.9933  0.9413
 8181TIP3    H246035   5.097   3.473   2.525  0.1104 -1.0842 -1.4430
 8182TIP3   OH246036   5.033   1.863   0.041 -0.2039  0.1757 -0.0014
 8182TIP3    H146037   5.031   1.767   0.046 -0.5382  0.1922  0.2049
 8182TIP3    H246038   4.975   1.884  -0.032 -1.0987  0.2718  0.7152
 8183TIP3   OH246039   5.594   0.902  13.424 -0.0969  0.2760  0.9481
 8183TIP3    H146040   5.508   0.899  13.466 -1.1533  2.2349 -0.8791
 8183TIP3    H246041   5.643   0.968  13.472  0.0205 -0.1043  1.3532
 8184TIP3   OH246042   6.529   3.548  12.022 -0.4719 -0.1216  0.0402
 8184TIP3    H146043   6.470   3.596  12.081 -0.1395 -0.7443  0.8861
 8184TIP3    H246044   6.597   3.513  12.078  1.3412  1.4595 -1.0463
 8185TIP3   OH246045   2.717   1.564   2.961  0.3889  0.0793  0.5826
 8185TIP3    H146046   2.764   1.644   2.982  1.9538 -0.3869 -0.9480
 8185TIP3    H246047   2.771   1.494   2.996  0.9015 -0.4662 -1.1873
 8186TIP3   OH246048   4.540   5.133  13.915  0.1781  0.0071 -0.0365
 8186TIP3    H146049   4.541   5.176  13.829  2.5540  0.1053 -0.0357
 8186TIP3    H246050   4.631   5.110  13.931 -0.3269 -0.7204  2.1317
 8187TIP3   OH246051   1.451   5.620  14.537  0.0154 -0.3425 -0.0343
 8187TIP3    H146052   1.517   5.687  14.518  0.1511 -0.6080 -0.5019
 8187TIP3    H246053   1.479   5.544  14.487 -1.0687 -0.2297 -0.8400
 8188TIP3   OH246054   6.107   1.287  14.148  0.8091  0.4506  0.3964
 8188TIP3    H146055   6.179   1.329  14.194  1.2640  1.0683 -0.8416
 8188TIP3    H246056   6.139   1.273  14.059  0.5514 -2.1854  0.6175
 8189TIP3   OH246057   3.862   1.791  11.868  0.0611 -0.3977  0.2946
 8189TIP3    H146058   3.952   1.822  11.869  0.5243 -1.6766  0.1483
 8189TIP3    H246059   3.809   1.871  11.871  1.1821  0.4318 -0.9048
 8190TIP3   OH246060   3.486   4.375  16.068  0.1014  1.0499  0.7928
 8190TIP3    H146061   3.484   4.384  16.163  0.0085 -2.5465  1.2561
 8190TIP3    H246062   3.397   4.399  16.040  0.4673  3.3109  1.3854
 8191TIP3   OH246063   5.169   4.959  17.078 -0.1821  0.4557  0.1278
 8191TIP3    H146064   5.100   5.021  17.051 -0.7526  0.1782  0.9081
 8191TIP3    H246065   5.155   4.948  17.172 -0.4959 -1.3443 -0.0943
 8192TIP3   OH246066   5.969   6.288   1.889 -0.3085 -0.2342  0.0518
 8192TIP3    H146067   5.973   6.321   1.799 -0.1535  0.0075  0.1429
 8192TIP3    H246068   5.945   6.365   1.941 -1.8732 -0.6896  0.0550
 8193TIP3   OH246069   5.127   2.658   2.355 -0.1296  0.0099 -0.1941
 8193TIP3    H146070   5.050   2.640   2.409 -0.0433  1.3706  0.4340
 8193TIP3    H246071   5.108   2.742   2.313  1.2214  0.6648  0.4260
 8194TIP3   OH246072   0.564   3.657  13.833 -0.1320  0.1335 -0.0021
 8194TIP3    H146073   0.470   3.654  13.851  0.1118 -0.3152  1.3073
 8194TIP3    H246074   0.602   3.593  13.893  1.0766  0.8063 -0.0154
 8195TIP3   OH246075   3.297   4.625  13.920  0.2356  0.4973 -0.0791
 8195TIP3    H146076   3.260   4.708  13.951  0.9243  0.3323  1.2600
 8195TIP3    H246077   3.228   4.587  13.866 -1.2402  0.6055  1.6273
 8196TIP3   OH246078   0.417   3.221   5.387 -0.0726 -0.0708  0.0462
 8196TIP3    H146079   0.423   3.236   5.481 -0.7111  2.4372 -0.2240
 8196TIP3    H246080   0.325   3.200   5.372 -0.1895  0.5053 -0.0913
 8197TIP3   OH246081   2.722   4.662   3.091 -0.1237 -0.1459 -0.2901
 8197TIP3    H146082   2.693   4.643   3.180  0.0140  0.3133 -0.1430
 8197TIP3    H246083   2.698   4.584   3.040  2.0023 -1.5066  0.6377
 8198TIP3   OH246084   1.251   2.988  14.600  0.4324  0.2197  0.1324
 8198TIP3    H146085   1.169   2.940  14.584  0.7714 -0.3097 -0.0338
 8198TIP3    H246086   1.254   2.999  14.695 -0.5053  1.4499  0.0442
 8199TIP3   OH246087   1.883   0.658  11.689 -0.0178  0.2592  0.0586
 8199TIP3    H146088   1.857   0.629  11.776  0.6036  4.4014  1.8376
 8199TIP3    H246089   1.977   0.641  11.685 -0.0297  0.1541  0.2020
 8200TIP3   OH246090   1.195   5.239   5.391 -0.1506  0.0596 -0.4654
 8200TIP3    H146091   1.137   5.168   5.418 -0.4680  1.0391  1.5896
 8200TIP3    H246092   1.269   5.235   5.451 -1.1297  2.6451  1.0871
 8201TIP3   OH246093   2.738   6.613   1.018  0.0734  0.6067 -0.2753
 8201TIP3    H146094   2.674   6.609   1.089  0.3944  1.0641  0.0502
 8201TIP3    H246095   2.727   6.531   0.970  0.1027  0.1309  0.5238
 8202TIP3   OH246096   5.017   0.375   5.903 -0.4857 -0.1861 -0.8388
 8202TIP3    H146097   4.982   0.357   5.990  2.2990 -0.9164  0.2359
 8202TIP3    H246098   5.074   0.450   5.915 -0.0122 -0.3307 -2.0333
 8203TIP3   OH246099   3.281   2.581   2.472  0.3328 -0.2407  0.2568
 8203TIP3    H146100   3.265   2.658   2.416  3.4209 -0.4474 -1.0968
 8203TIP3    H246101   3.281   2.616   2.561  1.2634  1.3013 -0.3010
 8204TIP3   OH246102   6.588   4.956  13.037 -0.3030 -0.0588 -0.2395
 8204TIP3    H146103   6.616   4.882  12.983 -1.3743 -0.1351 -0.7185
 8204TIP3    H246104   6.538   5.012  12.977  0.6735  1.1913  0.0528
 8205TIP3   OH246105   3.119   2.150   1.016 -0.5776 -0.0174  0.2031
 8205TIP3    H146106   3.050   2.163   0.951 -0.9079  0.4183  0.6297
 8205TIP3    H246107   3.172   2.078   0.982  0.1496  1.1766 -1.2776
 8206TIP3   OH246108   2.596   5.871   1.333  0.5031 -0.0696 -0.4149
 8206TIP3    H146109   2.501   5.884   1.330  0.4909 -0.3183 -1.6645
 8206TIP3    H246110   2.619   5.884   1.425 -0.5955  0.9790 -0.2634
 8207TIP3   OH246111   0.696   2.942  14.852  0.1475  0.2425  0.3484
 8207TIP3    H146112   0.792   2.936  14.854  0.3009  2.4220  1.7404
 8207TIP3    H246113   0.668   2.884  14.923  0.0771 -3.5001 -2.3890
 8208TIP3   OH246114   2.234   0.309   5.562 -0.5302 -0.1936  0.0122
 8208TIP3    H146115   2.293   0.370   5.519 -0.3576 -0.1569  0.2943
 8208TIP3    H246116   2.217   0.348   5.648 -0.9773 -0.1973 -0.0767
 8209TIP3   OH246117   3.494   5.854   2.148  0.5449  0.0314  0.7332
 8209TIP3    H146118   3.503   5.881   2.057  2.6220 -1.0837  0.5388
 8209TIP3    H246119   3.442   5.774   2.145  0.2792  0.2118  0.5660
 8210TIP3   OH246120   3.798   3.001  14.088 -0.0923 -0.1432 -0.4665
 8210TIP3    H146121   3.843   2.995  14.172  2.8120  0.6926 -1.7986
 8210TIP3    H246122   3.730   3.067  14.101 -1.9659 -2.3734  2.0032
 8211TIP3   OH246123   6.398   1.695   2.713  0.4764  0.0102  0.1347
 8211TIP3    H146124   6.316   1.738   2.734  0.4089 -0.7687  1.6315
 8211TIP3    H246125   6.375   1.630   2.647 -0.3555 -0.9360  1.3098
 8212TIP3   OH246126   2.851   5.383   0.527 -0.1877  0.3544 -0.1893
 8212TIP3    H146127   2.798   5.316   0.570 -0.9550  0.6781 -0.6046
 8212TIP3    H246128   2.921   5.334   0.485  0.1761 -0.0313  0.8287
 8213TIP3   OH246129   2.617   0.133   6.022  0.0046 -0.1086  0.2842
 8213TIP3    H146130   2.633   0.089   6.105  1.2728  0.0668  0.1614
 8213TIP3    H246131   2.694   0.189   6.010 -0.6736  0.6853 -0.4847
 8214TIP3   OH246132   0.648   6.641  14.096 -0.8024 -0.0309 -0.3081
 8214TIP3    H146133   0.728   6.588  14.092 -0.5097  0.3377  0.3885
 8214TIP3    H246134   0.633   6.668  14.005 -0.0545  0.0062 -0.4318
 8215TIP3   OH246135   0.150   5.018  14.327 -0.3667 -0.0473  0.1924
 8215TIP3    H146136   0.063   5.054  14.311 -0.2605  1.0905  1.9592
 8215TIP3    H246137   0.210   5.079  14.285 -0.3516 -0.0601  0.1952
 8216TIP3   OH246138   1.035   6.216   3.253  0.1210 -0.4766  0.1252
 8216TIP3    H146139   0.970   6.165   3.300 -0.7581 -0.5093 -1.0804
 8216TIP3    H246140   1.011   6.307   3.271  1.6770 -0.4044  2.2593
 8217TIP3   OH246141   6.438   6.511   5.892  0.5221 -0.3649 -0.6936
 8217TIP3    H146142   6.380   6.575   5.852  0.9641 -0.7002 -1.9229
 8217TIP3    H246143   6.477   6.557   5.967 -0.0883  0.3849 -0.8244
 8218TIP3   OH246144   4.753   5.340  13.453 -0.8099  0.5801  0.6270
 8218TIP3    H146145   4.701   5.415  13.424  0.3404  1.8786  1.7224
 8218TIP3    H246146   4.747   5.342  13.549 -1.9771 -1.6848  0.6530
 8219TIP3   OH246147   3.557   3.215   3.123 -0.1911 -0.4703 -0.4394
 8219TIP3    H146148   3.476   3.181   3.162 -0.7535  1.3151  0.0547
 8219TIP3    H246149   3.528   3.261   3.044  0.7355 -2.4260 -2.0216
 8220TIP3   OH246150   4.072   1.450  16.019 -0.7424  0.9423 -0.2665
 8220TIP3    H146151   4.167   1.464  16.019 -0.4593 -0.5520 -2.3927
 8220TIP3    H246152   4.061   1.367  16.067 -1.1618  1.7861  1.1698
 8221TIP3   OH246153   6.648   0.621  15.319  0.4015 -0.2772  0.0196
 8221TIP3    H146154   6.636   0.636  15.226  2.0870  1.8528  0.0601
 8221TIP3    H246155   6.703   0.693  15.348 -0.3300 -0.6810  2.7434
 8222TIP3   OH246156   2.962   2.024  11.193 -0.0878  0.2558 -0.4541
 8222TIP3    H146157   2.884   2.070  11.163 -1.2999 -2.0533 -1.0562
 8222TIP3    H246158   2.943   2.002  11.284 -0.4172 -0.8187 -0.7723
 8223TIP3   OH246159   5.946   1.849   5.206  0.4006  0.7798  0.0767
 8223TIP3    H146160   5.882   1.898   5.258 -2.8897 -0.1034 -2.7753
 8223TIP3    H246161   5.994   1.916   5.158 -1.6358  1.4907 -1.1308
 8224TIP3   OH246162   1.421   5.541   3.711 -0.5320  0.3626 -0.0852
 8224TIP3    H146163   1.328   5.535   3.691 -0.2930 -0.5958 -0.9844
 8224TIP3    H246164   1.463   5.550   3.625  0.2856 -0.5140  0.2091
 8225TIP3   OH246165   3.288   5.791   5.539  0.4157 -0.2755 -0.6242
 8225TIP3    H146166   3.198   5.783   5.570 -0.0572 -0.4614 -1.9793
 8225TIP3    H246167   3.341   5.746   5.605 -0.4506  0.0611  0.3097
 8226TIP3   OH246168   0.552   2.139  14.936 -0.6095 -0.0878 -0.5567
 8226TIP3    H146169   0.644   2.157  14.917 -1.2362  3.1703 -1.0378
 8226TIP3    H246170   0.541   2.164  15.028 -1.4524  1.9835 -1.1564
 8227TIP3   OH246171   5.747   1.116   0.712  0.4896 -0.2223  0.1204
 8227TIP3    H146172   5.748   1.084   0.802 -0.4081 -1.7083 -0.3545
 8227TIP3    H246173   5.655   1.115   0.687  0.8057 -0.6925 -1.1032
 8228TIP3   OH246174   5.271   1.241  13.910 -0.0060 -0.0526  0.9080
 8228TIP3    H146175   5.211   1.251  13.836  2.1515  1.1097 -0.7841
 8228TIP3    H246176   5.241   1.305  13.974 -1.9800 -1.1610  1.1939
 8229TIP3   OH246177   0.537   1.360   3.708  0.6197  0.3147  0.0658
 8229TIP3    H146178   0.607   1.421   3.731 -0.0907  0.6537  1.4379
 8229TIP3    H246179   0.457   1.411   3.717  0.1305 -0.3142 -0.6097
 8230TIP3   OH246180   2.625   5.345  14.076  0.3124 -0.1056 -0.2737
 8230TIP3    H146181   2.622   5.255  14.044 -2.7808 -0.7380  1.4418
 8230TIP3    H246182   2.669   5.339  14.161 -0.4217 -0.0868  0.1072
 8231TIP3   OH246183   1.721   2.370  14.455 -0.0400 -0.1311  0.4233
 8231TIP3    H146184   1.787   2.434  14.482 -1.3802  1.1809  0.7589
 8231TIP3    H246185   1.656   2.371  14.526 -1.0049 -0.4967 -0.4228
 8232TIP3   OH246186   6.745   5.190   3.879 -0.0400  1.0229 -0.4480
 8232TIP3    H146187   6.736   5.191   3.784 -0.3021  0.5497 -0.4307
 8232TIP3    H246188   6.681   5.126   3.909  0.7759  0.3719 -0.0344
 8233TIP3   OH246189   0.600   2.809  12.500  0.1117  0.1326 -0.1419
 8233TIP3    H146190   0.515   2.829  12.460  0.7321  0.0878 -1.5637
 8233TIP3    H246191   0.624   2.724  12.463  0.1721 -0.4982  1.3005
 8234TIP3   OH246192   3.607   2.603  16.633  0.2459 -0.1311  0.2071
 8234TIP3    H146193   3.551   2.648  16.697  1.9376  1.5183  0.6032
 8234TIP3    H246194   3.636   2.524  16.679 -1.5980 -0.9616  0.0337
 8235TIP3   OH246195   6.362   2.656  14.442  0.3417 -0.4155  0.1271
 8235TIP3    H146196   6.449   2.667  14.482  0.3841 -1.5226  0.3935
 8235TIP3    H246197   6.364   2.711  14.364  0.7208  0.8023  0.9595
 8236TIP3   OH246198   2.765   2.799  14.152  0.0340 -0.5714 -0.5140
 8236TIP3    H146199   2.775   2.715  14.109 -0.0994 -1.2864  0.7903
 8236TIP3    H246200   2.670   2.809  14.164 -0.3171  1.3967 -3.6738
 8237TIP3   OH246201   2.095   2.784  14.295  0.5710  0.2764 -0.3162
 8237TIP3    H146202   2.148   2.861  14.316 -1.5304  2.4968 -2.4625
 8237TIP3    H246203   2.090   2.784  14.199 -0.3046 -1.9915 -0.3266
 8238TIP3   OH246204   2.005   5.102   5.110 -0.1918 -0.3062  0.3075
 8238TIP3    H146205   2.074   5.168   5.111 -1.2244  0.8442 -0.7889
 8238TIP3    H246206   1.989   5.082   5.202  2.9493 -2.1507  0.6326
 8239TIP3   OH246207   2.021   1.327  13.364 -0.0399  0.0351 -0.2886
 8239TIP3    H146208   1.930   1.323  13.394  0.8428  1.0943  2.9750
 8239TIP3    H246209   2.069   1.276  13.429  1.8806  0.9239 -0.9521
 8240TIP3   OH246210   1.027   4.358   5.980 -0.4410  0.2024 -0.3711
 8240TIP3    H146211   1.059   4.422   6.043  0.6175 -0.2793 -0.3931
 8240TIP3    H246212   0.934   4.377   5.971 -0.7010  0.0042  1.6414
 8241TIP3   OH246213   6.494   5.269  17.179  0.1844 -0.4904 -0.1532
 8241TIP3    H146214   6.478   5.346  17.125  1.5007  0.4432  0.7387
 8241TIP3    H246215   6.505   5.303  17.267 -2.1199 -1.9983  0.8188
 8242TIP3   OH246216   2.212   6.377  16.641  0.1023  0.3460 -0.1908
 8242TIP3    H146217   2.171   6.377  16.554  0.2311 -0.7759 -0.2633
 8242TIP3    H246218   2.282   6.313  16.634 -0.2566 -0.1750  0.9188
 8243TIP3   OH246219   4.850   4.584   4.523 -0.0687  0.4571  0.9543
 8243TIP3    H146220   4.849   4.489   4.511 -0.3006  0.6577 -0.7965
 8243TIP3    H246221   4.764   4.604   4.562 -2.3964  0.4468 -3.5649
 8244TIP3   OH246222   1.838   1.186  15.181  0.1242 -0.1183  0.6215
 8244TIP3    H146223   1.877   1.108  15.142 -0.0233  0.3451 -0.4708
 8244TIP3    H246224   1.745   1.166  15.189  0.0191  0.0950 -0.0409
 8245TIP3   OH246225   2.741   1.406   1.202  0.2333 -0.1000 -0.0887
 8245TIP3    H146226   2.791   1.462   1.261 -1.2186  0.6187  0.5007
 8245TIP3    H246227   2.795   1.328   1.191  1.1113  0.3087  1.1685
 8246TIP3   OH246228   4.127   0.551   5.341 -0.1004 -0.2864 -0.4757
 8246TIP3    H146229   4.049   0.502   5.314  0.9820 -1.8010 -0.9566
 8246TIP3    H246230   4.132   0.537   5.436  1.6330 -3.4201 -0.9132
 8247TIP3   OH246231   3.505   6.690  12.444 -0.0800 -0.5495  0.0190
 8247TIP3    H146232   3.445   6.722  12.377 -3.1447 -1.4565  2.1303
 8247TIP3    H246233   3.505   6.758  12.511  2.2658 -0.0446 -0.4011
 8248TIP3   OH246234   4.648   0.411   5.499 -0.2567 -0.0051  0.1450
 8248TIP3    H146235   4.705   0.381   5.570  0.4349  0.6769 -0.1100
 8248TIP3    H246236   4.666   0.505   5.491  1.7266 -0.4895 -2.7003
 8249TIP3   OH246237   3.604   6.298  17.107  0.0663 -0.2575 -0.1009
 8249TIP3    H146238   3.693   6.319  17.135 -0.2616 -0.8841  1.4940
 8249TIP3    H246239   3.564   6.254  17.182 -1.6431  0.1336 -0.7217
 8250TIP3   OH246240   0.315   0.715  13.546 -0.2532  0.2453  0.0430
 8250TIP3    H146241   0.248   0.772  13.507  1.4200  1.4901 -1.1702
 8250TIP3    H246242   0.268   0.665  13.613 -1.9012  2.7789  0.9337
 8251TIP3   OH246243   1.551   4.759  13.609 -0.3232 -0.2512  0.0237
 8251TIP3    H146244   1.487   4.814  13.654 -1.7904 -0.6466 -1.4987
 8251TIP3    H246245   1.512   4.672  13.606  0.1096 -0.4222 -1.2464
 8252TIP3   OH246246   5.797   3.674   1.269  0.3684 -0.3715  0.0246
 8252TIP3    H146247   5.868   3.609   1.270  0.5480 -0.1951  1.5164
 8252TIP3    H246248   5.736   3.643   1.336  0.2363  0.7521  0.4391
 8253TIP3   OH246249   6.413   0.625   6.299  0.6426  0.5244  0.1618
 8253TIP3    H146250   6.380   0.599   6.385  1.3176 -0.9709  0.0064
 8253TIP3    H246251   6.508   0.630   6.310  0.7077  0.6370 -0.4160
 8254TIP3   OH246252   5.912   0.566   5.505 -0.0744 -0.3403  0.3939
 8254TIP3    H146253   5.884   0.642   5.556 -1.0469 -1.6161  1.8302
 8254TIP3    H246254   6.006   0.580   5.493 -0.1863  0.9815  0.7892
 8255TIP3   OH246255   3.264   6.742  14.914 -0.1083 -0.6180  0.7376
 8255TIP3    H146256   3.192   6.699  14.868  1.3308 -1.5371 -0.7824
 8255TIP3    H246257   3.329   6.672  14.928  1.3980  0.5828  0.0843
 8256TIP3   OH246258   0.694   4.822   5.519 -0.2030  0.3033  0.2733
 8256TIP3    H146259   0.683   4.871   5.600  0.4407  2.0636 -0.6417
 8256TIP3    H246260   0.606   4.790   5.498 -0.4600  0.2610  1.3923
 8257TIP3   OH246261   3.911   1.323   5.041  0.3180 -0.3244  0.2900
 8257TIP3    H146262   3.879   1.298   4.954  3.0963 -0.5231 -0.7592
 8257TIP3    H246263   3.851   1.392   5.070 -0.8566 -0.4799 -1.6188
 8258TIP3   OH246264   3.168   4.943   4.040 -0.2582 -0.1607 -0.2477
 8258TIP3    H146265   3.262   4.929   4.032 -0.2408 -0.0259 -0.2827
 8258TIP3    H246266   3.138   4.951   3.949 -0.7743 -3.2134 -0.4539
 8259TIP3   OH246267   2.488   1.291   3.183 -0.0950  0.7429  0.5880
 8259TIP3    H146268   2.574   1.328   3.204  0.5784  0.7319 -1.7861
 8259TIP3    H246269   2.493   1.200   3.214  1.2155  0.4134 -0.4498
 8260TIP3   OH246270   4.107   2.124  12.087  0.4689 -0.0300  0.4933
 8260TIP3    H146271   4.101   2.142  12.181  2.3288 -0.0187  0.6470
 8260TIP3    H246272   4.090   2.209  12.045  1.8916  0.4995  0.9327
 8261TIP3   OH246273   4.826   4.006   1.058  0.0517 -0.0180  0.1340
 8261TIP3    H146274   4.841   3.951   0.982 -1.1270 -0.5619  0.2750
 8261TIP3    H246275   4.890   3.977   1.122 -0.3106 -0.9910  0.0756
 8262TIP3   OH246276   5.346   0.267   5.507 -0.1878 -0.0210  0.2959
 8262TIP3    H146277   5.392   0.197   5.551 -1.0684 -0.1945  0.9718
 8262TIP3    H246278   5.414   0.329   5.482  0.3535  0.0172  1.7757
 8263TIP3   OH246279   2.410   5.514   5.517  0.1496  0.0987 -0.0544
 8263TIP3    H146280   2.454   5.450   5.461 -1.1815 -1.1266  0.2259
 8263TIP3    H246281   2.334   5.467   5.552 -1.7080  2.2105 -0.9436
 8264TIP3   OH246282   6.507   3.750   4.775  0.8582 -0.4052  0.3941
 8264TIP3    H146283   6.521   3.661   4.808 -0.9994 -1.1081 -0.5822
 8264TIP3    H246284   6.419   3.773   4.803  1.6665  1.5887  1.5202
 8265TIP3   OH246285   4.305   4.608   4.365 -0.1015 -0.2057  0.0205
 8265TIP3    H146286   4.229   4.645   4.321  0.4720  0.6168 -0.3151
 8265TIP3    H246287   4.379   4.659   4.332  0.8412 -2.1401 -1.0100
 8266TIP3   OH246288   6.666   3.298   3.032 -0.8689 -0.7825  0.3718
 8266TIP3    H146289   6.692   3.318   2.942 -0.9238 -1.4082  0.2157
 8266TIP3    H246290   6.735   3.337   3.085 -0.3984 -1.1309  0.0237
 8267TIP3   OH246291   2.385   0.291   1.819  0.1916 -0.3698  0.1556
 8267TIP3    H146292   2.417   0.243   1.896 -0.6822 -0.7934  0.2612
 8267TIP3    H246293   2.378   0.225   1.750  1.3521  0.0831 -0.4230
 8268TIP3   OH246294   1.382   3.039  15.432  0.8221 -0.2611 -0.0220
 8268TIP3    H146295   1.353   2.958  15.472  0.6257 -0.4609 -0.5548
 8268TIP3    H246296   1.422   3.012  15.349  0.1654  0.2290 -0.5107
 8269TIP3   OH246297   3.188   2.142   1.282 -0.0587  0.2418 -0.0197
 8269TIP3    H146298   3.281   2.122   1.293 -0.2573 -0.4174  0.5191
 8269TIP3    H246299   3.175   2.142   1.187  0.2149 -1.0027 -0.0688
 8270TIP3   OH246300   1.487   2.934   2.486  0.0626 -0.3426  0.0328
 8270TIP3    H146301   1.554   2.925   2.554 -0.6758 -0.8643  0.7129
 8270TIP3    H246302   1.449   2.846   2.478 -0.4969 -0.0716 -0.3837
 8271TIP3   OH246303   1.348   1.805   4.734 -0.0844  0.3065 -0.2449
 8271TIP3    H146304   1.393   1.862   4.797 -0.3770 -0.8044  1.0220
 8271TIP3    H246305   1.383   1.718   4.752 -0.4891 -0.0997 -1.3596
 8272TIP3   OH246306   6.618   3.735  13.174  0.1970  0.1968 -0.0023
 8272TIP3    H146307   6.698   3.702  13.214  0.8418  3.6257  2.0079
 8272TIP3    H246308   6.647   3.812  13.124 -1.5604  0.1336 -1.1954
 8273TIP3   OH246309   1.536   2.701  15.229  0.0097 -0.0192 -0.2250
 8273TIP3    H146310   1.604   2.639  15.254  0.7765  0.8300 -0.1411
 8273TIP3    H246311   1.456   2.649  15.222  0.9275 -1.2971 -1.6536
 8274TIP3   OH246312   6.729   0.784  15.673  0.5448  0.1498 -0.1835
 8274TIP3    H146313   6.775   0.811  15.753 -0.6865  0.4903  0.4325
 8274TIP3    H246314   6.765   0.698  15.653 -0.3006 -0.7176  1.7237
 8275TIP3   OH246315   4.246   4.482   3.276 -0.5966 -0.1302  0.3135
 8275TIP3    H146316   4.296   4.457   3.199 -0.4056  0.6598  0.1650
 8275TIP3    H246317   4.245   4.404   3.331  0.4073 -0.3050  0.1097
 8276TIP3   OH246318   3.676   5.621  14.981 -0.2800 -0.4855 -0.3150
 8276TIP3    H146319   3.745   5.598  14.919  1.0696  1.3500  0.3940
 8276TIP3    H246320   3.713   5.602  15.067  0.2394  2.3444  0.1951
 8277TIP3   OH246321   0.803   6.264  15.950 -0.7924 -0.1982 -0.0158
 8277TIP3    H146322   0.841   6.240  16.034  0.6343  1.6496 -0.0795
 8277TIP3    H246323   0.877   6.264  15.889 -1.2778  1.2020 -0.6487
 8278TIP3   OH246324   4.505   5.247  12.033 -0.3437 -0.0652  0.6977
 8278TIP3    H146325   4.505   5.343  12.032 -1.0094 -0.0641 -0.5003
 8278TIP3    H246326   4.481   5.224  12.123 -2.4719  0.9042  0.4412
 8279TIP3   OH246327   5.295   2.612   4.385 -0.2154 -0.0819 -0.1683
 8279TIP3    H146328   5.350   2.562   4.445  0.3049  0.6467 -0.0232
 8279TIP3    H246329   5.258   2.547   4.326 -1.1918 -0.8840  1.2859
 8280TIP3   OH246330   2.049   1.118  14.775 -0.3767 -0.1828 -0.3440
 8280TIP3    H146331   2.123   1.058  14.782 -0.1486 -0.2338 -2.5160
 8280TIP3    H246332   2.085   1.204  14.795 -0.0223 -0.3720 -0.1688
 8281TIP3   OH246333   4.495   0.244  17.185  0.1163 -0.3205 -0.3967
 8281TIP3    H146334   4.409   0.268  17.219  0.7896  0.8016  0.6150
 8281TIP3    H246335   4.514   0.159  17.225  0.4538  0.5100  1.3152
 8282TIP3   OH246336   0.247   2.707   5.223  0.1999 -0.6106  0.2888
 8282TIP3    H146337   0.282   2.796   5.218 -1.1005 -0.1271 -1.5835
 8282TIP3    H246338   0.188   2.709   5.298 -1.1226  0.6815 -0.7126
 8283TIP3   OH246339   3.924   6.626   4.995  0.0093  0.6266 -0.5579
 8283TIP3    H146340   3.877   6.708   4.980 -1.3791 -0.0828 -0.2054
 8283TIP3    H246341   3.900   6.600   5.084  2.3172  1.0121  0.2542
 8284TIP3   OH246342   0.498   1.777  12.176 -0.2183 -0.9427  0.1731
 8284TIP3    H146343   0.492   1.872  12.183  2.7468 -0.7611  1.4039
 8284TIP3    H246344   0.524   1.761  12.085 -0.8119 -0.6165 -0.0616
 8285TIP3   OH246345   4.763   4.876   3.004 -0.5083 -0.4294  0.0490
 8285TIP3    H146346   4.787   4.820   3.078 -1.5924 -1.0422 -0.0317
 8285TIP3    H246347   4.715   4.949   3.044 -0.8452 -0.6128 -0.0143
 8286TIP3   OH246348   5.410   5.936   5.134  0.0431  0.1331 -0.0758
 8286TIP3    H146349   5.482   5.999   5.141 -0.2306  0.7666 -2.2974
 8286TIP3    H246350   5.442   5.870   5.072 -1.1833  0.3262 -0.9491
 8287TIP3   OH246351   0.699   3.016  16.396 -0.3364  0.1408  0.0697
 8287TIP3    H146352   0.763   3.013  16.468 -0.0383 -0.3352 -0.2089
 8287TIP3    H246353   0.615   3.003  16.439 -0.4157  2.2058  0.6225
 8288TIP3   OH246354   4.585   0.272  15.168 -0.1297 -0.0847  0.0349
 8288TIP3    H146355   4.625   0.222  15.239 -0.3772  0.3148  0.4573
 8288TIP3    H246356   4.545   0.347  15.210 -0.2949  0.1511 -0.5269
 8289TIP3   OH246357   3.031   6.674  17.046  0.3874  0.0938  0.8219
 8289TIP3    H146358   2.972   6.693  16.973  1.6143 -0.4621 -0.3583
 8289TIP3    H246359   3.063   6.760  17.074 -2.0300  0.5543  2.4623
 8290TIP3   OH246360   4.764   4.900   0.033  0.4294 -0.4405  0.0174
 8290TIP3    H146361   4.717   4.871   0.111  0.6571  0.7445  0.6260
 8290TIP3    H246362   4.831   4.960   0.067  0.9057 -0.3546 -1.0411
 8291TIP3   OH246363   4.099   1.271   4.725 -0.4938 -0.2787  0.2919
 8291TIP3    H146364   4.193   1.254   4.716 -0.2679  1.1838 -0.2608
 8291TIP3    H246365   4.069   1.202   4.784  1.1636 -0.0524  1.4883
 8292TIP3   OH246366   1.662   0.228   3.964 -0.1418  0.7296  0.3940
 8292TIP3    H146367   1.590   0.168   3.943 -2.0038  2.9352  0.0457
 8292TIP3    H246368   1.696   0.255   3.878 -0.1081  1.0244  0.4970
 8293TIP3   OH246369   4.158   1.784   0.617  0.5707 -0.0930  0.2869
 8293TIP3    H146370   4.250   1.777   0.642  0.8647 -1.4223 -1.0061
 8293TIP3    H246371   4.110   1.774   0.699  1.5610 -0.1260  0.8780
 8294TIP3   OH246372   0.185   4.196  16.582  0.1688  0.6688  0.5575
 8294TIP3    H146373   0.186   4.214  16.676  0.2888 -0.2956  0.7579
 8294TIP3    H246374   0.126   4.120  16.574 -0.1484  0.9888 -0.1921
 8295TIP3   OH246375   5.604   1.672   1.742 -0.1135 -0.2885 -0.0744
 8295TIP3    H146376   5.597   1.765   1.762 -0.9443 -0.1535 -0.9031
 8295TIP3    H246377   5.574   1.628   1.822  0.8672  0.1331  0.5342
 8296TIP3   OH246378   6.552   3.736  17.072  0.0783 -0.2221 -0.3833
 8296TIP3    H146379   6.634   3.764  17.112 -0.4582  2.2540 -0.8929
 8296TIP3    H246380   6.556   3.768  16.982 -2.2178  1.7415  0.1189
 8297TIP3   OH246381   5.589   6.441  12.989  0.1894 -0.2177 -0.7500
 8297TIP3    H146382   5.670   6.437  12.938  0.7506 -1.3288  0.2069
 8297TIP3    H246383   5.542   6.516  12.952  0.8676 -0.5853 -2.4584
 8298TIP3   OH246384   3.758   1.000  15.623  0.4831  0.1235  0.1958
 8298TIP3    H146385   3.670   0.973  15.599  0.4725 -0.9912  1.3865
 8298TIP3    H246386   3.765   1.090  15.592 -0.6883 -0.1275 -0.8627
 8299TIP3   OH246387   3.960   2.220  12.718 -0.2331 -0.7319 -0.4657
 8299TIP3    H146388   3.999   2.296  12.761 -0.2901 -1.0831  0.2233
 8299TIP3    H246389   3.910   2.256  12.644 -1.3977  0.0297  0.6569
 8300TIP3   OH246390   3.718   4.838  11.141  0.1705 -0.0933  0.3283
 8300TIP3    H146391   3.788   4.868  11.199 -0.1648  0.1207  0.6252
 8300TIP3    H246392   3.741   4.748  11.119  1.8812  0.7095 -1.5821
 8301TIP3   OH246393   4.436   0.897  16.325 -0.1584 -0.2697  0.5058
 8301TIP3    H146394   4.498   0.950  16.274  1.1409 -2.1684 -0.0120
 8301TIP3    H246395   4.351   0.916  16.285  0.4815  0.2207 -0.7029
 8302TIP3   OH246396   6.037   0.702  13.728  0.2067  0.1705  0.0207
 8302TIP3    H146397   6.082   0.785  13.742  0.3697  0.0537  0.1898
 8302TIP3    H246398   6.098   0.648  13.679 -0.1978  0.4236 -0.7748
 8303TIP3   OH246399   5.126   2.792  12.963 -0.0710  0.0461 -0.5136
 8303TIP3    H146400   5.032   2.810  12.955 -0.5020  0.8775  3.9493
 8303TIP3    H246401   5.131   2.700  12.991  0.3107  0.3370  0.4201
 8304TIP3   OH246402   4.304   4.911  12.469 -0.3930  0.7776  0.3235
 8304TIP3    H146403   4.396   4.892  12.449 -0.2220  1.2214  0.6725
 8304TIP3    H246404   4.262   4.825  12.474  0.1726  0.5254  0.9621
 8305TIP3   OH246405   6.056   0.175   1.795  0.6113  0.1423  0.3671
 8305TIP3    H146406   5.966   0.170   1.830  0.8806  1.5490  1.3445
 8305TIP3    H246407   6.061   0.261   1.754  1.8070  0.5028  1.2236
 8306TIP3   OH246408   0.812   5.468   5.160 -0.1574 -0.2441  0.1075
 8306TIP3    H146409   0.892   5.435   5.200 -0.1689 -1.3730 -0.7509
 8306TIP3    H246410   0.750   5.473   5.233  0.9694  1.8006  1.0312
 8307TIP3   OH246411   0.092   6.242   2.637  0.1334  0.1198 -0.3460
 8307TIP3    H146412   0.026   6.299   2.676  0.5956 -0.3939  1.2298
 8307TIP3    H246413   0.043   6.165   2.607 -0.0882  0.0879  0.0996
 8308TIP3   OH246414   4.723   3.426   5.009 -0.2355  0.6586 -0.4886
 8308TIP3    H146415   4.691   3.480   4.938  1.6636  1.3841 -0.8690
 8308TIP3    H246416   4.784   3.365   4.967  1.3520  1.4672  0.5258
 8309TIP3   OH246417   0.534   1.416   5.945  0.0618  0.1275  0.0596
 8309TIP3    H146418   0.599   1.377   5.886  0.6964 -0.4803  1.1223
 8309TIP3    H246419   0.510   1.499   5.903  0.9853  0.0206 -0.7197
 8310TIP3   OH246420   5.768   0.515   5.782 -0.2354 -0.5847  0.0210
 8310TIP3    H146421   5.780   0.455   5.856  0.7160  0.1281  0.4750
 8310TIP3    H246422   5.853   0.559   5.773 -0.6578  0.0828 -0.8342
 8311TIP3   OH246423   4.264   2.869   5.166 -0.4169  0.6610 -0.2143
 8311TIP3    H146424   4.249   2.811   5.091  1.1808 -0.4547  0.2710
 8311TIP3    H246425   4.356   2.857   5.188 -1.1017 -0.1391  2.7820
 8312TIP3   OH246426   0.198   5.414   4.855 -0.1072 -0.0482 -0.5105
 8312TIP3    H146427   0.280   5.364   4.849  0.3934  0.5816  0.7979
 8312TIP3    H246428   0.218   5.497   4.812  0.2345  0.4455  0.5726
 8313TIP3   OH246429   4.173   2.473   0.323 -0.4314 -0.2722 -0.9929
 8313TIP3    H146430   4.217   2.528   0.259  1.1429  1.6007  1.5123
 8313TIP3    H246431   4.183   2.384   0.290  2.6422  0.3629 -2.0583
 8314TIP3   OH246432   6.408   0.640   5.377  0.2380  0.1820 -0.1661
 8314TIP3    H146433   6.361   0.705   5.324 -3.5592 -0.0040  2.5515
 8314TIP3    H246434   6.405   0.560   5.324 -0.3263  0.7938 -1.0977
 8315TIP3   OH246435   3.241   0.591  14.912  0.5816 -0.1365  0.0280
 8315TIP3    H146436   3.147   0.598  14.896  0.5813  0.4948  0.2641
 8315TIP3    H246437   3.247   0.541  14.994  0.5221 -1.6436 -0.8513
 8316TIP3   OH246438   0.467   2.493  17.220  0.2032  0.1555  0.1145
 8316TIP3    H146439   0.401   2.509  17.152  0.8694 -0.4242 -0.6816
 8316TIP3    H246440   0.501   2.580  17.241 -0.6295  0.4345  0.3611
 8317TIP3   OH246441   6.521   5.260   0.212  0.0203  0.2768 -0.1455
 8317TIP3    H146442   6.612   5.245   0.186 -0.4333 -1.7521 -0.7595
 8317TIP3    H246443   6.526   5.297   0.300  1.4287 -0.1595 -0.0251
 8318TIP3   OH246444   4.994   0.751  15.417  0.3379 -0.5906  0.0281
 8318TIP3    H146445   4.998   0.843  15.443 -0.3651 -0.2849 -0.8815
 8318TIP3    H246446   5.023   0.702  15.495 -1.7737  0.2631  1.4557
 8319TIP3   OH246447   6.594   3.895   3.383 -0.9062  0.1309  0.5255
 8319TIP3    H146448   6.643   3.829   3.335  0.1715  0.2934  1.3601
 8319TIP3    H246449   6.553   3.949   3.315  1.5781  1.1167 -0.2944
 8320TIP3   OH246450   3.045   4.940   4.997 -0.2955  0.3167  0.2866
 8320TIP3    H146451   3.105   4.868   5.016 -0.4307  0.2405  0.4278
 8320TIP3    H246452   2.960   4.898   4.985 -0.1178  0.2944 -1.0668
 8321TIP3   OH246453   2.801   1.304   4.657  0.1112  0.3312  0.5257
 8321TIP3    H146454   2.754   1.224   4.633  0.6317 -0.2143  1.2509
 8321TIP3    H246455   2.833   1.339   4.574 -1.7676  0.8703 -0.0252
 8322TIP3   OH246456   4.296   6.082   6.395  0.1224 -0.0569  0.4557
 8322TIP3    H146457   4.243   6.012   6.433  0.6793 -0.7825 -0.0857
 8322TIP3    H246458   4.289   6.070   6.301  1.2054 -0.1437  0.3688
 8323TIP3   OH246459   2.457   6.662   5.288  0.3499  0.0148  0.3698
 8323TIP3    H146460   2.424   6.613   5.213 -1.1865  1.2235  0.2148
 8323TIP3    H246461   2.429   6.610   5.364 -3.3307  1.6242  0.3274
 8324TIP3   OH246462   5.136   4.601  13.858 -0.6099  0.0213 -0.1593
 8324TIP3    H146463   5.215   4.614  13.807 -0.6045 -0.7055 -0.3516
 8324TIP3    H246464   5.166   4.596  13.949 -0.4729  0.0733 -0.2025
 8325TIP3   OH246465   1.372   5.008   1.597  0.4390  0.1410  0.1009
 8325TIP3    H146466   1.447   4.974   1.645 -0.8578 -1.7954  0.8688
 8325TIP3    H246467   1.353   4.942   1.531 -0.5147  0.6554 -0.1636
 8326TIP3   OH246468   5.585   5.715   5.995  0.4479  0.2592 -0.0178
 8326TIP3    H146469   5.603   5.700   6.088  0.2077  0.9748  0.1498
 8326TIP3    H246470   5.490   5.721   5.989  0.5117  1.2693 -0.1368
 8327TIP3   OH246471   5.123   0.068   6.377 -0.1799  0.2092  0.6070
 8327TIP3    H146472   5.092   0.122   6.449  2.2148 -0.5829  2.3819
 8327TIP3    H246473   5.171   0.128   6.320 -0.4335  0.5162  0.7150
 8328TIP3   OH246474   3.659   6.081  15.872  0.0359 -0.2462 -0.0275
 8328TIP3    H146475   3.754   6.067  15.879  0.1578  1.3024  2.9530
 8328TIP3    H246476   3.620   6.005  15.916 -0.2246 -1.1661 -1.7310
 8329TIP3   OH246477   4.423   3.013  15.827 -0.3588 -0.3273  0.0112
 8329TIP3    H146478   4.432   3.108  15.830 -1.5753 -0.0257 -2.7376
 8329TIP3    H246479   4.431   2.985  15.919  0.9418  2.2803  0.7967
 8330TIP3   OH246480   6.658   2.551   0.652 -0.5598 -0.3243  0.2591
 8330TIP3    H146481   6.733   2.549   0.712 -1.4750  0.4300  1.4820
 8330TIP3    H246482   6.658   2.465   0.611  0.4282 -0.6676  0.9339
 8331TIP3   OH246483   6.497   5.109   1.075  0.1453  0.2369 -0.1096
 8331TIP3    H146484   6.550   5.168   1.021 -1.1869  0.2206 -1.5350
 8331TIP3    H246485   6.545   5.026   1.076  0.0894  0.1628 -1.5425
 8332TIP3   OH246486   4.671   1.146  11.793 -0.2613 -0.1637  0.0466
 8332TIP3    H146487   4.720   1.212  11.842 -0.3972 -1.4785  2.0974
 8332TIP3    H246488   4.579   1.163  11.815 -0.3292 -0.7100  0.2178
 8333TIP3   OH246489   4.162   1.476   4.114  0.0618  0.3675  0.0687
 8333TIP3    H146490   4.248   1.495   4.078  1.1325  1.4022  2.8977
 8333TIP3    H246491   4.128   1.562   4.140 -2.8138  0.2790 -2.7473
 8334TIP3   OH246492   5.167   5.105  13.066  0.3972  0.0266  0.6507
 8334TIP3    H146493   5.239   5.047  13.040  0.9063  0.8296  0.2258
 8334TIP3    H246494   5.209   5.189  13.085 -0.6035  1.1018 -1.5106
 8335TIP3   OH246495   6.555   0.770   3.792 -0.0370  0.4783  0.3904
 8335TIP3    H146496   6.507   0.845   3.756  0.7739  0.2285 -1.3402
 8335TIP3    H246497   6.514   0.753   3.876 -0.9122  2.2248  0.3629
 8336TIP3   OH246498   3.129   4.652   1.154 -0.0040  0.4153 -0.2508
 8336TIP3    H146499   3.168   4.728   1.196 -1.2766  1.4641 -0.9062
 8336TIP3    H246500   3.168   4.649   1.067  1.3283 -0.7358  0.3401
 8337TIP3   OH246501   5.685   4.163  14.958 -0.0049  0.1636  0.0105
 8337TIP3    H146502   5.758   4.135  14.904  1.9376  1.7511  1.6500
 8337TIP3    H246503   5.633   4.084  14.971  1.5110 -1.0716 -1.0467
 8338TIP3   OH246504   3.039   6.098   2.311  0.2006  0.1618  0.5068
 8338TIP3    H146505   3.057   6.005   2.324  1.2644  0.2929  0.0546
 8338TIP3    H246506   3.008   6.104   2.220  0.3604  0.2730  0.4583
 8339TIP3   OH246507   1.597   3.310  12.653 -0.3002 -0.2521  0.4661
 8339TIP3    H146508   1.506   3.282  12.656 -0.3439 -0.1022  0.4874
 8339TIP3    H246509   1.619   3.330  12.743 -0.2080 -0.4082  0.4803
 8340TIP3   OH246510   5.514   5.787   4.637 -0.2767 -0.4688  0.1740
 8340TIP3    H146511   5.445   5.822   4.695 -1.5661 -1.8286 -0.4576
 8340TIP3    H246512   5.521   5.695   4.662  0.9575 -0.4815 -0.1591
 8341TIP3   OH246513   5.730   3.303  14.816  0.0561  0.4819 -0.0933
 8341TIP3    H146514   5.786   3.371  14.853 -1.5075  1.2828  0.9350
 8341TIP3    H246515   5.742   3.228  14.874 -0.3735  0.8483  0.4772
 8342TIP3   OH246516   4.292   2.258   2.670  0.3743 -0.1934  0.3961
 8342TIP3    H146517   4.257   2.312   2.741  1.7265 -0.7484  1.5184
 8342TIP3    H246518   4.369   2.307   2.639  0.3645 -0.4415 -0.0213
 8343TIP3   OH246519   5.521   4.742   4.829  0.0985 -0.4564 -0.1963
 8343TIP3    H146520   5.430   4.772   4.823  0.3244  0.5582  0.9537
 8343TIP3    H246521   5.514   4.649   4.851 -0.6367 -0.7595 -1.5916
 8344TIP3   OH246522   4.807   1.796  14.391 -0.1642 -0.0275  0.0928
 8344TIP3    H146523   4.838   1.887  14.392 -0.1393 -0.0319  1.3629
 8344TIP3    H246524   4.728   1.798  14.444 -0.7219 -0.5769 -0.7007
 8345TIP3   OH246525   4.141   4.290  14.097  0.3456 -0.2794 -0.3875
 8345TIP3    H146526   4.092   4.306  14.178  2.4683 -0.2136  0.9514
 8345TIP3    H246527   4.185   4.373  14.078  0.7721 -0.6255 -0.9684
 8346TIP3   OH246528   4.006   1.020  12.784 -0.2450  0.1143  0.7907
 8346TIP3    H146529   3.975   0.929  12.780  0.4130 -0.1215  0.8874
 8346TIP3    H246530   3.926   1.072  12.785 -0.6335 -0.4033 -0.6294
 8347TIP3   OH246531   6.791   3.065  12.991  0.4444 -0.6519 -0.1666
 8347TIP3    H146532   6.702   3.039  12.969 -0.2304 -0.4235  2.0455
 8347TIP3    H246533   6.844   2.988  12.972 -0.5043 -1.3782  0.0486
 8348TIP3   OH246534   5.188   6.247   3.964 -0.3450 -1.0610  0.1782
 8348TIP3    H146535   5.228   6.161   3.950  1.0969 -0.1605 -1.7608
 8348TIP3    H246536   5.183   6.286   3.877 -1.1180  0.7583  0.9812
 8349TIP3   OH246537   5.020   6.057   2.204  0.1675 -0.4077  0.4434
 8349TIP3    H146538   5.009   6.122   2.135  2.4711 -1.1698 -0.7367
 8349TIP3    H246539   5.069   6.102   2.273  1.0016 -0.6310  0.0038
 8350TIP3   OH246540   3.448   6.774   5.005  0.5460 -0.6800 -0.0017
 8350TIP3    H146541   3.445   6.745   5.096  1.2075  0.5642  0.4370
 8350TIP3    H246542   3.379   6.725   4.962 -0.1257 -0.9016  1.2856
 8351TIP3   OH246543   4.181   3.961  13.483  0.2936  0.0678 -0.1300
 8351TIP3    H146544   4.163   4.009  13.403 -0.0825 -3.0392 -2.0982
 8351TIP3    H246545   4.103   3.973  13.537  0.0279  1.2027 -0.7370
 8352TIP3   OH246546   5.864   4.382  14.069 -0.0435  0.0193  0.1888
 8352TIP3    H146547   5.834   4.300  14.107 -2.2044  1.0843  0.9059
 8352TIP3    H246548   5.846   4.373  13.975 -1.0960  0.0127  0.3878
 8353TIP3   OH246549   1.340   2.191   3.341 -0.0074 -0.4588 -0.2909
 8353TIP3    H146550   1.378   2.278   3.332  1.0670 -0.8858 -0.0397
 8353TIP3    H246551   1.360   2.165   3.431 -0.6771 -0.8072 -0.2362
 8354TIP3   OH246552   6.274   2.985  14.906  0.1163  0.3986 -0.3018
 8354TIP3    H146553   6.228   3.067  14.893  1.2746  0.8902 -1.6085
 8354TIP3    H246554   6.328   2.999  14.983 -1.6445 -0.0904  1.0776
 8355TIP3   OH246555   6.524   4.142  17.161 -0.3809  0.2337  0.4485
 8355TIP3    H146556   6.608   4.099  17.143 -0.1594  0.8997 -0.1531
 8355TIP3    H246557   6.536   4.181  17.248 -0.3593 -0.3709  0.7199
 8356TIP3   OH246558   4.905   6.047  16.710 -0.0995 -0.2962  0.0523
 8356TIP3    H146559   4.854   6.056  16.791  0.2822  0.5893  0.2174
 8356TIP3    H246560   4.990   6.012  16.739 -1.2447 -3.8255 -0.4750
 8357TIP3   OH246561   5.530   2.050   6.068  0.2827 -0.2733 -0.1673
 8357TIP3    H146562   5.579   1.968   6.078  1.2067  0.2868 -0.0507
 8357TIP3    H246563   5.582   2.115   6.115 -0.9816  0.1844  0.6411
 8358TIP3   OH246564   3.585   0.308   6.171  0.3013  0.4525 -0.0618
 8358TIP3    H146565   3.543   0.224   6.192  0.6663 -0.0240 -1.1648
 8358TIP3    H246566   3.518   0.374   6.190 -0.0919 -0.1142  0.5341
 8359TIP3   OH246567   1.573   2.924   0.447  0.2691 -0.2959 -0.0022
 8359TIP3    H146568   1.528   2.858   0.395  0.8912 -1.4918  0.9230
 8359TIP3    H246569   1.503   2.982   0.478  0.0455  2.0004 -4.0540
 8360TIP3   OH246570   2.515   5.532  12.827  0.1807 -0.5881  0.1604
 8360TIP3    H146571   2.609   5.514  12.838 -0.3040 -1.5737  4.4821
 8360TIP3    H246572   2.471   5.458  12.868 -2.2770  2.1271  2.9643
 8361TIP3   OH246573   2.602   4.596  11.881  0.2558  0.7236 -0.0667
 8361TIP3    H146574   2.605   4.542  11.960 -0.6891  0.4591 -0.2018
 8361TIP3    H246575   2.692   4.627  11.871  1.5159 -2.7552 -1.3027
 8362TIP3   OH246576   3.841   6.206  13.053 -0.4199  0.0467 -0.2275
 8362TIP3    H146577   3.863   6.177  12.965  1.7841  0.1985  0.2258
 8362TIP3    H246578   3.758   6.252  13.042 -1.3756 -1.8646 -1.8130
 8363TIP3   OH246579   1.133   3.508  11.751  0.2525 -0.0560  0.2165
 8363TIP3    H146580   1.167   3.547  11.832  2.1958 -0.5887 -0.2853
 8363TIP3    H246581   1.091   3.427  11.780 -2.7043  1.6540  1.1103
 8364TIP3   OH246582   5.158   5.287   1.879 -0.0580 -0.1370  0.0956
 8364TIP3    H146583   5.157   5.205   1.830  1.3694  0.1889 -0.5544
 8364TIP3    H246584   5.070   5.323   1.868 -0.5890 -1.4039  0.0889
 8365TIP3   OH246585   4.685   5.777   0.296  0.3525  0.0274 -0.6839
 8365TIP3    H146586   4.673   5.864   0.335 -0.8967  0.1684 -1.3129
 8365TIP3    H246587   4.603   5.761   0.248  1.2506 -0.7789 -1.9939
 8366TIP3   OH246588   1.032   6.474   2.216 -0.1852 -0.0083 -0.1045
 8366TIP3    H146589   1.092   6.449   2.146  1.7828  1.0509  1.1167
 8366TIP3    H246590   0.982   6.547   2.180  1.5430  1.2243 -0.1204
 8367TIP3   OH246591   4.646   6.011   0.148 -0.1831 -0.0927 -0.1670
 8367TIP3    H146592   4.572   6.051   0.102 -2.4632 -0.5265  2.7350
 8367TIP3    H246593   4.682   6.082   0.201  0.0995 -0.3669  0.0116
 8368TIP3   OH246594   2.484   6.781   3.023 -0.3553  0.1770  0.4172
 8368TIP3    H146595   2.488   6.799   2.929  1.1762 -0.8665  0.2386
 8368TIP3    H246596   2.396   6.746   3.038 -0.1385 -0.9775 -0.8960
 8369TIP3   OH246597   6.223   6.243  16.780 -0.0605 -0.5092  0.4593
 8369TIP3    H146598   6.183   6.244  16.867  0.2541  0.5320  0.6050
 8369TIP3    H246599   6.274   6.324  16.776 -1.5395  0.4097 -1.3593
 8370TIP3   OH246600   0.111   4.625  14.987 -0.5270 -0.1537  0.0726
 8370TIP3    H146601   0.074   4.565  14.923  0.1725  0.9725 -1.4795
 8370TIP3    H246602   0.194   4.653  14.948 -0.8903  1.8976  0.6454
 8371TIP3   OH246603   1.892   6.688   1.675  0.6213 -0.3301 -0.3226
 8371TIP3    H146604   1.889   6.607   1.726  0.2709  0.5440  1.0990
 8371TIP3    H246605   1.825   6.677   1.607 -1.1153 -0.3392  1.3051
 8372TIP3   OH246606   0.901   3.853  11.062  0.0062 -0.2754 -0.6447
 8372TIP3    H146607   0.966   3.920  11.043 -1.1133  0.7770 -0.9136
 8372TIP3    H246608   0.932   3.811  11.142  0.0316  1.5304  0.3583
 8373TIP3   OH246609   6.233   4.592  15.519  0.1739 -0.4478 -0.2076
 8373TIP3    H146610   6.240   4.546  15.436 -0.1635 -1.6085  0.3898
 8373TIP3    H246611   6.139   4.596  15.537  0.0669  1.8131 -0.9450
 8374TIP3   OH246612   0.340   4.974   3.497  0.4335  0.4940  0.5879
 8374TIP3    H146613   0.277   4.992   3.567  0.0076  0.6422  0.1715
 8374TIP3    H246614   0.288   4.938   3.425  0.9620 -0.3092  0.5887
 8375TIP3   OH246615   3.425   3.324  15.712 -0.1739 -0.3848  0.0459
 8375TIP3    H146616   3.429   3.366  15.797 -0.9968  0.2459 -0.2158
 8375TIP3    H246617   3.417   3.396  15.649 -0.8291 -0.8876 -0.4670
 8376TIP3   OH246618   5.215   2.738   1.115  0.2470  0.7431 -0.1237
 8376TIP3    H146619   5.121   2.726   1.105  0.1855  0.1739  0.9539
 8376TIP3    H246620   5.226   2.759   1.208  1.0167  2.5753 -0.5783
 8377TIP3   OH246621   5.189   5.413  11.677 -0.6746 -0.1549 -0.0769
 8377TIP3    H146622   5.247   5.391  11.750 -2.3215  0.8706  1.6625
 8377TIP3    H246623   5.192   5.509  11.672 -1.2261 -0.1659 -0.7874
 8378TIP3   OH246624   1.826   5.131   3.933  0.1507 -0.0503 -0.0461
 8378TIP3    H146625   1.835   5.144   4.027 -0.6588 -2.1951  0.3816
 8378TIP3    H246626   1.891   5.189   3.894  0.7417  0.6124  1.8390
 8379TIP3   OH246627   2.045   2.486   0.671 -0.2863 -0.5287  0.1196
 8379TIP3    H146628   1.983   2.416   0.653 -0.1550 -0.2348 -1.6530
 8379TIP3    H246629   2.130   2.443   0.677 -0.1809 -0.5314 -1.1505
 8380TIP3   OH246630   2.571   0.226   0.170  0.1377  0.0684  0.0182
 8380TIP3    H146631   2.538   0.163   0.235 -1.8657 -0.7227 -1.6468
 8380TIP3    H246632   2.504   0.294   0.166  0.7155  0.6225 -0.5111
 8381TIP3   OH246633   2.341   0.421  12.267  0.6658 -0.8807 -0.5400
 8381TIP3    H146634   2.367   0.461  12.184 -0.0171  1.5434  0.3259
 8381TIP3    H246635   2.340   0.493  12.329 -2.2498 -1.9317  0.8157
 8382TIP3   OH246636   0.630   0.283   1.796  0.0146 -0.3287 -0.2418
 8382TIP3    H146637   0.709   0.326   1.830  0.8736 -1.8932 -0.1340
 8382TIP3    H246638   0.660   0.237   1.718 -0.3675 -2.3091  0.7088
 8383TIP3   OH246639   6.533   1.481  14.682 -0.3874  0.1048  0.0411
 8383TIP3    H146640   6.598   1.525  14.738 -0.2903  0.0132  0.0011
 8383TIP3    H246641   6.457   1.469  14.739 -0.8376  1.3513 -0.2736
 8384TIP3   OH246642   5.353   0.779  11.260 -0.2726 -0.0617  0.1295
 8384TIP3    H146643   5.422   0.835  11.295 -0.0100 -0.1057 -0.3164
 8384TIP3    H246644   5.350   0.799  11.167 -1.8543  1.0162  0.3648
 8385TIP3   OH246645   3.862   0.297   2.821  0.0031  0.7316 -0.4916
 8385TIP3    H146646   3.909   0.355   2.881 -0.1582 -0.4481  0.8162
 8385TIP3    H246647   3.925   0.228   2.799 -0.9323 -0.6595  0.9852
 8386TIP3   OH246648   1.019   0.155   3.340 -0.3289 -0.3818 -0.3260
 8386TIP3    H146649   1.066   0.073   3.321 -0.8215 -0.8272  0.3169
 8386TIP3    H246650   0.978   0.179   3.257 -0.9632 -1.3073 -0.2947
 8387TIP3   OH246651   0.915   5.982  14.390 -0.5369  0.1852  0.0218
 8387TIP3    H146652   0.895   5.959  14.300 -3.2932  2.4870 -0.0572
 8387TIP3    H246653   0.961   6.066  14.384  2.4718 -1.2408  0.7113
 8388TIP3   OH246654   3.841   6.659   2.412  0.6702  0.2605 -0.0157
 8388TIP3    H146655   3.785   6.667   2.334  1.5607 -4.9542 -1.5949
 8388TIP3    H246656   3.928   6.687   2.383  1.2591 -2.7356 -1.5018
 8389TIP3   OH246657   0.341   6.702  12.569  0.1924 -0.6816 -0.2255
 8389TIP3    H146658   0.259   6.743  12.596  0.5422 -0.4542  0.5336
 8389TIP3    H246659   0.328   6.609  12.582  0.0915 -0.6367 -0.0104
 8390TIP3   OH246660   2.330   2.873   2.094 -0.0936  0.2154  0.4136
 8390TIP3    H146661   2.248   2.911   2.126  0.1361  0.9983  0.0953
 8390TIP3    H246662   2.395   2.943   2.107 -0.2210  1.1250 -2.9608
 8391TIP3   OH246663   2.896   4.973   0.483  0.6383  0.3895  0.4777
 8391TIP3    H146664   2.863   5.053   0.443  3.1884 -0.0908 -3.0459
 8391TIP3    H246665   2.977   5.001   0.526 -0.7933  0.4032  3.4369
 8392TIP3   OH246666   2.181   6.631   1.059  0.0071  0.3906  0.3909
 8392TIP3    H146667   2.159   6.538   1.052  1.4854 -0.1381  2.0261
 8392TIP3    H246668   2.098   6.674   1.083 -0.3119 -0.7889  1.4942
 8393TIP3   OH246669   2.205   3.338  14.410 -0.2300 -0.0220  0.4382
 8393TIP3    H146670   2.168   3.357  14.324 -0.3851  0.4818  0.6163
 8393TIP3    H246671   2.172   3.251  14.431 -1.5098  0.5091  0.7000
 8394TIP3   OH246672   2.967   1.153  12.727  0.5834  0.8208  0.4215
 8394TIP3    H146673   2.951   1.244  12.751  1.9148  1.1407  0.1616
 8394TIP3    H246674   2.902   1.135  12.659  2.7670  2.8709 -2.4672
 8395TIP3   OH246675   0.742   1.230  14.489  0.0757 -0.1883 -0.6292
 8395TIP3    H146676   0.739   1.149  14.540  0.0699  0.6331  0.7184
 8395TIP3    H246677   0.806   1.285  14.535 -0.7186  0.9820 -0.8897
 8396TIP3   OH246678   3.387   0.744   5.465 -0.2852  0.3951  0.4649
 8396TIP3    H146679   3.385   0.782   5.378 -3.4928  1.6827  0.9525
 8396TIP3    H246680   3.324   0.796   5.515  0.2361 -1.3180  3.1035
 8397TIP3   OH246681   6.752   1.948   3.522 -0.0554  0.1609  0.2979
 8397TIP3    H146682   6.703   1.910   3.449 -1.1196 -0.0174  1.0955
 8397TIP3    H246683   6.703   1.923   3.600  0.8594  0.6770  1.0575
 8398TIP3   OH246684   5.443   0.200  16.643 -0.0058 -0.3727  0.4150
 8398TIP3    H146685   5.487   0.118  16.667 -0.9215 -0.7125  0.9517
 8398TIP3    H246686   5.502   0.269  16.674 -0.3820 -0.8130  2.2095
 8399TIP3   OH246687   6.263   1.685  16.755 -0.4723  0.1014 -0.0418
 8399TIP3    H146688   6.260   1.738  16.676  0.2898 -0.0864 -0.2097
 8399TIP3    H246689   6.293   1.599  16.726 -2.5784 -0.7305  0.0863
 8400TIP3   OH246690   4.580   3.346   6.505  0.1485 -0.1727 -0.5301
 8400TIP3    H146691   4.516   3.402   6.461  0.6408  2.0565  1.3661
 8400TIP3    H246692   4.538   3.324   6.589  0.9030 -0.7661 -0.2991
 8401TIP3   OH246693   2.597   4.160  14.796  0.5269 -0.0465  0.2384
 8401TIP3    H146694   2.549   4.090  14.839  0.4131  0.4161  0.8839
 8401TIP3    H246695   2.533   4.202  14.739  0.7208 -0.7673 -0.5308
 8402TIP3   OH246696   6.582   2.461  11.124 -0.1438 -0.4796 -0.2158
 8402TIP3    H146697   6.540   2.406  11.058 -1.3068 -0.0777  0.1719
 8402TIP3    H246698   6.608   2.540  11.077 -0.0408 -0.6247 -0.4028
 8403TIP3   OH246699   3.793   6.749  11.562 -0.0610  0.3718  0.0539
 8403TIP3    H146700   3.888   6.760  11.568  0.1723 -0.7580 -1.0829
 8403TIP3    H246701   3.777   6.659  11.590 -1.0906  1.2059  2.4102
 8404TIP3   OH246702   2.115   3.391   0.491  0.1109 -0.0597  0.0408
 8404TIP3    H146703   2.055   3.449   0.538 -0.8408 -0.7472 -0.3158
 8404TIP3    H246704   2.059   3.327   0.448  1.1800 -2.4873  1.9990
 8405TIP3   OH246705   4.434   3.573   3.517 -0.1762 -0.2111  0.1236
 8405TIP3    H146706   4.512   3.625   3.532  1.7921 -3.1864  1.0638
 8405TIP3    H246707   4.374   3.596   3.588  0.9979  0.1105  1.0225
 8406TIP3   OH246708   3.839   0.937  17.135 -0.0467  0.1588 -0.4580
 8406TIP3    H146709   3.921   0.973  17.102  1.1431  0.7468  2.7769
 8406TIP3    H246710   3.857   0.844  17.147 -0.1016  0.1569 -0.3926
 8407TIP3   OH246711   4.254   1.241  16.805  0.5350  0.3020 -0.2376
 8407TIP3    H146712   4.299   1.163  16.771  0.7603 -0.1885  1.1508
 8407TIP3    H246713   4.202   1.272  16.731  1.3794 -0.4540 -1.1835
 8408TIP3   OH246714   2.352   3.109  14.745  0.3247 -0.2761  0.1346
 8408TIP3    H146715   2.363   3.131  14.838  1.1722 -0.1347  0.0076
 8408TIP3    H246716   2.417   3.163  14.700  0.6500 -1.1311 -0.4405
 8409TIP3   OH246717   1.870   5.533  13.784  0.1447 -0.0276 -0.1231
 8409TIP3    H146718   1.903   5.490  13.706  0.6019 -0.2360  0.1795
 8409TIP3    H246719   1.905   5.481  13.857  1.0807  1.0955  0.2614
 8410TIP3   OH246720   0.119   5.681  14.202 -0.1990 -1.2022  0.5375
 8410TIP3    H146721   0.109   5.739  14.126  0.7084  0.4309  1.6068
 8410TIP3    H246722   0.032   5.643  14.214 -0.5804 -0.8154 -0.7744
 8411TIP3   OH246723   0.025   4.985  16.004  0.1890 -0.9839  0.1208
 8411TIP3    H146724  -0.005   4.955  16.090 -2.3801 -1.8426 -0.9918
 8411TIP3    H246725  -0.004   4.918  15.943  2.2305 -0.5481 -1.4435
 8412TIP3   OH246726   4.620   0.244   4.545  0.6070 -0.1851  0.1887
 8412TIP3    H146727   4.583   0.312   4.602  0.5534  0.0170 -0.0806
 8412TIP3    H246728   4.629   0.168   4.601 -0.1778 -0.2272  0.2767
 8413TIP3   OH246729   4.742   6.401  12.833  0.2164 -0.4528  0.4012
 8413TIP3    H146730   4.688   6.331  12.796  1.0654  0.1017 -2.0277
 8413TIP3    H246731   4.738   6.386  12.928 -0.5823 -3.0759  0.0384
 8414TIP3   OH246732   6.364   0.486   6.562 -0.1430 -0.0342  0.1268
 8414TIP3    H146733   6.301   0.556   6.583 -0.8294 -0.1391 -1.4311
 8414TIP3    H246734   6.405   0.465   6.646 -1.8716  0.3450  1.1240
 8415TIP3   OH246735   4.592   0.058  14.664  0.5253  0.2779 -0.2137
 8415TIP3    H146736   4.626   0.037  14.750  2.2801 -1.7570 -1.3243
 8415TIP3    H246737   4.669   0.084  14.613 -0.2306 -0.1110 -1.6000
 8416TIP3   OH246738   3.846   6.609  12.553 -0.2190  0.6426  0.0647
 8416TIP3    H146739   3.825   6.596  12.645  0.6885  0.7279  0.2983
 8416TIP3    H246740   3.762   6.604  12.508 -0.5269 -0.8433  0.7301
 8417TIP3   OH246741   6.217   0.186   1.186 -0.7474 -0.1328  0.0088
 8417TIP3    H146742   6.178   0.099   1.182 -0.1104 -0.4284  0.0444
 8417TIP3    H246743   6.289   0.177   1.248 -0.1812  0.2143 -0.5833
 8418TIP3   OH246744   5.525   1.095  17.164  0.2375  0.2774 -0.6582
 8418TIP3    H146745   5.501   1.127  17.077  1.3525  2.4357 -0.2643
 8418TIP3    H246746   5.605   1.045  17.150  0.8088  1.2030 -0.8440
 8419TIP3   OH246747   4.110   5.102   2.237 -0.3853 -0.3022 -0.5218
 8419TIP3    H146748   4.019   5.114   2.261 -0.1561  1.0321 -0.2258
 8419TIP3    H246749   4.155   5.088   2.321 -0.4784 -2.3852 -0.7660
 8420TIP3   OH246750   5.849   4.601   5.762  0.1005  0.3039  0.2525
 8420TIP3    H146751   5.821   4.576   5.674 -0.9325 -0.7916  0.8528
 8420TIP3    H246752   5.768   4.630   5.805  0.5126  0.4195  0.9657
 8421TIP3   OH246753   1.372   0.195   5.598  0.1980 -0.5003 -0.1491
 8421TIP3    H146754   1.384   0.101   5.588  1.3935 -0.3626 -0.1607
 8421TIP3    H246755   1.419   0.233   5.524  2.2721  0.2066  1.4262
 8422TIP3   OH246756   5.536   4.970  13.426 -0.1586 -0.4849  0.4366
 8422TIP3    H146757   5.625   4.942  13.447 -0.5546 -0.1954  2.7715
 8422TIP3    H246758   5.547   5.054  13.382  0.7346  0.0903  1.6854
 8423TIP3   OH246759   1.942   0.945  10.955 -0.1751  0.2079 -0.4378
 8423TIP3    H146760   2.036   0.940  10.935 -0.1070 -2.8705  0.1560
 8423TIP3    H246761   1.937   1.006  11.029  1.1270  1.4802 -1.3215
 8424TIP3   OH246762   3.862   2.813  16.598 -0.4841  0.3267 -0.0588
 8424TIP3    H146763   3.893   2.853  16.679  0.9736  0.8746 -0.8570
 8424TIP3    H246764   3.767   2.823  16.601 -0.3677  1.2616  1.1059
 8425TIP3   OH246765   0.684   5.002   0.650 -0.1524  0.3932 -0.0447
 8425TIP3    H146766   0.757   4.977   0.594  0.9902  1.4574  0.9363
 8425TIP3    H246767   0.677   4.931   0.714 -1.1510 -0.5833 -1.1685
 8426TIP3   OH246768   0.262   0.249   0.504 -0.2839 -0.4540  0.2904
 8426TIP3    H146769   0.180   0.289   0.477 -0.3779 -0.6425  0.2996
 8426TIP3    H246770   0.299   0.310   0.567 -0.8960 -0.8541  1.0495
 8427TIP3   OH246771   4.703   0.787  13.162  0.1408 -0.2143  0.4816
 8427TIP3    H146772   4.674   0.858  13.105 -1.5596  1.0097  2.6772
 8427TIP3    H246773   4.785   0.818  13.200  0.8512 -0.6776 -0.6540
 8428TIP3   OH246774   4.802   2.607   1.494  0.5089  0.4554  0.5575
 8428TIP3    H146775   4.742   2.558   1.438  1.4693 -1.2798  0.9890
 8428TIP3    H246776   4.747   2.674   1.535 -0.6115  0.4606 -0.8863
 8429TIP3   OH246777   2.090   0.049   0.804 -0.8756 -0.7101  0.2556
 8429TIP3    H146778   2.165   0.083   0.853 -0.0224  1.9892 -2.5713
 8429TIP3    H246779   2.050  -0.016   0.862  1.6257  0.2002  3.2523
 8430TIP3   OH246780   3.310   6.135  12.339 -0.3040 -0.1059  0.0836
 8430TIP3    H146781   3.239   6.106  12.395 -0.3994  0.6412  0.3622
 8430TIP3    H246782   3.296   6.229  12.329  1.6752  0.4344  1.6631
 8431TIP3   OH246783   5.777   6.285  11.802 -0.0054 -0.3958  0.0667
 8431TIP3    H146784   5.721   6.223  11.849  2.1494 -0.8352  2.2825
 8431TIP3    H246785   5.769   6.366  11.853  2.4281 -0.8941  1.3834
 8432TIP3   OH246786   1.518   3.299   5.309  0.0395  0.9083  0.0205
 8432TIP3    H146787   1.464   3.365   5.264 -1.2049 -0.5569 -0.7321
 8432TIP3    H246788   1.488   3.216   5.274  0.7452 -0.1560  1.8181
 8433TIP3   OH246789   6.215   3.519   1.317  0.5058 -0.0254 -0.3110
 8433TIP3    H146790   6.286   3.485   1.262  1.5408  0.8421  0.4590
 8433TIP3    H246791   6.143   3.535   1.255  0.9482 -0.9569 -1.0966
 8434TIP3   OH246792   5.218   1.483   0.099  0.1544 -0.1401  0.5653
 8434TIP3    H146793   5.279   1.556   0.104 -0.1914  0.1461  0.6579
 8434TIP3    H246794   5.271   1.409   0.069  0.3140  0.3730 -0.4601
 8435TIP3   OH246795   5.535   5.240  16.086 -0.1377  0.0700  0.0720
 8435TIP3    H146796   5.491   5.222  16.003 -0.6510 -0.2456  0.4013
 8435TIP3    H246797   5.508   5.168  16.143  1.9058 -0.8870 -0.1020
 8436TIP3   OH246798   3.014   3.367   4.814 -0.1188 -0.2217  0.2687
 8436TIP3    H146799   2.941   3.423   4.788 -0.7675  0.1671  2.7094
 8436TIP3    H246800   3.005   3.358   4.909  3.7294  0.8887  0.9140
 8437TIP3   OH246801   4.057   5.975   2.470 -0.0934  0.2786  0.0719
 8437TIP3    H146802   4.009   5.893   2.483 -0.2616  0.6198  1.9309
 8437TIP3    H246803   3.989   6.042   2.463  0.0631  0.4003 -0.3047
 8438TIP3   OH246804   0.458   2.660   4.114 -0.2169  0.1441 -0.3200
 8438TIP3    H146805   0.433   2.730   4.174  0.9145 -0.7613  1.2972
 8438TIP3    H246806   0.380   2.644   4.061 -0.3515  2.9213 -1.0973
 8439TIP3   OH246807   0.839   3.428   1.097 -0.1400 -0.7737 -0.5934
 8439TIP3    H146808   0.901   3.492   1.063 -0.1526 -0.0333  0.7094
 8439TIP3    H246809   0.888   3.345   1.100  0.5981 -0.3352 -0.1778
 8440TIP3   OH246810   0.368   4.427   2.381 -0.0105 -0.7605  0.0111
 8440TIP3    H146811   0.322   4.403   2.462 -1.3503 -1.8481 -1.0296
 8440TIP3    H246812   0.304   4.480   2.332  0.5649 -0.6384 -0.6200
 8441TIP3   OH246813   1.187   3.248  15.628  0.1224  0.1749 -0.2485
 8441TIP3    H146814   1.280   3.249  15.650  0.3847 -0.2442 -1.2788
 8441TIP3    H246815   1.165   3.156  15.622 -0.1149  0.2752 -0.9668
 8442TIP3   OH246816   2.063   1.685  11.567 -0.4997 -0.3731  0.3324
 8442TIP3    H146817   2.151   1.647  11.572  0.2753  1.1248 -1.2564
 8442TIP3    H246818   2.051   1.726  11.653 -0.0317 -1.3408  0.8876
 8443TIP3   OH246819   5.484   6.164   3.911 -0.6311  0.6110  0.7502
 8443TIP3    H146820   5.438   6.080   3.918 -0.7129  0.6897  1.1993
 8443TIP3    H246821   5.476   6.187   3.818 -0.2991 -0.0447  0.5510
 8444TIP3   OH246822   5.226   2.714   2.892 -0.6429 -0.3010  0.2639
 8444TIP3    H146823   5.199   2.771   2.821 -0.6100  1.9557  1.9682
 8444TIP3    H246824   5.315   2.741   2.913 -0.6894 -0.8404  1.2486
 8445TIP3   OH246825   1.794   4.259   1.554  0.3666  0.0629 -0.6546
 8445TIP3    H146826   1.879   4.294   1.525  0.4560 -0.2503 -0.7773
 8445TIP3    H246827   1.799   4.262   1.650 -0.7503  3.0963 -0.5815
 8446TIP3   OH246828   1.469   4.352   2.597 -0.0852  0.3036 -0.5834
 8446TIP3    H146829   1.442   4.313   2.513  2.0562  0.0624 -1.2388
 8446TIP3    H246830   1.556   4.389   2.579 -0.3295  1.8260  1.0968
 8447TIP3   OH246831   2.949   2.463   0.663  0.1958 -0.5610 -0.3128
 8447TIP3    H146832   2.940   2.554   0.635 -1.6602 -0.8880 -0.9486
 8447TIP3    H246833   2.933   2.465   0.758 -0.0297 -0.2364 -0.3572
 8448TIP3   OH246834   2.333   0.934  11.998 -0.8305 -0.0858 -0.1398
 8448TIP3    H146835   2.323   0.916  12.091  0.6878 -1.5477 -0.2168
 8448TIP3    H246836   2.418   0.976  11.990 -1.7170  1.7480 -0.7100
 8449TIP3   OH246837   1.662   6.521   0.847 -0.3577 -0.3473  0.2852
 8449TIP3    H146838   1.607   6.588   0.888  0.2046  0.4172 -0.2038
 8449TIP3    H246839   1.751   6.544   0.874 -0.1618 -0.9136  0.1253
 8450TIP3   OH246840   3.663   5.632   0.861  0.5369  0.2343 -0.0248
 8450TIP3    H146841   3.609   5.710   0.860  0.8901  0.4900 -0.9591
 8450TIP3    H246842   3.688   5.620   0.952 -0.4448  0.5542  0.2923
 8451TIP3   OH246843   1.650   0.207  15.315 -0.4638  0.1215  0.1352
 8451TIP3    H146844   1.556   0.210  15.332 -0.4723  2.1538  0.0743
 8451TIP3    H246845   1.659   0.164  15.231 -1.1581 -1.8714  1.0366
 8452TIP3   OH246846   3.621   6.678  14.349  0.3841 -0.0757  1.0564
 8452TIP3    H146847   3.634   6.771  14.368 -0.6803  1.1849 -3.2139
 8452TIP3    H246848   3.705   6.647  14.317  0.4196 -0.2692  1.3291
 8453TIP3   OH246849   2.154   3.919   3.648  0.5151 -0.3213  0.0916
 8453TIP3    H146850   2.214   3.983   3.610  0.8092 -0.1383  0.8420
 8453TIP3    H246851   2.172   3.922   3.742 -0.8962 -0.0275  0.3723
 8454TIP3   OH246852   6.034   5.253  14.993  0.1893  0.5070  0.0000
 8454TIP3    H146853   6.066   5.327  15.045  0.4975 -0.4917  1.3016
 8454TIP3    H246854   5.980   5.292  14.925 -0.7071  1.8714  1.4213
 8455TIP3   OH246855   0.865   1.693  12.297  0.2687  0.3667  0.7184
 8455TIP3    H146856   0.893   1.660  12.212 -0.2993 -0.2988  0.7822
 8455TIP3    H246857   0.872   1.788  12.289 -0.7735  0.3784 -0.4410
 8456TIP3   OH246858   3.184   3.502  14.087  0.1685 -0.2247  0.1616
 8456TIP3    H146859   3.266   3.503  14.039  0.5582  0.0561  0.8161
 8456TIP3    H246860   3.178   3.589  14.127 -1.0987  0.2271 -0.9465
 8457TIP3   OH246861   5.941   2.151   1.201 -0.0135 -0.3628 -0.3051
 8457TIP3    H146862   5.846   2.138   1.205 -0.1272  0.3865 -0.3020
 8457TIP3    H246863   5.967   2.115   1.117 -0.4726  0.3535 -0.7741
 8458TIP3   OH246864   5.331   2.334  17.114  0.4296  0.4166  0.4348
 8458TIP3    H146865   5.337   2.318  17.020  0.7482  0.7639  0.3974
 8458TIP3    H246866   5.358   2.251  17.155 -1.6850 -0.4452  0.2234
 8459TIP3   OH246867   5.037   0.335   0.523  0.1211 -0.4534  0.0876
 8459TIP3    H146868   5.084   0.253   0.509  1.7588  0.3845  0.4328
 8459TIP3    H246869   5.095   0.387   0.578 -1.8445  0.1071  1.7656
 8460TIP3   OH246870   6.073   5.697   2.779 -0.1287 -0.4630 -0.1231
 8460TIP3    H146871   6.084   5.751   2.858 -0.2387  0.4496 -0.7196
 8460TIP3    H246872   6.158   5.654   2.767  0.6712  1.2478 -0.8495
 8461TIP3   OH246873   6.460   1.638   4.324 -1.1215  0.3421 -0.4024
 8461TIP3    H146874   6.478   1.586   4.402  1.4173  1.3132 -0.2615
 8461TIP3    H246875   6.420   1.575   4.263  0.6980 -1.5072  0.1965
 8462TIP3   OH246876   5.573   1.968  16.147 -0.5395 -0.4185  0.1632
 8462TIP3    H146877   5.644   1.966  16.210  0.5591 -0.0471 -1.0280
 8462TIP3    H246878   5.530   2.052  16.162 -0.5700 -0.5202  0.6882
 8463TIP3   OH246879   3.915   3.337  16.673 -0.0353 -0.0339  0.2675
 8463TIP3    H146880   3.980   3.268  16.659 -2.0138 -1.9968  0.1916
 8463TIP3    H246881   3.901   3.375  16.586  0.7493  0.1874  0.2300
 8464TIP3   OH246882   5.454   4.433   1.891 -0.2304  0.1191  0.1151
 8464TIP3    H146883   5.475   4.442   1.798  0.4694  0.2186  0.2738
 8464TIP3    H246884   5.485   4.345   1.914 -1.2457 -0.2673  0.0449
 8465TIP3   OH246885   1.613   6.328   1.102 -0.2760  0.3233  0.1696
 8465TIP3    H146886   1.631   6.234   1.091  0.8477  0.3331  1.6627
 8465TIP3    H246887   1.527   6.340   1.061 -1.1327 -1.6688  1.2474
 8466TIP3   OH246888   1.103   5.494   5.569 -0.7087 -0.3276  0.1205
 8466TIP3    H146889   1.166   5.523   5.503 -1.2612  1.1443  0.2047
 8466TIP3    H246890   1.119   5.400   5.578  1.0435 -0.0977 -0.2985
 8467TIP3   OH246891   5.213   6.725  16.479 -0.1868 -0.3433  0.4500
 8467TIP3    H146892   5.138   6.701  16.425  0.5706  1.0834 -1.3403
 8467TIP3    H246893   5.177   6.780  16.549 -0.8585  0.0749 -0.2144
 8468TIP3   OH246894   4.656   5.520  12.883 -0.6029 -0.0946  0.9701
 8468TIP3    H146895   4.604   5.556  12.811 -0.9003  0.6004  1.5267
 8468TIP3    H246896   4.708   5.451  12.842 -0.1412  0.8529 -0.0946
 8469TIP3   OH246897   4.394   4.429  16.879  0.3505  0.0992 -0.6654
 8469TIP3    H146898   4.407   4.518  16.847  0.0468  0.3169 -0.1972
 8469TIP3    H246899   4.309   4.403  16.842  1.8958 -1.2532 -3.5724
 8470TIP3   OH246900   6.774   5.624   5.617 -0.4881  0.6930 -0.5651
 8470TIP3    H146901   6.789   5.578   5.534  0.3297 -1.0696  0.4797
 8470TIP3    H246902   6.860   5.660   5.640 -0.0049 -1.1561  0.7710
 8471TIP3   OH246903   5.220   2.434  11.613 -0.1106 -0.2507 -0.0768
 8471TIP3    H146904   5.174   2.453  11.694 -0.3880  2.3247 -0.7607
 8471TIP3    H246905   5.302   2.483  11.620  0.0147 -0.2678 -1.1969
 8472TIP3   OH246906   6.108   0.013  16.991  0.1286 -0.0183  0.2355
 8472TIP3    H146907   6.187   0.064  17.006 -1.7117  2.8644  0.7919
 8472TIP3    H246908   6.132  -0.049  16.922  2.4596  1.7500 -0.6528
 8473TIP3   OH246909   1.500   4.463   4.073  0.5711  0.0831 -0.0961
 8473TIP3    H146910   1.443   4.412   4.131  0.0708  0.7257 -0.0089
 8473TIP3    H246911   1.483   4.429   3.986 -0.3156  0.5885 -0.1326
 8474TIP3   OH246912   5.315   5.382   2.246  0.1325  0.3990  0.0687
 8474TIP3    H146913   5.388   5.321   2.261 -1.1665 -1.2437 -0.0069
 8474TIP3    H246914   5.237   5.331   2.266 -0.9634  3.0184  3.1944
 8475TIP3   OH246915   4.928   2.320   3.710 -0.4242  0.4852 -0.1990
 8475TIP3    H146916   4.885   2.235   3.709 -0.8448  0.6860  0.1428
 8475TIP3    H246917   4.918   2.351   3.801 -0.3584  0.9381 -0.3424
 8476TIP3   OH246918   2.002   1.783  14.567 -0.2467 -0.0918 -0.0784
 8476TIP3    H146919   2.081   1.796  14.619 -0.3337  3.2893 -0.5964
 8476TIP3    H246920   1.933   1.826  14.618 -1.2013 -0.5575 -0.9543
 8477TIP3   OH246921   1.414   0.959  13.878 -0.4453  0.1802 -0.1968
 8477TIP3    H146922   1.463   0.942  13.959  1.7037 -0.0821 -1.4499
 8477TIP3    H246923   1.444   1.046  13.850 -1.1212  0.2456 -0.7299
 8478TIP3   OH246924   1.226   3.673  11.351  0.3533 -0.0936 -0.6115
 8478TIP3    H146925   1.214   3.580  11.330 -1.7478  0.2127 -1.0302
 8478TIP3    H246926   1.181   3.683  11.436  2.6014  0.1172  0.6272
 8479TIP3   OH246927   4.816   1.346   0.013 -0.0751 -0.3284 -0.2569
 8479TIP3    H146928   4.770   1.323  -0.068 -0.7353 -0.6160  0.1908
 8479TIP3    H246929   4.857   1.430  -0.006 -0.2613 -0.3751 -0.8806
 8480TIP3   OH246930   6.736   5.378  16.198  0.0330 -0.0813 -0.4974
 8480TIP3    H146931   6.786   5.455  16.226  0.7486 -0.2237 -1.3319
 8480TIP3    H246932   6.661   5.375  16.258  1.2942 -0.1755  1.1275
 8481TIP3   OH246933   6.037   5.500   4.932 -0.2224 -0.0281 -0.4059
 8481TIP3    H146934   5.979   5.542   4.996  0.3487  0.5079 -0.2264
 8481TIP3    H246935   6.105   5.566   4.915  0.9400 -1.0308  0.2034
 8482TIP3   OH246936   5.845   1.034   5.332 -0.7415  0.1218  0.1029
 8482TIP3    H146937   5.908   1.055   5.262 -0.2566  1.9273  1.0250
 8482TIP3    H246938   5.898   1.036   5.412 -1.5090 -0.8266  0.6457
 8483TIP3   OH246939   5.457   4.030  14.405  0.0606 -0.1783  0.8658
 8483TIP3    H146940   5.366   4.058  14.402  0.3020  0.6754  1.3645
 8483TIP3    H246941   5.464   3.980  14.486 -0.3750 -1.7720 -0.0315
 8484TIP3   OH246942   6.117   6.241  16.357 -0.0675  0.6389  0.2060
 8484TIP3    H146943   6.111   6.287  16.274  0.0141 -1.0719 -0.7862
 8484TIP3    H246944   6.029   6.206  16.372 -0.2427  1.4517  1.1711
 8485TIP3   OH246945   3.127   2.050   0.489 -0.2246  0.3189 -0.4992
 8485TIP3    H146946   3.160   2.116   0.550 -0.8312 -0.2828  0.4967
 8485TIP3    H246947   3.124   2.096   0.405 -3.5231  2.6236  0.6597
 8486TIP3   OH246948   1.532   3.243  13.416  0.1200 -0.1153 -0.2902
 8486TIP3    H146949   1.510   3.336  13.416 -0.8896 -0.3290  0.2360
 8486TIP3    H246950   1.607   3.236  13.476  0.3707  0.3928 -0.5444
 8487TIP3   OH246951   1.189   6.735   4.387 -0.6033 -0.3885 -0.0067
 8487TIP3    H146952   1.251   6.791   4.340 -1.5910  0.3846 -0.4220
 8487TIP3    H246953   1.214   6.745   4.480  0.5012 -0.8672 -0.2326
 8488TIP3   OH246954   4.320   6.155  15.160 -0.6059  0.1705  0.3515
 8488TIP3    H146955   4.311   6.075  15.211 -1.3203 -1.4410 -2.0857
 8488TIP3    H246956   4.389   6.136  15.096  0.1609  2.0225  0.5637
 8489TIP3   OH246957   6.793   1.895   2.220 -0.5641 -0.2214  0.2950
 8489TIP3    H146958   6.782   1.854   2.306 -0.1022 -1.4727 -0.2240
 8489TIP3    H246959   6.706   1.891   2.180 -0.2541 -2.0940 -0.3216
 8490TIP3   OH246960   5.623   6.301   0.613 -0.8056  0.4613 -0.3509
 8490TIP3    H146961   5.530   6.281   0.624 -0.2692 -0.9259  2.9621
 8490TIP3    H246962   5.660   6.222   0.575 -0.8915  0.8952 -1.3668
 8491TIP3   OH246963   3.021   1.643  12.727  0.4226 -0.0790 -0.0880
 8491TIP3    H146964   3.040   1.649  12.821  1.4665 -0.1666 -0.2769
 8491TIP3    H246965   2.926   1.646  12.722  0.3629  0.6643  0.9248
 8492TIP3   OH246966   3.384   1.542   1.837 -0.1212 -0.1358 -0.3228
 8492TIP3    H146967   3.349   1.604   1.902 -0.4645 -0.8349  0.1661
 8492TIP3    H246968   3.478   1.561   1.836  0.0457 -0.7239  1.0732
 8493TIP3   OH246969   2.391   5.184  12.067  0.3385 -0.9896 -0.4180
 8493TIP3    H146970   2.330   5.241  12.020  2.3639  3.4630  1.6646
 8493TIP3    H246971   2.345   5.162  12.148 -0.0260 -1.3061 -0.7082
 8494TIP3   OH246972   0.665   4.215  11.612  0.2092 -0.1090  0.5515
 8494TIP3    H146973   0.718   4.160  11.670 -1.2981 -1.7538  0.4652
 8494TIP3    H246974   0.721   4.290  11.592  1.2413 -0.0781  3.1336
 8495TIP3   OH246975   2.503   6.673  16.441 -0.2859  0.0336 -0.7243
 8495TIP3    H146976   2.511   6.714  16.527 -0.7056  0.8573 -1.0664
 8495TIP3    H246977   2.588   6.633  16.425 -0.8098 -1.9672  0.9812
 8496TIP3   OH246978   2.750   2.139  12.707 -0.0899 -0.6399 -0.0067
 8496TIP3    H146979   2.681   2.113  12.645  1.8721 -1.6957 -1.9031
 8496TIP3    H246980   2.771   2.229  12.682 -0.8995 -0.2342  0.7279
 8497TIP3   OH246981   1.616   3.841  12.963  0.5072  0.0866  0.0197
 8497TIP3    H146982   1.559   3.827  13.039 -0.1691 -0.8011 -0.6244
 8497TIP3    H246983   1.562   3.890  12.901  0.1209 -1.4239 -0.9071
 8498TIP3   OH246984   3.887   2.072  13.344 -0.0939  0.1968 -0.1637
 8498TIP3    H146985   3.932   1.999  13.387  0.7842  1.5810  1.3857
 8498TIP3    H246986   3.932   2.082  13.261 -0.1870 -0.9797 -0.3703
 8499TIP3   OH246987   4.522   2.359   4.072 -0.1754  0.2571  0.3375
 8499TIP3    H146988   4.456   2.292   4.055 -0.4971  0.2468  1.5409
 8499TIP3    H246989   4.474   2.442   4.072  0.4556  0.7924 -2.8304
 8500TIP3   OH246990   5.751   1.889  11.915 -0.1631  0.8305 -0.5116
 8500TIP3    H146991   5.711   1.838  11.845 -0.1753 -0.4519  0.4059
 8500TIP3    H246992   5.844   1.865  11.913 -0.0137  1.3968 -0.5971
 8501TIP3   OH246993   2.518   6.011  15.173 -0.2740 -0.2629  0.2371
 8501TIP3    H146994   2.588   6.034  15.234 -0.9897 -0.1854  1.0670
 8501TIP3    H246995   2.439   6.011  15.228 -1.0068  0.2558 -0.7908
 8502TIP3   OH246996   2.655   5.608  16.820  0.3936  0.6125 -0.4978
 8502TIP3    H146997   2.577   5.556  16.802 -1.1810  1.7982  2.2970
 8502TIP3    H246998   2.703   5.558  16.885 -0.3350  1.8542  1.0496
 8503TIP3   OH246999   2.783   0.339   6.049  0.7443 -0.0475 -0.1993
 8503TIP3    H147000   2.833   0.416   6.023  0.4103 -0.5430 -2.5620
 8503TIP3    H247001   2.700   0.372   6.080  0.3783  0.5635 -1.7489
 8504TIP3   OH247002   4.563   6.040   4.214 -0.5184  0.1628  0.5386
 8504TIP3    H147003   4.585   6.070   4.302  0.0508 -0.7185  0.6997
 8504TIP3    H247004   4.643   6.052   4.164 -0.6706  0.1134  0.2823
 8505TIP3   OH247005   1.180   5.250  17.157 -0.0097  0.2814 -0.1569
 8505TIP3    H147006   1.255   5.265  17.099  1.3367 -1.7152  0.9440
 8505TIP3    H247007   1.198   5.305  17.234  0.5543 -0.4476  0.2527
 8506TIP3   OH247008   0.905   1.292   0.913  0.0434 -0.0304  0.2152
 8506TIP3    H147009   0.927   1.209   0.872  0.3453  1.6121 -3.3233
 8506TIP3    H247010   0.986   1.343   0.909  0.3576  0.0255  3.8460
 8507TIP3   OH247011   4.402   3.830  12.670 -0.0242  0.1794 -0.4949
 8507TIP3    H147012   4.444   3.816  12.586  0.3311  1.5976 -0.5796
 8507TIP3    H247013   4.385   3.924  12.673 -0.1290  0.1345  0.9698
 8508TIP3   OH247014   0.545   4.499   5.157 -0.2479 -0.1732 -0.0307
 8508TIP3    H147015   0.631   4.468   5.185 -0.4072 -0.0521  0.6023
 8508TIP3    H247016   0.504   4.422   5.118 -0.1679 -0.4469  0.4169
 8509TIP3   OH247017   3.744   5.074  13.342 -0.1810 -0.1861 -0.0975
 8509TIP3    H147018   3.719   4.983  13.358 -2.3725  0.3003 -0.3653
 8509TIP3    H247019   3.772   5.075  13.250 -1.8303 -0.3232 -0.6417
 8510TIP3   OH247020   2.282   2.084  13.604  0.5682  0.1540  0.1660
 8510TIP3    H147021   2.354   2.072  13.666  0.6588  1.3711  0.3366
 8510TIP3    H247022   2.325   2.116  13.524  0.1561  1.9142  0.6047
 8511TIP3   OH247023   5.873   0.903   4.413 -0.1415 -0.5036  0.3560
 8511TIP3    H147024   5.903   0.820   4.448  0.6002 -0.3912  0.0084
 8511TIP3    H247025   5.951   0.958   4.411 -0.4472 -0.0729 -0.2058
 8512TIP3   OH247026   1.751   6.626   5.779 -1.0879  0.1286 -0.6779
 8512TIP3    H147027   1.783   6.674   5.856 -1.8551  0.4235 -0.5400
 8512TIP3    H247028   1.693   6.687   5.734 -0.4571  0.0387 -1.6325
 8513TIP3   OH247029   4.770   6.120  16.939  0.2798 -0.0674 -0.2492
 8513TIP3    H147030   4.678   6.103  16.919 -0.1266  0.9546  0.6252
 8513TIP3    H247031   4.773   6.125  17.035  1.7618 -2.7904 -0.0685
 8514TIP3   OH247032   1.735   0.026  16.526  0.5846  0.3763 -0.0102
 8514TIP3    H147033   1.764   0.078  16.451  0.3743 -1.7148 -1.6508
 8514TIP3    H247034   1.810  -0.028  16.548 -0.4867 -1.8275 -1.3531
 8515TIP3   OH247035   1.575   3.674   2.418 -0.2014  0.0266 -0.4211
 8515TIP3    H147036   1.612   3.587   2.403 -1.6844 -0.4327 -1.6840
 8515TIP3    H247037   1.494   3.675   2.367 -1.1210  1.5409  0.9628
 8516TIP3   OH247038   4.801   5.592  13.111 -0.4860 -0.8488  0.3772
 8516TIP3    H147039   4.781   5.592  13.017  0.0615  0.6906  0.2292
 8516TIP3    H247040   4.831   5.681  13.129  3.6916 -2.1492  1.0638
 8517TIP3   OH247041   3.593   6.577  11.380 -0.2475  0.1236  0.2105
 8517TIP3    H147042   3.677   6.582  11.334  0.4638  0.8120  1.5330
 8517TIP3    H247043   3.587   6.486  11.410  0.5301  0.3195  0.9967
 8518TIP3   OH247044   6.536   6.603   6.131 -0.6903 -0.2348 -0.6117
 8518TIP3    H147045   6.545   6.532   6.196  0.0018  0.4786  0.0940
 8518TIP3    H247046   6.599   6.669   6.159 -0.2218  0.0071 -2.1553
 8519TIP3   OH247047   2.665   4.497  14.793  0.6486  0.1541  0.4455
 8519TIP3    H147048   2.631   4.418  14.834  0.5776  0.5437  1.1422
 8519TIP3    H247049   2.667   4.476  14.699 -0.7035 -0.1786  0.4695
 8520TIP3   OH247050   2.546   4.338  15.049 -0.6113  0.1086  0.6089
 8520TIP3    H147051   2.561   4.262  14.993  0.0495 -0.2161  1.2088
 8520TIP3    H247052   2.510   4.302  15.130  0.2430  0.3516  1.1178
 8521TIP3   OH247053   1.013   3.064   4.024 -0.4372 -0.1772  0.1599
 8521TIP3    H147054   0.967   3.037   4.104 -0.5159  1.1239  0.5753
 8521TIP3    H247055   1.007   3.159   4.024  1.6462 -0.0107 -0.1630
 8522TIP3   OH247056   3.762   3.517  15.478  0.0405  0.1851  0.5056
 8522TIP3    H147057   3.732   3.606  15.465  0.2383  0.2278  0.3364
 8522TIP3    H247058   3.728   3.468  15.403 -0.2015  0.0847  0.6806
 8523TIP3   OH247059   5.246   0.139  15.136  0.4801 -0.2874  0.6386
 8523TIP3    H147060   5.156   0.170  15.129  0.0379 -1.7719 -0.6920
 8523TIP3    H247061   5.298   0.209  15.097 -0.2855 -0.2567 -0.3658
 8524TIP3   OH247062   4.545   5.345  13.063  0.2769 -0.0191 -0.4861
 8524TIP3    H147063   4.583   5.415  13.011  1.3478  0.3989  0.7938
 8524TIP3    H247064   4.457   5.375  13.084  0.4394  0.5640 -0.6310
 8525TIP3   OH247065   0.543   1.212  16.525 -0.1094 -0.8395  0.0220
 8525TIP3    H147066   0.511   1.147  16.462  1.3859 -1.3075 -0.2981
 8525TIP3    H247067   0.473   1.277  16.529 -0.3910 -0.9525 -1.8918
 8526TIP3   OH247068   3.773   0.628   3.269  0.0146  0.1083 -0.2246
 8526TIP3    H147069   3.788   0.534   3.258  0.4704 -0.0260  1.2963
 8526TIP3    H247070   3.697   0.647   3.213 -0.8909 -1.4322  0.4118
 8527TIP3   OH247071   1.876   6.046   6.260  0.2855  0.2882  0.5411
 8527TIP3    H147072   1.789   6.016   6.233  0.1398  1.1568  0.0311
 8527TIP3    H247073   1.903   5.982   6.327  0.1104 -1.1536 -0.7127
 8528TIP3   OH247074   1.433   1.582   4.087 -0.2676  0.2664  0.7179
 8528TIP3    H147075   1.377   1.634   4.029  1.2839 -0.6829 -1.8086
 8528TIP3    H247076   1.501   1.643   4.116 -0.1368  0.3716  0.1962
 8529TIP3   OH247077   3.769   5.178  15.132  0.3717  0.2455  0.1180
 8529TIP3    H147078   3.812   5.103  15.174 -3.4066 -2.1217  0.2725
 8529TIP3    H247079   3.776   5.159  15.039 -1.1082 -0.7307  0.1738
 8530TIP3   OH247080   3.072   2.084  10.895 -1.1295  0.0615 -0.3121
 8530TIP3    H147081   2.992   2.037  10.874 -0.1955 -1.3124 -0.9343
 8530TIP3    H247082   3.128   2.072  10.818 -1.1247  2.9034 -0.8695
 8531TIP3   OH247083   1.869   5.342   2.344 -0.2157 -0.0609  0.4339
 8531TIP3    H147084   1.774   5.331   2.349 -0.0600 -1.2565  1.3099
 8531TIP3    H247085   1.896   5.287   2.270 -0.0571 -0.9299  1.1273
 8532TIP3   OH247086   3.305   1.666   3.396 -0.0166  0.0018 -0.8149
 8532TIP3    H147087   3.391   1.656   3.436  0.0476  0.2957 -0.8792
 8532TIP3    H247088   3.244   1.646   3.467  0.1003 -1.1883 -1.0251
 8533TIP3   OH247089   1.045   5.605  16.579  0.4080  0.3813  0.1206
 8533TIP3    H147090   0.974   5.600  16.514 -0.4832 -0.9098  1.1563
 8533TIP3    H247091   1.091   5.522  16.571  0.8445  0.5771  0.5417
 8534TIP3   OH247092   3.897   1.643   3.191 -0.7536  0.0477 -0.0666
 8534TIP3    H147093   3.973   1.638   3.133 -0.4510 -1.8586  0.4151
 8534TIP3    H247094   3.917   1.714   3.252  1.9173 -2.0274  1.7184
 8535TIP3   OH247095   5.336   6.574   3.031  0.4010  0.6946 -0.3857
 8535TIP3    H147096   5.255   6.611   2.995 -0.8441  1.3856  2.7601
 8535TIP3    H247097   5.308   6.494   3.075  0.9561  1.9085  2.3933
 8536TIP3   OH247098   2.840   4.019   1.306 -0.3081 -0.3196  0.4763
 8536TIP3    H147099   2.929   4.022   1.271 -0.8057 -0.6491 -0.8703
 8536TIP3    H247100   2.851   4.017   1.401  1.0773  1.1252  0.3724
 8537TIP3   OH247101   3.364   5.430  16.981 -0.4559 -0.1679  0.5970
 8537TIP3    H147102   3.454   5.460  16.985 -0.7324  0.8810 -0.4839
 8537TIP3    H247103   3.360   5.378  16.900 -0.3221 -2.0126  1.7287
 8538TIP3   OH247104   3.712   5.002   4.186 -0.7097 -0.7877  0.1564
 8538TIP3    H147105   3.720   5.042   4.099 -0.2957 -0.8791  0.1503
 8538TIP3    H247106   3.780   5.046   4.238 -1.2527 -0.4076  0.5587
 8539TIP3   OH247107   6.791   5.375  14.441 -0.8567  0.0124 -0.0701
 8539TIP3    H147108   6.771   5.286  14.412 -3.3653  0.0922  1.1873
 8539TIP3    H247109   6.886   5.375  14.451 -0.6125 -2.0298 -1.5673
 8540TIP3   OH247110   3.461   3.993  14.331 -0.0254  0.2933 -1.1081
 8540TIP3    H147111   3.384   3.953  14.370  0.7445 -0.7144 -0.5694
 8540TIP3    H247112   3.487   3.933  14.261  0.6348  0.2965 -0.8704
 8541TIP3   OH247113   0.932   4.435   0.984  0.0271  0.1993  0.8284
 8541TIP3    H147114   0.935   4.340   0.975  0.3922  0.2624  0.2047
 8541TIP3    H247115   0.968   4.453   1.070  1.1976 -0.1528  0.4309
 8542TIP3   OH247116   4.260   0.624   3.904 -0.1105 -0.1284 -0.2074
 8542TIP3    H147117   4.311   0.696   3.866 -0.7354  0.2817 -0.2835
 8542TIP3    H247118   4.314   0.593   3.977 -1.1322  2.4667  1.8226
 8543TIP3   OH247119   4.157   0.115   0.784  0.5131 -0.6974  0.2456
 8543TIP3    H147120   4.069   0.101   0.819  0.3536  0.6535  0.4361
 8543TIP3    H247121   4.216   0.094   0.857  0.3121 -0.7218  0.4016
 8544TIP3   OH247122   4.289   1.133  11.578  0.5018  0.4416  0.5457
 8544TIP3    H147123   4.230   1.066  11.613  0.1385  0.4070 -0.1130
 8544TIP3    H247124   4.233   1.188  11.523  0.2725  2.7672  2.9196
 8545TIP3   OH247125   5.777   3.371   5.026  0.2517 -0.2624 -0.3432
 8545TIP3    H147126   5.691   3.349   4.992  0.1126 -0.2986  0.0229
 8545TIP3    H247127   5.765   3.376   5.121  0.4084  0.8214 -0.3695
 8546TIP3   OH247128   0.349   6.313   1.646  0.2003 -0.2905 -0.6163
 8546TIP3    H147129   0.379   6.237   1.595  1.0759  0.1453 -0.7655
 8546TIP3    H247130   0.388   6.301   1.732  2.0278  0.9888 -1.2092
 8547TIP3   OH247131   3.074   1.199   4.964  0.2367  0.0902  0.1142
 8547TIP3    H147132   3.080   1.188   5.059 -1.0191  1.4554  0.3825
 8547TIP3    H247133   3.146   1.145   4.929  1.7507  0.8344  1.9186
 8548TIP3   OH247134   4.077   5.862  13.935 -0.0966 -0.2258 -0.3485
 8548TIP3    H147135   4.102   5.951  13.911  3.1252 -0.3696  1.7896
 8548TIP3    H247136   4.120   5.807  13.869  1.1647 -0.2748  0.4773
 8549TIP3   OH247137   5.550   1.349   4.464 -0.0251 -0.2432  0.1803
 8549TIP3    H147138   5.495   1.411   4.512  1.7326  1.5016  0.0413
 8549TIP3    H247139   5.592   1.296   4.532 -0.1694 -0.0866  0.3923
 8550TIP3   OH247140   3.339   3.745   0.265  0.0867  0.1097  0.4657
 8550TIP3    H147141   3.393   3.704   0.198 -1.4234 -1.2342 -0.0054
 8550TIP3    H247142   3.286   3.809   0.218  1.7172  1.9828  1.0432
 8551TIP3   OH247143   6.538   1.739  13.204 -0.0920  0.0133 -0.3247
 8551TIP3    H147144   6.593   1.815  13.221  1.8239 -1.6397  1.3451
 8551TIP3    H247145   6.474   1.740  13.275 -1.6126  1.2911 -1.6258
 8552TIP3   OH247146   1.657   3.300   1.882  0.6468  0.6861  0.5956
 8552TIP3    H147147   1.671   3.224   1.939 -0.3055  0.0704  0.0284
 8552TIP3    H247148   1.609   3.362   1.936 -1.9653 -0.6543 -0.0442
 8553TIP3   OH247149   0.834   1.409   5.901 -0.1780  0.1034 -0.3433
 8553TIP3    H147150   0.878   1.456   5.972 -2.3336  0.0024  1.1756
 8553TIP3    H247151   0.821   1.320   5.935 -0.8590 -0.0695 -1.0211
 8554TIP3   OH247152   3.535   0.765  16.706 -0.2741  0.0548  0.4923
 8554TIP3    H147153   3.515   0.839  16.764 -0.3085  0.4084  0.0329
 8554TIP3    H247154   3.449   0.728  16.685 -0.2930  0.1783  0.3452
 8555TIP3   OH247155   5.937   5.059   3.707  0.1543 -0.2200  0.5825
 8555TIP3    H147156   5.852   5.092   3.677 -0.1470 -1.1925  0.3424
 8555TIP3    H247157   5.992   5.137   3.713 -0.8587  0.4764  1.1043
 8556TIP3   OH247158   6.750   4.103  11.665 -0.1165 -0.1176 -0.1426
 8556TIP3    H147159   6.669   4.148  11.687 -0.0908  0.6099 -1.3927
 8556TIP3    H247160   6.723   4.016  11.637 -0.1459 -1.0688  2.5695
 8557TIP3   OH247161   1.507   5.120  13.496  0.3675 -0.1703 -0.0617
 8557TIP3    H147162   1.489   5.212  13.513  1.1617  0.2556 -1.4008
 8557TIP3    H247163   1.598   5.118  13.467  0.1450 -1.2865 -0.7612
 8558TIP3   OH247164   3.502   1.353  14.369  0.0372  0.1898  0.7449
 8558TIP3    H147165   3.418   1.321  14.335  0.5026  0.7082 -1.0108
 8558TIP3    H247166   3.494   1.346  14.464 -2.1044  0.5013  0.6325
 8559TIP3   OH247167   4.721   4.879   4.323  0.4833  0.6752 -0.4920
 8559TIP3    H147168   4.782   4.919   4.385 -1.5730  2.5302  0.5141
 8559TIP3    H247169   4.697   4.950   4.264 -1.4529  0.3354 -0.1902
 8560TIP3   OH247170   6.288   2.811  10.846  0.2747 -0.4231 -0.1240
 8560TIP3    H147171   6.323   2.764  10.770 -2.1853 -0.8522 -1.0831
 8560TIP3    H247172   6.208   2.763  10.869  0.3549  0.3725  2.0559
 8561TIP3   OH247173   0.213   1.485  10.649  0.1869  0.3241 -0.1055
 8561TIP3    H147174   0.235   1.421  10.581  0.3903  0.5066 -0.2101
 8561TIP3    H247175   0.281   1.552  10.642  0.9995 -0.3180  1.1519
 8562TIP3   OH247176   2.712   4.362  16.837  0.3312  0.1625 -0.2263
 8562TIP3    H147177   2.688   4.378  16.745 -0.1802 -0.9754 -0.3120
 8562TIP3    H247178   2.730   4.268  16.841  0.4262  0.2150  0.8262
 8563TIP3   OH247179   3.720   1.288  16.125 -0.1956 -0.2180 -0.1261
 8563TIP3    H147180   3.709   1.226  16.197  1.0538 -0.4042 -0.0680
 8563TIP3    H247181   3.773   1.241  16.061 -1.2625 -0.0438 -1.1800
 8564TIP3   OH247182   5.199   0.567   6.016 -0.1902  0.5623 -0.3390
 8564TIP3    H147183   5.218   0.555   6.110 -0.3899  0.2421 -0.3379
 8564TIP3    H247184   5.134   0.637   6.014  0.6910  1.3943 -0.3186
 8565TIP3   OH247185   1.920   5.269   0.490 -0.0051 -0.3256  0.0821
 8565TIP3    H147186   1.908   5.208   0.417 -0.4466 -0.5065  0.3029
 8565TIP3    H247187   2.013   5.292   0.487  0.3175 -1.5362  0.4160
 8566TIP3   OH247188   5.121   0.616   1.102 -0.0084  0.0413 -0.3448
 8566TIP3    H147189   5.158   0.529   1.120  0.1938  0.4155  1.1862
 8566TIP3    H247190   5.041   0.598   1.051 -0.9230 -1.1929  1.4122
 8567TIP3   OH247191   5.340   3.086   4.393  0.6883 -0.2145 -0.7012
 8567TIP3    H147192   5.350   2.995   4.366  0.8213 -0.5317  0.3567
 8567TIP3    H247193   5.247   3.105   4.379  0.5056 -0.7480 -0.2497
 8568TIP3   OH247194   4.941   4.001   5.994 -0.2936 -0.0484 -0.1616
 8568TIP3    H147195   4.875   3.997   6.063  0.7610 -1.6239  0.7858
 8568TIP3    H247196   5.019   4.036   6.036 -0.0263  0.2661 -0.8923
 8569TIP3   OH247197   2.875   6.191  16.529 -0.0804 -0.2355 -0.0732
 8569TIP3    H147198   2.904   6.173  16.440  1.2129 -1.3518  0.5197
 8569TIP3    H247199   2.820   6.115  16.552 -0.9645  0.3756 -0.1393
 8570TIP3   OH247200   2.644   5.050  11.350 -0.1950  0.2257  0.3404
 8570TIP3    H147201   2.575   5.043  11.416 -0.6104 -1.6010 -0.2453
 8570TIP3    H247202   2.698   4.972  11.363  0.5120  0.5394 -0.5957
 8571TIP3   OH247203   5.831   0.733  15.121  0.5432 -0.0668  0.2938
 8571TIP3    H147204   5.924   0.753  15.133  0.0582  1.7750  1.3693
 8571TIP3    H247205   5.830   0.658  15.061  2.7113 -0.2329  0.3900
 8572TIP3   OH247206   5.358   4.019  11.489  0.3365  0.2783  0.7542
 8572TIP3    H147207   5.384   3.994  11.577  1.9186 -1.6001 -0.1847
 8572TIP3    H247208   5.262   4.017  11.491  0.2891  1.6010  2.7394
 8573TIP3   OH247209   3.037   4.115   1.543 -0.0464  0.2725 -0.1490
 8573TIP3    H147210   3.126   4.099   1.572  0.3261  0.5912 -1.0748
 8573TIP3    H247211   3.012   4.197   1.584  0.7381  1.0992 -1.2614
 8574TIP3   OH247212   3.028   0.604  13.247  0.3965  0.1179 -0.2219
 8574TIP3    H147213   2.982   0.688  13.241 -0.8314 -0.5396 -0.4060
 8574TIP3    H247214   3.119   0.625  13.228 -0.0714  1.2411 -1.3363
 8575TIP3   OH247215   3.344   2.259  15.071 -0.3268  0.0126  0.1648
 8575TIP3    H147216   3.363   2.238  14.979  0.4206 -0.0283  0.3176
 8575TIP3    H247217   3.346   2.174  15.115 -2.0070 -0.1371  0.0177
 8576TIP3   OH247218   2.789   2.494   0.331  0.3029 -0.5177  0.6325
 8576TIP3    H147219   2.817   2.492   0.239 -0.8318 -0.8710  0.2812
 8576TIP3    H247220   2.847   2.558   0.372  0.8962 -0.4343 -0.3048
 8577TIP3   OH247221   0.734   1.542   3.853 -0.0036  0.0540  0.0119
 8577TIP3    H147222   0.730   1.613   3.790 -0.6268 -1.1036 -1.3129
 8577TIP3    H247223   0.739   1.585   3.938 -0.3670  1.6642 -0.7482
 8578TIP3   OH247224   2.728   3.443  14.708 -0.1692 -0.1451 -0.6512
 8578TIP3    H147225   2.661   3.463  14.773  1.6064  0.2708  1.1358
 8578TIP3    H247226   2.810   3.472  14.747  1.0861 -0.5671 -2.7847
 8579TIP3   OH247227   5.832   0.931   6.467  0.5208  0.2724 -0.3311
 8579TIP3    H147228   5.803   1.018   6.440 -0.5833  0.7209  2.0103
 8579TIP3    H247229   5.766   0.871   6.433  1.1085  0.3561 -1.6706
 8580TIP3   OH247230   4.947   0.629   0.148 -0.3441 -0.4146 -0.1437
 8580TIP3    H147231   4.884   0.626   0.220 -0.3951 -1.8167 -0.2071
 8580TIP3    H247232   5.026   0.589   0.183  0.1252  0.2365 -0.4318
 8581TIP3   OH247233   2.043   3.952  12.287  0.3809 -0.4222 -0.1026
 8581TIP3    H147234   2.047   3.947  12.192 -0.3311 -0.2204 -0.1460
 8581TIP3    H247235   1.955   3.924  12.310  0.1944  0.5410  0.4187
 8582TIP3   OH247236   5.751   3.671  14.190 -0.1625 -0.4624 -0.2446
 8582TIP3    H147237   5.711   3.756  14.206  0.1004 -0.7790  2.6284
 8582TIP3    H247238   5.808   3.685  14.115 -1.0142  1.5764 -0.5789
 8583TIP3   OH247239   2.491   4.249  14.151 -0.3449 -0.1570 -0.2126
 8583TIP3    H147240   2.511   4.338  14.119  0.0776 -0.0016  0.4673
 8583TIP3    H247241   2.412   4.224  14.104 -0.8411  0.8428  0.0641
 8584TIP3   OH247242   5.950   4.851   0.464  0.1270 -0.6331 -0.0817
 8584TIP3    H147243   5.999   4.833   0.544  2.1153  0.1851 -1.0460
 8584TIP3    H247244   5.992   4.797   0.397 -0.9851 -0.6953 -0.7519
 8585TIP3   OH247245   6.711   1.397  15.028 -0.6193 -0.4758 -0.1781
 8585TIP3    H147246   6.688   1.400  15.121  1.6001 -0.2603  0.4000
 8585TIP3    H247247   6.732   1.305  15.012 -3.2762 -1.0315 -1.1406
 8586TIP3   OH247248   3.012   5.852   0.541  0.0322 -0.1202  0.0072
 8586TIP3    H147249   3.051   5.841   0.454  0.1716 -0.8633  0.1594
 8586TIP3    H247250   3.005   5.763   0.575  0.8491  0.2361  1.1449
 8587TIP3   OH247251   2.166   4.895  12.954  0.1150 -1.0519  0.0410
 8587TIP3    H147252   2.111   4.878  13.030 -0.4983  0.1090 -0.1175
 8587TIP3    H247253   2.244   4.936  12.989 -0.5709  0.3607  0.0007
 8588TIP3   OH247254   3.125   1.317   3.696 -0.0677 -0.1145  0.1343
 8588TIP3    H147255   3.032   1.327   3.677 -0.1112  1.8938  1.1199
 8588TIP3    H247256   3.143   1.224   3.682 -2.0488 -0.4191 -0.7315
 8589TIP3   OH247257   4.098   5.188   3.908  0.0903  0.1109 -0.6493
 8589TIP3    H147258   4.173   5.207   3.851  0.7582 -0.6091 -0.0495
 8589TIP3    H247259   4.092   5.092   3.907  1.5821 -0.1131  2.2442
 8590TIP3   OH247260   3.413   2.945  10.670  0.7471 -0.4186 -0.3756
 8590TIP3    H147261   3.341   2.948  10.607  0.6017  1.4767 -0.1867
 8590TIP3    H247262   3.424   3.036  10.697  4.0843 -0.3997 -1.3981
 8591TIP3   OH247263   6.233   0.939   2.704  0.4183  0.2611 -0.3684
 8591TIP3    H147264   6.205   0.848   2.709  1.1490  0.0959  1.1488
 8591TIP3    H247265   6.320   0.935   2.663  0.3363  0.2995 -0.5459
 8592TIP3   OH247266   0.727   4.646  12.105  0.2150 -0.8901 -0.2668
 8592TIP3    H147267   0.822   4.647  12.091  0.2844 -0.1345  0.1716
 8592TIP3    H247268   0.690   4.668  12.020  0.5158  0.6303 -0.0375
 8593TIP3   OH247269   5.350   5.759  12.276  0.2033  0.6256  0.1622
 8593TIP3    H147270   5.321   5.845  12.247  0.2556  0.4230 -0.5056
 8593TIP3    H247271   5.445   5.762  12.269  0.2057  0.5135  0.1401
 8594TIP3   OH247272   2.114   5.932   6.136 -0.2276  0.3527 -0.5253
 8594TIP3    H147273   2.048   5.992   6.172  0.8812  1.3075 -0.0353
 8594TIP3    H247274   2.180   5.989   6.096  0.9016 -0.5343  0.0204
 8595TIP3   OH247275   3.294   0.877   3.851 -0.2964  0.2065 -0.2190
 8595TIP3    H147276   3.212   0.878   3.900  0.1026 -0.6438  0.5012
 8595TIP3    H247277   3.268   0.861   3.760 -1.1428  2.9367 -0.5539
 8596TIP3   OH247278   3.019   0.854   3.327  0.0023 -0.0809  0.8459
 8596TIP3    H147279   3.081   0.799   3.374 -0.1574 -0.6881  0.3735
 8596TIP3    H247280   2.946   0.795   3.305 -0.4286  0.4510  0.8035
 8597TIP3   OH247281   0.043   0.901  15.087 -0.0298 -0.2405 -0.1123
 8597TIP3    H147282   0.089   0.865  15.012  0.1781  1.2289 -0.7299
 8597TIP3    H247283  -0.046   0.868  15.080 -0.1545  0.3356 -1.3281
 8598TIP3   OH247284   0.897   2.476  10.861  0.6729  0.0499  0.4649
 8598TIP3    H147285   0.865   2.386  10.868  0.0230  0.0231 -2.0912
 8598TIP3    H247286   0.963   2.473  10.792 -1.2830  1.9242 -1.6708
 8599TIP3   OH247287   0.064   0.604  12.796 -0.0987  0.5845  0.3998
 8599TIP3    H147288   0.104   0.685  12.765  1.7488 -0.5204 -0.1842
 8599TIP3    H247289   0.130   0.565  12.853 -1.7396  0.4215  2.3041
 8600TIP3   OH247290   4.151   4.127  16.820  0.2000 -0.2569  0.0322
 8600TIP3    H147291   4.168   4.210  16.776 -1.3088  0.8881  1.4798
 8600TIP3    H247292   4.128   4.152  16.910  0.3626 -2.2981  0.6929
 8601TIP3   OH247293   0.084   0.497   4.564  0.2816  0.6811  0.0509
 8601TIP3    H147294   0.090   0.494   4.469  3.6515  1.5954  0.0960
 8601TIP3    H247295   0.080   0.591   4.585 -0.7009  0.4833  0.8226
 8602TIP3   OH247296   6.153   2.239   4.229 -0.6713  0.1819 -0.3976
 8602TIP3    H147297   6.235   2.250   4.182  0.3517  0.5391  1.3602
 8602TIP3    H247298   6.122   2.329   4.245  0.6913  0.2671  2.3161
 8603TIP3   OH247299   2.393   2.926   4.529  0.6109  0.4511  0.4423
 8603TIP3    H147300   2.450   2.867   4.479 -1.0042  1.8227 -3.3423
 8603TIP3    H247301   2.451   2.965   4.595  2.9081 -1.4887 -0.2967
 8604TIP3   OH247302   6.152   2.692  12.669 -0.2546 -0.1219 -0.2253
 8604TIP3    H147303   6.091   2.647  12.727  0.3569  0.7380  1.1171
 8604TIP3    H247304   6.177   2.625  12.605 -1.0029 -1.0689  0.4365
 8605TIP3   OH247305   2.705   5.552  11.518  0.4136 -0.3255  0.2230
 8605TIP3    H147306   2.684   5.630  11.569  1.1479 -0.4340  0.7005
 8605TIP3    H247307   2.723   5.586  11.430 -1.1449 -0.1713 -0.0641
 8606TIP3   OH247308   6.185   4.562   3.527 -1.0167 -0.6183 -0.5500
 8606TIP3    H147309   6.258   4.600   3.478 -0.7249  0.2515  0.5153
 8606TIP3    H247310   6.147   4.635   3.575 -0.0041 -1.6823  2.1107
 8607TIP3   OH247311   4.229   1.449   3.193  0.2004 -0.3248  0.3484
 8607TIP3    H147312   4.138   1.429   3.171 -0.0286  0.4029  0.6354
 8607TIP3    H247313   4.251   1.387   3.263 -0.7963  0.9924  1.8844
 8608TIP3   OH247314   1.539   1.583  11.081 -0.5511 -0.4099 -0.3574
 8608TIP3    H147315   1.576   1.521  11.018 -0.4457  0.0601 -0.7607
 8608TIP3    H247316   1.583   1.665  11.063  0.0850 -0.4595  0.8927
 8609TIP3   OH247317   0.999   2.943  13.424 -0.2375  0.3103  0.5550
 8609TIP3    H147318   1.060   2.946  13.498  1.6355  0.7895 -0.9097
 8609TIP3    H247319   1.030   2.870  13.371  1.2340  2.5063 -1.8842
 8610TIP3   OH247320   3.465   2.378  13.547 -0.8705 -0.1617 -0.3139
 8610TIP3    H147321   3.482   2.315  13.617  0.4916  0.1388 -0.3556
 8610TIP3    H247322   3.471   2.463  13.590 -0.7838 -0.0024 -0.6429
 8611TIP3   OH247323   5.725   1.848   6.327  0.3520 -0.3760 -0.2086
 8611TIP3    H147324   5.757   1.885   6.245  0.9259 -0.0551  0.1530
 8611TIP3    H247325   5.728   1.921   6.389 -2.9652  0.2551 -0.6154
 8612TIP3   OH247326   6.281   0.682  15.417  0.3773 -0.1122  0.4851
 8612TIP3    H147327   6.359   0.630  15.438  0.0365 -0.0765  1.9395
 8612TIP3    H247328   6.315   0.771  15.406  0.5060  0.0133  1.6834
 8613TIP3   OH247329   3.130   6.479  12.733  0.8106  0.0143  0.0323
 8613TIP3    H147330   3.076   6.423  12.787  0.7898  0.2267  0.2323
 8613TIP3    H247331   3.071   6.546  12.700  1.1621  0.9002  1.1500
 8614TIP3   OH247332   6.084   0.963   5.529  0.1041  0.6505 -0.6659
 8614TIP3    H147333   6.063   1.010   5.609  1.6019  0.3060 -0.0492
 8614TIP3    H247334   6.160   1.007   5.493  0.0174  0.2252 -1.4134
 8615TIP3   OH247335   3.235   1.810   5.970  0.0867  0.8872  0.3157
 8615TIP3    H147336   3.150   1.767   5.969  0.3454  0.3649  0.5696
 8615TIP3    H247337   3.272   1.792   5.883  0.8799 -0.8018  0.9762
 8616TIP3   OH247338   3.461   2.770  16.858 -0.0008 -0.2641  0.6039
 8616TIP3    H147339   3.497   2.812  16.780 -0.7334 -3.5400 -1.6944
 8616TIP3    H247340   3.386   2.825  16.882 -1.2285 -0.3390 -2.5339
 8617TIP3   OH247341   3.030   5.479   4.452  0.1917  0.1937 -0.4432
 8617TIP3    H147342   3.038   5.518   4.539  1.5581 -1.0594  0.0409
 8617TIP3    H247343   3.032   5.553   4.392  1.9463  0.9387  0.4741
 8618TIP3   OH247344   0.835   0.769   5.333 -0.1057  0.2907  0.3506
 8618TIP3    H147345   0.878   0.795   5.414  1.4706 -1.4874  0.1400
 8618TIP3    H247346   0.895   0.707   5.292 -1.9956 -0.7943 -0.9496
 8619TIP3   OH247347   2.262   5.618  16.164 -0.4601  0.2796  0.1377
 8619TIP3    H147348   2.169   5.624  16.142 -0.8577  2.1677  1.9989
 8619TIP3    H247349   2.267   5.550  16.231 -0.0225 -1.7786 -1.8810
 8620TIP3   OH247350   0.430   3.305  16.126 -0.3169 -0.1510  0.4357
 8620TIP3    H147351   0.510   3.291  16.175  0.0993 -0.0148 -0.1927
 8620TIP3    H247352   0.428   3.232  16.063 -1.5874 -1.1806  1.5860
 8621TIP3   OH247353   6.706   0.861  12.292  0.4480 -0.6155 -0.4100
 8621TIP3    H147354   6.712   0.916  12.214  0.4252  0.2713  0.2085
 8621TIP3    H247355   6.633   0.897  12.342  1.6813  0.0549  0.9653
 8622TIP3   OH247356   2.220   3.335   2.153  0.2708  0.1668 -0.0932
 8622TIP3    H147357   2.294   3.313   2.097  1.5942  0.0229  1.6244
 8622TIP3    H247358   2.184   3.251   2.181 -0.5734  0.2357 -0.9137
 8623TIP3   OH247359   1.484   1.691  14.855  0.3942 -0.0582  0.3701
 8623TIP3    H147360   1.564   1.677  14.805  0.9161 -1.8812  1.6158
 8623TIP3    H247361   1.425   1.621  14.828  0.0978 -0.1285  1.1586
 8624TIP3   OH247362   1.669   1.236  11.039 -0.0656  0.0122  0.2153
 8624TIP3    H147363   1.748   1.287  11.021 -1.8930  2.9490 -0.1256
 8624TIP3    H247364   1.669   1.167  10.972  2.0576  0.0684  0.0947
 8625TIP3   OH247365   3.586   3.149  12.460 -0.8342 -0.1943  0.4189
 8625TIP3    H147366   3.623   3.236  12.475  1.3165 -0.6685 -1.5131
 8625TIP3    H247367   3.545   3.155  12.374 -1.1673 -0.9666  0.5164
 8626TIP3   OH247368   1.675   2.419  14.143 -0.0660 -0.6545  0.1782
 8626TIP3    H147369   1.614   2.355  14.179 -0.7114  0.5071  1.2131
 8626TIP3    H247370   1.757   2.403  14.190 -0.5755  0.0616  1.3693
 8627TIP3   OH247371   0.166   0.233  12.602 -0.1452  0.0141  0.5900
 8627TIP3    H147372   0.237   0.255  12.542  0.0182 -0.3461  0.6488
 8627TIP3    H247373   0.155   0.311  12.657 -0.0090  0.1861  0.3722
 8628TIP3   OH247374   4.031   1.010  16.402 -0.1708 -0.1025 -0.7028
 8628TIP3    H147375   4.044   0.945  16.471  0.7358  1.3003  0.5062
 8628TIP3    H247376   4.072   0.971  16.324  1.9259 -0.3165  0.4266
 8629TIP3   OH247377   6.354   4.475  16.100 -0.2711 -0.1233  0.3100
 8629TIP3    H147378   6.312   4.455  16.183 -0.7591  0.8843  0.3170
 8629TIP3    H247379   6.443   4.503  16.123 -0.5656  0.6378  0.5393
 8630TIP3   OH247380   2.299   3.416   0.708  0.0148  0.5404 -0.3658
 8630TIP3    H147381   2.264   3.389   0.623 -1.4940 -0.1183  0.4226
 8630TIP3    H247382   2.351   3.341   0.738 -0.5581  0.2278 -0.1315
 8631TIP3   OH247383   5.577   5.223   2.274 -0.6019  0.4857 -0.1691
 8631TIP3    H147384   5.596   5.177   2.355 -2.3295 -0.9096 -0.4940
 8631TIP3    H247385   5.581   5.316   2.297 -1.7184  0.1154  1.6980
 8632TIP3   OH247386   3.752   3.011  13.157  0.1465  0.4959 -0.0549
 8632TIP3    H147387   3.668   3.036  13.119  0.0634  0.0609 -0.1645
 8632TIP3    H247388   3.809   2.995  13.082 -0.3403 -1.4871 -0.0695
 8633TIP3   OH247389   1.612   6.359  12.512  0.6507  0.0212 -0.3204
 8633TIP3    H147390   1.607   6.268  12.482 -2.0365 -0.5509  1.4901
 8633TIP3    H247391   1.546   6.405  12.460  1.4953  0.8241 -0.7181
 8634TIP3   OH247392   6.365   5.726  13.573  0.0723 -0.1637 -0.0173
 8634TIP3    H147393   6.414   5.771  13.642 -0.1258  1.7101 -1.0662
 8634TIP3    H247394   6.418   5.736  13.495 -1.4957  1.0748 -0.9691
 8635TIP3   OH247395   6.443   2.800   3.635  0.1490 -0.2723 -0.1053
 8635TIP3    H147396   6.380   2.827   3.702  1.2752  0.3953  0.7175
 8635TIP3    H247397   6.529   2.813   3.676  0.8370 -0.8471 -1.3152
 8636TIP3   OH247398   5.718   2.473   0.900 -0.1920  0.5499  0.5915
 8636TIP3    H147399   5.768   2.391   0.903 -1.7180 -0.4222  0.5141
 8636TIP3    H247400   5.752   2.519   0.823  0.1860 -0.3464  0.2145
 8637TIP3   OH247401   1.671   0.158   5.885  0.4330 -0.1531  0.0570
 8637TIP3    H147402   1.614   0.122   5.952  0.5318 -1.6991 -0.6283
 8637TIP3    H247403   1.746   0.097   5.882  0.3534 -0.2247 -1.5254
 8638TIP3   OH247404   2.283   1.917  13.353 -0.7288  0.2748 -0.6930
 8638TIP3    H147405   2.366   1.888  13.392 -0.8682 -1.4257 -1.5499
 8638TIP3    H247406   2.291   2.012  13.347 -0.3915  0.5665  2.6734
 8639TIP3   OH247407   5.939   0.903  13.497  0.3349 -0.1198 -0.8713
 8639TIP3    H147408   5.901   0.985  13.529  0.1788 -1.0175  1.4285
 8639TIP3    H247409   6.012   0.930  13.441  0.8974  1.5926  0.6104
 8640TIP3   OH247410   2.592   6.560  13.896  0.3311 -0.0899  0.0970
 8640TIP3    H147411   2.581   6.538  13.804 -1.0586  0.4852  0.0955
 8640TIP3    H247412   2.543   6.493  13.943  0.6327 -0.1067  0.3911
 8641TIP3   OH247413   4.215   2.332  11.448 -0.4411 -0.1763  0.0632
 8641TIP3    H147414   4.220   2.427  11.457 -1.8767 -0.2219  2.0704
 8641TIP3    H247415   4.292   2.308  11.397 -0.1111  2.0653 -0.5744
 8642TIP3   OH247416   1.673   6.199   0.192 -0.3760  0.0376  0.6768
 8642TIP3    H147417   1.629   6.197   0.277  1.4475  0.3279  1.6812
 8642TIP3    H247418   1.703   6.289   0.182  2.2029 -0.6916  1.2653
 8643TIP3   OH247419   3.662   0.518   0.749  0.1763  0.1771 -0.2072
 8643TIP3    H147420   3.657   0.599   0.800 -0.0133  0.0479 -0.0209
 8643TIP3    H247421   3.735   0.532   0.689  0.4655  0.2907  0.1663
 8644TIP3   OH247422   4.577   0.197  12.093  0.4223 -0.1107  0.1499
 8644TIP3    H147423   4.523   0.150  12.157  1.2135 -0.7170  0.3916
 8644TIP3    H247424   4.516   0.253  12.047 -0.8032 -2.2750 -1.0031
 8645TIP3   OH247425   6.203   2.227   0.631  0.1140  0.0231 -0.0876
 8645TIP3    H147426   6.248   2.212   0.714 -0.6453  0.2864  0.3861
 8645TIP3    H247427   6.135   2.159   0.628 -1.0245  1.0936  0.3778
 8646TIP3   OH247428   4.829   2.793   0.332  0.2553 -0.4324 -0.1450
 8646TIP3    H147429   4.738   2.773   0.310  0.0120 -0.2109  0.5997
 8646TIP3    H247430   4.824   2.827   0.422  0.5774  3.2488 -1.3683
 8647TIP3   OH247431   1.730   4.386  16.552  0.0537 -0.4272 -0.2106
 8647TIP3    H147432   1.653   4.422  16.508  0.7585  2.0998  0.4636
 8647TIP3    H247433   1.798   4.388  16.485 -0.5714 -3.5427 -1.0935
 8648TIP3   OH247434   4.912   2.508   1.747 -0.1828  0.0847  0.0639
 8648TIP3    H147435   4.882   2.545   1.664 -0.2669  2.0501  0.9222
 8648TIP3    H247436   4.846   2.535   1.811  0.7809  0.1049  1.0812
 8649TIP3   OH247437   0.218   6.397   4.636  0.0486  0.6907  0.3294
 8649TIP3    H147438   0.259   6.328   4.688 -0.2075  1.0855  1.0675
 8649TIP3    H247439   0.283   6.418   4.569  0.7667  0.8267  1.0549
 8650TIP3   OH247440   3.503   3.679  15.797  0.0284 -0.0594 -0.0097
 8650TIP3    H147441   3.505   3.643  15.709  0.0744  0.1350 -0.0886
 8650TIP3    H247442   3.474   3.769  15.786  0.0770 -0.0209  0.1685
 8651TIP3   OH247443   2.701   3.922   3.165  0.4515 -0.0685  0.2729
 8651TIP3    H147444   2.756   3.918   3.087 -0.9621  0.2345 -0.7832
 8651TIP3    H247445   2.616   3.888   3.137 -0.4961  1.3134  1.2850
 8652TIP3   OH247446   2.216   2.400  15.020 -0.6476  0.1453  0.6358
 8652TIP3    H147447   2.290   2.431  15.072  2.0283 -0.0983 -2.6879
 8652TIP3    H247448   2.217   2.305  15.031 -0.3289  0.1262  0.4494
 8653TIP3   OH247449   1.188   1.806   3.236  0.2975 -0.7166 -0.3561
 8653TIP3    H147450   1.249   1.786   3.307 -0.8999  0.3914  1.0716
 8653TIP3    H247451   1.220   1.888   3.199 -0.6743  0.2964  0.9202
 8654TIP3   OH247452   0.852   1.919  17.084  0.4573 -0.5264 -0.2439
 8654TIP3    H147453   0.868   1.839  17.134 -0.4636 -2.4290 -2.7550
 8654TIP3    H247454   0.929   1.928  17.027  0.0335 -0.3149 -0.7958
 8655TIP3   OH247455   0.769   4.690  16.846 -0.2437 -0.4192 -0.1931
 8655TIP3    H147456   0.854   4.726  16.869 -0.4947  0.2486 -0.2881
 8655TIP3    H247457   0.773   4.598  16.872 -0.4850  0.2447  2.4790
 8656TIP3   OH247458   1.188   0.691   0.449  0.0114 -0.0011 -0.4394
 8656TIP3    H147459   1.222   0.764   0.398  1.1426 -1.2243 -1.5246
 8656TIP3    H247460   1.170   0.728   0.535  1.3013  1.3725 -0.7148
 8657TIP3   OH247461   0.902   3.692  15.883  0.1528  0.2305  0.2164
 8657TIP3    H147462   0.978   3.734  15.924  0.4251 -0.4817  0.4548
 8657TIP3    H247463   0.939   3.619  15.833 -0.4094 -0.3315  0.6159
 8658TIP3   OH247464   5.212   5.504  10.811 -0.1640 -0.2975 -0.2348
 8658TIP3    H147465   5.194   5.439  10.743  2.9913  0.6048 -2.1558
 8658TIP3    H247466   5.144   5.571  10.798 -0.7426 -1.0537 -1.2534
 8659TIP3   OH247467   6.779   1.191   3.463  0.5667 -0.2486 -0.0527
 8659TIP3    H147468   6.848   1.137   3.501  2.0142  1.9096  0.5476
 8659TIP3    H247469   6.731   1.225   3.538 -0.1710 -0.4474 -0.4199
 8660TIP3   OH247470   1.584   6.821   5.651 -0.0068 -0.4132 -0.1918
 8660TIP3    H147471   1.595   6.905   5.697 -1.9259  0.5109 -1.3135
 8660TIP3    H247472   1.645   6.826   5.578  1.2476 -0.8318  0.7889
 8661TIP3   OH247473   1.379   4.351   5.677 -0.0156  0.6345 -0.0407
 8661TIP3    H147474   1.389   4.445   5.692  1.0623  0.7651 -1.3549
 8661TIP3    H247475   1.425   4.336   5.594 -0.1014 -1.0645  0.1997
 8662TIP3   OH247476   2.170   3.135   2.823  1.0629 -0.2991 -0.1633
 8662TIP3    H147477   2.196   3.112   2.912  1.1021 -0.2340 -0.1572
 8662TIP3    H247478   2.253   3.158   2.780  0.8758  1.3485  0.2786
 8663TIP3   OH247479   4.021   4.943  13.169  0.1940  0.0667 -0.3917
 8663TIP3    H147480   3.985   5.028  13.144 -0.4759 -0.4827 -1.3668
 8663TIP3    H247481   4.039   4.899  13.086  1.5766 -0.3296  0.0943
 8664TIP3   OH247482   6.339   4.871   3.650  0.1810  0.3674  0.1635
 8664TIP3    H147483   6.248   4.847   3.669  0.4394 -0.7392  0.1191
 8664TIP3    H247484   6.355   4.949   3.702 -0.5120  0.0214  0.9254
 8665TIP3   OH247485   3.935   4.552  11.750 -0.4347  0.7501  0.0244
 8665TIP3    H147486   4.028   4.538  11.732 -0.7374  2.2150 -3.4849
 8665TIP3    H247487   3.908   4.474  11.797  2.0894 -0.7690 -0.8160
 8666TIP3   OH247488   0.716   3.433  16.583  0.0513 -0.4017  0.9980
 8666TIP3    H147489   0.650   3.367  16.562  0.2084 -1.1330  2.6180
 8666TIP3    H247490   0.742   3.413  16.673  0.9685  1.1559  1.1231
 8667TIP3   OH247491   6.159   5.477  14.175  0.2610 -0.6149 -0.3597
 8667TIP3    H147492   6.172   5.389  14.212 -0.1896 -1.4369 -2.0577
 8667TIP3    H247493   6.161   5.535  14.251 -1.8636 -2.3340  1.1610
 8668TIP3   OH247494   6.606   2.589  11.703 -0.3263 -0.4725 -0.2041
 8668TIP3    H147495   6.639   2.610  11.616 -0.2021 -0.2798 -0.1121
 8668TIP3    H247496   6.652   2.509  11.727  2.1945  1.2197  1.0525
 8669TIP3   OH247497   5.302   1.634   2.224  0.0079  0.2479  0.0384
 8669TIP3    H147498   5.385   1.610   2.266  0.6978 -0.1797 -1.5097
 8669TIP3    H247499   5.235   1.587   2.275  0.9136 -1.1793 -0.0383
 8670TIP3   OH247500   3.487   6.442  12.288  0.1152  0.0671 -0.0701
 8670TIP3    H147501   3.526   6.496  12.356  0.2573 -2.7215  2.2145
 8670TIP3    H247502   3.398   6.426  12.318 -0.4444  0.3046 -1.5199
 8671TIP3   OH247503   2.305   4.123  16.599  0.1565 -0.1061 -0.1536
 8671TIP3    H147504   2.380   4.087  16.646 -1.0426 -1.0831  1.0828
 8671TIP3    H247505   2.229   4.098  16.652 -1.0532  0.8137 -1.3886
 8672TIP3   OH247506   2.119   5.647  15.368 -0.2367  0.0006 -0.7094
 8672TIP3    H147507   2.086   5.558  15.353 -0.8880 -0.1762  1.5141
 8672TIP3    H247508   2.191   5.636  15.430 -0.6263  1.0532 -0.0532
 8673TIP3   OH247509   4.882   2.789  16.882 -0.6373  0.1542  0.0052
 8673TIP3    H147510   4.869   2.697  16.857 -1.3013  0.3325 -0.3315
 8673TIP3    H247511   4.976   2.804  16.871 -0.5996 -0.3489 -0.4245
 8674TIP3   OH247512   6.312   2.644   1.057  0.2230  0.6172  0.3238
 8674TIP3    H147513   6.400   2.677   1.036  0.4291  0.2683  0.6354
 8674TIP3    H247514   6.265   2.722   1.088  1.0502  0.4408  2.1576
 8675TIP3   OH247515   2.516   6.438   1.252  0.5733 -0.5042 -0.3941
 8675TIP3    H147516   2.460   6.484   1.190 -0.9980 -1.7381  0.0314
 8675TIP3    H247517   2.565   6.507   1.297 -0.6797  0.6370 -0.7334
 8676TIP3   OH247518   4.038   3.272  16.232 -0.1502  0.3792 -0.1041
 8676TIP3    H147519   4.103   3.209  16.262  0.5774  0.5570 -1.2490
 8676TIP3    H247520   4.017   3.245  16.143 -2.8133 -0.5606  0.7235
 8677TIP3   OH247521   2.493   6.320  14.376 -0.0438  0.0302  0.1348
 8677TIP3    H147522   2.492   6.360  14.462 -0.5183 -1.3186  0.7863
 8677TIP3    H247523   2.402   6.323  14.346  0.3361  1.8060 -0.9892
 8678TIP3   OH247524   4.532   5.429   4.762  0.5010 -0.0969 -0.2167
 8678TIP3    H147525   4.511   5.426   4.669 -1.5771  0.0744  0.1925
 8678TIP3    H247526   4.486   5.354   4.799  1.5699 -0.3563  0.6457
 8679TIP3   OH247527   1.528   6.186   4.400 -0.6955  0.1216  0.1217
 8679TIP3    H147528   1.477   6.261   4.430 -0.8795 -0.1727  0.5430
 8679TIP3    H247529   1.583   6.222   4.330 -1.5445  0.4174 -0.4131
 8680TIP3   OH247530   3.544   4.384   0.035  0.3321 -0.1150  0.5112
 8680TIP3    H147531   3.603   4.417   0.102  1.0713 -0.9029  0.2675
 8680TIP3    H247532   3.468   4.352   0.083  1.1219 -1.2470  1.0341
 8681TIP3   OH247533   2.046   2.010  14.332  0.8873 -0.1959 -0.0838
 8681TIP3    H147534   2.028   1.960  14.252 -2.1681  0.0549  0.3297
 8681TIP3    H247535   2.108   1.955  14.381 -0.5288 -2.5192 -0.7131
 8682TIP3   OH247536   6.406   5.919   1.546  0.0691  0.1454 -0.0827
 8682TIP3    H147537   6.452   5.842   1.580 -0.6252  0.4597  1.6641
 8682TIP3    H247538   6.316   5.889   1.532  0.1229  0.2834 -0.7421
 8683TIP3   OH247539   6.606   2.353   2.896  0.5867  0.2265 -0.5952
 8683TIP3    H147540   6.637   2.444   2.885 -0.8255  0.8428  0.2969
 8683TIP3    H247541   6.560   2.334   2.814  2.4876 -0.3969 -1.5780
 8684TIP3   OH247542   0.127   2.329  14.309 -0.1727 -0.0351 -0.1045
 8684TIP3    H147543   0.115   2.390  14.236 -0.3634  0.0780  0.0192
 8684TIP3    H247544   0.197   2.270  14.281 -1.9994 -1.6785 -1.5022
 8685TIP3   OH247545   0.454   0.145  11.296  0.4861 -0.3761 -0.1326
 8685TIP3    H147546   0.359   0.144  11.284  0.0461  2.9196  1.7124
 8685TIP3    H247547   0.472   0.071  11.354 -0.8552 -1.3368 -0.8901
 8686TIP3   OH247548   0.870   1.519   0.472 -0.4635 -0.2666 -0.1898
 8686TIP3    H147549   0.934   1.575   0.515 -0.5640  0.5989 -1.1347
 8686TIP3    H247550   0.790   1.530   0.523 -0.1070 -0.6926  0.4853
 8687TIP3   OH247551   3.771   0.313  12.753  0.1010  0.1614  0.0553
 8687TIP3    H147552   3.775   0.223  12.721 -0.0762 -0.5494  1.9590
 8687TIP3    H247553   3.816   0.364  12.685  2.8343 -1.7445  0.3060
 8688TIP3   OH247554   6.761   6.369  15.194  0.9807  0.2293 -0.4264
 8688TIP3    H147555   6.796   6.455  15.218  1.6606  0.2904 -1.5570
 8688TIP3    H247556   6.762   6.369  15.098 -3.5332  0.7862 -0.6784
 8689TIP3   OH247557   2.900   1.120  12.004  0.0296 -0.6640  0.9655
 8689TIP3    H147558   2.927   1.209  12.023 -1.7220  0.0354  0.3889
 8689TIP3    H247559   2.980   1.076  11.977  0.9914  0.6170  1.6292
 8690TIP3   OH247560   5.904   6.172   1.049 -0.4940  0.6287 -0.3361
 8690TIP3    H147561   5.958   6.126   0.984 -2.0500 -0.9542 -0.5932
 8690TIP3    H247562   5.964   6.193   1.120  0.3796 -1.6198 -0.3334
 8691TIP3   OH247563   3.357   3.399  14.897 -0.1377 -0.2502  0.3741
 8691TIP3    H147564   3.274   3.377  14.854 -0.2107 -1.3207  1.0195
 8691TIP3    H247565   3.386   3.479  14.853 -1.1817 -0.2202 -0.3100
 8692TIP3   OH247566   3.343   3.933  12.748  0.3914 -0.6285 -0.1744
 8692TIP3    H147567   3.305   4.021  12.752  1.5592 -0.0713 -0.8509
 8692TIP3    H247568   3.322   3.895  12.834  1.2621  0.9182  0.7786
 8693TIP3   OH247569   4.638   6.784   4.190  0.0864  0.3708  0.3566
 8693TIP3    H147570   4.699   6.815   4.256 -0.7514  0.8251  0.9364
 8693TIP3    H247571   4.588   6.716   4.234  0.2001 -0.0351 -0.1299
 8694TIP3   OH247572   0.437   0.453   5.514 -0.2310 -0.0442 -0.0495
 8694TIP3    H147573   0.442   0.362   5.544 -0.7227 -0.3288 -0.8056
 8694TIP3    H247574   0.523   0.471   5.476 -0.4894 -0.5660 -0.9089
 8695TIP3   OH247575   2.514   1.125   6.099  0.2448 -0.7006  0.4823
 8695TIP3    H147576   2.574   1.192   6.130 -0.3187 -0.3218  0.7688
 8695TIP3    H247577   2.461   1.103   6.175 -0.9508  0.0263 -0.1033
 8696TIP3   OH247578   3.337   1.113  17.058  0.3373  0.2415 -0.0259
 8696TIP3    H147579   3.243   1.129  17.057  0.4185  0.7260 -0.8881
 8696TIP3    H247580   3.350   1.052  17.131 -0.6767 -0.0653 -0.0795
 8697TIP3   OH247581   5.704   0.197  13.704 -0.0050 -0.2167  0.2431
 8697TIP3    H147582   5.759   0.274  13.712 -1.1669  0.4718  3.3633
 8697TIP3    H247583   5.660   0.207  13.620  1.8673  1.0924 -0.6359
 8698TIP3   OH247584   4.104   3.890  14.685  0.5485 -0.5941  0.1043
 8698TIP3    H147585   4.047   3.893  14.609  1.2670  0.8739 -0.3999
 8698TIP3    H247586   4.140   3.801  14.684 -0.3810 -0.9730 -0.5555
 8699TIP3   OH247587   0.781   6.296  13.904  0.3786  1.1011 -0.0758
 8699TIP3    H147588   0.724   6.342  13.841  0.0006  3.1329  1.6175
 8699TIP3    H247589   0.725   6.229  13.942  0.2261  0.7085 -0.9593
 8700TIP3   OH247590   0.438   5.050   5.800  0.7960 -0.2568 -0.3163
 8700TIP3    H147591   0.423   4.967   5.755  1.3714 -0.2070 -0.6171
 8700TIP3    H247592   0.378   5.112   5.758  1.6555 -0.0963 -1.3758
 8701TIP3   OH247593   3.350   5.602   2.579 -0.4264  0.3609 -0.3887
 8701TIP3    H147594   3.417   5.538   2.602 -0.7264  0.3418  0.4569
 8701TIP3    H247595   3.269   5.568   2.618 -0.1860  2.3791  2.1784
 8702TIP3   OH247596   4.895   6.606  14.092  0.6142  0.0268  0.1665
 8702TIP3    H147597   4.843   6.574  14.165  1.7731  0.8108  1.3740
 8702TIP3    H247598   4.979   6.630  14.130  0.1050  3.9016 -0.6600
 8703TIP3   OH247599   3.246   6.337   4.846 -0.1137  0.0187 -0.6639
 8703TIP3    H147600   3.163   6.306   4.810 -0.7030  1.0176 -0.1997
 8703TIP3    H247601   3.312   6.305   4.784 -1.0367  1.2344 -2.3850
 8704TIP3   OH247602   2.301   1.967  12.999 -0.5348  0.1982  0.4167
 8704TIP3    H147603   2.379   1.918  13.027 -0.6697 -0.5137 -0.3965
 8704TIP3    H247604   2.231   1.934  13.055 -1.1246 -2.3158 -1.5876
 8705TIP3   OH247605   0.239   2.711   2.450 -0.1392 -0.4539 -0.8329
 8705TIP3    H147606   0.176   2.699   2.378 -0.2863 -1.3696 -0.5607
 8705TIP3    H247607   0.297   2.781   2.419 -1.4833  0.6560 -0.9519
 8706TIP3   OH247608   4.001   5.205   5.740  0.0976 -0.5024 -0.2003
 8706TIP3    H147609   3.936   5.136   5.730  0.3295 -0.9193  0.9340
 8706TIP3    H247610   3.956   5.273   5.791  0.2788 -0.4181 -0.1520
 8707TIP3   OH247611   6.380   1.828   2.283  0.4496  0.2797 -0.6637
 8707TIP3    H147612   6.301   1.815   2.232 -1.1284 -2.2017  2.0855
 8707TIP3    H247613   6.352   1.880   2.358  1.4163 -0.5819  0.3289
 8708TIP3   OH247614   6.277   5.542  15.908  0.3814  0.3615  0.2430
 8708TIP3    H147615   6.289   5.450  15.928  1.2665  0.2669 -0.6887
 8708TIP3    H247616   6.229   5.544  15.825  2.2459  0.6946 -0.8821
 8709TIP3   OH247617   5.908   4.166   3.313  0.3799 -0.0168  0.0665
 8709TIP3    H147618   5.956   4.160   3.230 -2.1837 -0.1258 -1.5083
 8709TIP3    H247619   5.964   4.121   3.376  3.0072  1.1373 -1.2578
 8710TIP3   OH247620   4.609   6.173  12.784 -0.0613  0.0659 -0.2255
 8710TIP3    H147621   4.623   6.078  12.781  2.6974  0.3764  0.7078
 8710TIP3    H247622   4.570   6.193  12.698  1.8799 -1.5718 -1.5991
 8711TIP3   OH247623   5.208   4.603  13.277  0.1184  0.0355 -0.1509
 8711TIP3    H147624   5.276   4.670  13.288  1.5606 -1.4062  0.2204
 8711TIP3    H247625   5.239   4.550  13.203 -0.4063 -0.8861  0.2782
 8712TIP3   OH247626   0.738   4.178  16.918 -0.0164  0.3472  0.0467
 8712TIP3    H147627   0.681   4.249  16.890 -0.9554 -0.9960 -1.6551
 8712TIP3    H247628   0.703   4.151  17.003 -2.4718 -0.8990 -1.2541
 8713TIP3   OH247629   3.595   0.834   0.014 -0.7942  0.3394  0.4134
 8713TIP3    H147630   3.584   0.777  -0.062 -0.3822 -3.1453  2.7735
 8713TIP3    H247631   3.684   0.869   0.006 -0.2944 -1.0001 -0.0954
 8714TIP3   OH247632   5.211   3.701  15.409 -0.3940  0.6246 -0.3216
 8714TIP3    H147633   5.131   3.743  15.443 -0.6107  0.0156 -0.0684
 8714TIP3    H247634   5.249   3.657  15.485 -0.7708 -0.5783 -0.8087
 8715TIP3   OH247635   3.763   4.465  14.950 -0.1717 -0.0554  0.4032
 8715TIP3    H147636   3.819   4.421  15.014 -0.0244  1.3394  1.2877
 8715TIP3    H247637   3.820   4.480  14.874  0.0789 -0.4319  0.5148
 8716TIP3   OH247638   3.565   1.624  13.768  0.4125 -0.3854 -0.3781
 8716TIP3    H147639   3.575   1.679  13.690  2.3260 -0.4549 -0.2169
 8716TIP3    H247640   3.644   1.639  13.819  0.0034 -1.6902  0.7049
 8717TIP3   OH247641   4.919   5.655   5.718 -0.7513 -0.3054 -0.6429
 8717TIP3    H147642   4.928   5.587   5.651 -0.8262 -1.8306  0.8162
 8717TIP3    H247643   4.829   5.687   5.708 -0.6339 -0.2181 -1.5138
 8718TIP3   OH247644   4.210   1.951  14.868 -0.3513 -0.3905 -0.1012
 8718TIP3    H147645   4.208   1.931  14.774 -0.9473 -0.1170 -0.1491
 8718TIP3    H247646   4.160   2.032  14.876  0.7052  0.2389  0.3005
 8719TIP3   OH247647   6.069   4.440   6.560 -0.0334 -0.8295  0.1675
 8719TIP3    H147648   6.138   4.437   6.625  0.9175  1.9871 -0.5626
 8719TIP3    H247649   6.114   4.423   6.477 -0.6727 -1.3435 -0.0825
 8720TIP3   OH247650   3.510   6.598  16.387 -0.1282  0.0553 -0.1581
 8720TIP3    H147651   3.542   6.676  16.341  0.8636 -0.0209  0.3779
 8720TIP3    H247652   3.536   6.612  16.478  0.6618 -1.2107 -0.1686
 8721TIP3   OH247653   5.892   2.350  15.376 -0.0193 -0.3192 -0.1459
 8721TIP3    H147654   5.893   2.328  15.469 -0.2301  0.2402 -0.0111
 8721TIP3    H247655   5.900   2.265  15.332 -1.6505 -0.7652  0.3616
 8722TIP3   OH247656   6.301   6.647   3.247  0.1148 -0.0333  0.4745
 8722TIP3    H147657   6.291   6.736   3.213 -0.0328 -0.7498 -1.4935
 8722TIP3    H247658   6.375   6.611   3.199 -0.3571 -1.2511  0.6149
 8723TIP3   OH247659   3.742   5.076  10.437 -0.2273  0.2683  0.3601
 8723TIP3    H147660   3.733   5.122  10.353  0.9808 -2.3574 -1.3661
 8723TIP3    H247661   3.664   5.100  10.487 -3.0559 -0.9891 -3.0585
 8724TIP3   OH247662   0.914   1.546   1.934 -0.1009  0.3260  0.3946
 8724TIP3    H147663   0.822   1.571   1.923 -0.1339 -0.4442 -1.5124
 8724TIP3    H247664   0.911   1.451   1.950  0.3884 -0.0052 -1.2651
 8725TIP3   OH247665   0.664   5.599   4.278 -0.5783 -0.3586  0.0105
 8725TIP3    H147666   0.704   5.529   4.330 -1.6958 -1.0492 -0.0336
 8725TIP3    H247667   0.625   5.554   4.203  1.7474  0.6955 -1.9688
 8726TIP3   OH247668   1.567   4.634  16.123 -0.2979 -0.1331  0.3430
 8726TIP3    H147669   1.618   4.707  16.087  0.1015 -0.5005  0.1535
 8726TIP3    H247670   1.477   4.654  16.099 -0.0829 -0.1732 -0.5350
 8727TIP3   OH247671   2.993   3.087  15.053 -0.4894  0.4924  0.2240
 8727TIP3    H147672   3.045   3.094  14.973  0.5718  1.6260  0.9661
 8727TIP3    H247673   2.934   3.014  15.037  2.2303 -1.7810 -0.1607
 8728TIP3   OH247674   4.286   6.489   2.876 -0.2551 -0.3198  0.6825
 8728TIP3    H147675   4.314   6.486   2.968 -0.8014 -0.9737  0.8380
 8728TIP3    H247676   4.319   6.407   2.839 -2.0244 -1.1675  0.9026
 8729TIP3   OH247677   0.548   5.792  15.267  0.1257  0.2117 -0.1921
 8729TIP3    H147678   0.641   5.799  15.289 -0.1410  2.4472  0.5525
 8729TIP3    H247679   0.509   5.742  15.338  0.3952  1.3964  0.8200
 8730TIP3   OH247680   5.784   4.793  14.042 -0.1900  0.3783 -0.6468
 8730TIP3    H147681   5.875   4.764  14.032 -0.7299 -1.0959 -1.4493
 8730TIP3    H247682   5.763   4.835  13.959  0.3752  2.6187  0.2741
 8731TIP3   OH247683   3.840   4.735  16.417  0.2954  0.2569 -0.3425
 8731TIP3    H147684   3.816   4.770  16.331 -0.4807 -0.9751 -0.6495
 8731TIP3    H247685   3.864   4.644  16.400 -1.0859 -0.3917  0.8995
 8732TIP3   OH247686   2.059   4.262  11.179 -0.5688 -0.3472  0.0254
 8732TIP3    H147687   2.121   4.319  11.225 -1.9529  0.8816  0.4584
 8732TIP3    H247688   2.107   4.232  11.102  0.7564  0.0701  0.6558
 8733TIP3   OH247689   1.916   6.667   5.244  0.0263  0.4122  0.2009
 8733TIP3    H147690   1.889   6.620   5.322  3.8874 -1.1380  0.8055
 8733TIP3    H247691   2.004   6.698   5.263  0.1591  2.2098 -2.6467
 8734TIP3   OH247692   2.705   6.152   3.491  0.2366 -0.0427  0.1784
 8734TIP3    H147693   2.659   6.090   3.435 -0.3258 -0.3713  0.9864
 8734TIP3    H247694   2.652   6.157   3.571  0.5424  1.0846  0.3350
 8735TIP3   OH247695   1.456   0.832  15.665 -0.9286 -0.2584  0.3530
 8735TIP3    H147696   1.370   0.874  15.655 -0.4939  0.2994 -1.3769
 8735TIP3    H247697   1.451   0.753  15.612 -0.5570 -0.5426  0.7312
 8736TIP3   OH247698   2.242   1.322   5.078  0.4413 -0.2884  0.0625
 8736TIP3    H147699   2.328   1.334   5.117  0.1168  1.9180  0.2053
 8736TIP3    H247700   2.241   1.379   5.001 -0.4867 -1.1987 -0.6422
 8737TIP3   OH247701   0.295   4.005   0.909 -0.2893  0.3948 -0.9071
 8737TIP3    H147702   0.216   3.955   0.926 -1.3863  2.5561  0.7565
 8737TIP3    H247703   0.265   4.081   0.858  0.4611  1.7904  0.6311
 8738TIP3   OH247704   5.825   6.500   4.933  1.0585  0.2023  0.4395
 8738TIP3    H147705   5.905   6.489   4.882  1.2450 -0.1887  0.8030
 8738TIP3    H247706   5.761   6.533   4.871  1.1182 -0.7982 -0.1871
 8739TIP3   OH247707   0.457   3.351   4.900  0.1201  0.3355 -0.4665
 8739TIP3    H147708   0.362   3.349   4.890  0.2246 -0.3730 -1.4422
 8739TIP3    H247709   0.476   3.283   4.964  0.0514 -0.3555 -1.1621
 8740TIP3   OH247710   6.464   4.865   2.705 -0.2121 -0.6149 -0.4942
 8740TIP3    H147711   6.519   4.899   2.635 -0.7304  0.8313 -0.2457
 8740TIP3    H247712   6.524   4.851   2.779  0.4999 -3.0082 -1.4219
 8741TIP3   OH247713   0.714   3.778  16.981  0.1713 -0.7469 -0.0649
 8741TIP3    H147714   0.777   3.746  17.046  1.4053  1.5670 -0.0024
 8741TIP3    H247715   0.768   3.817  16.913 -1.1515  1.3874  0.0119
 8742TIP3   OH247716   5.118   0.921   4.041  0.1628  0.0894  0.7107
 8742TIP3    H147717   5.172   0.855   3.997  1.5017  2.3495 -1.3159
 8742TIP3    H247718   5.146   0.918   4.132  2.6031  0.0352  0.0328
 8743TIP3   OH247719   2.657   4.308  16.569  0.0883  0.4556  0.4699
 8743TIP3    H147720   2.604   4.320  16.491  1.7857 -0.8621 -0.9632
 8743TIP3    H247721   2.665   4.214  16.580  0.7417  0.6188  1.6312
 8744TIP3   OH247722   1.096   0.516  12.559  0.0434 -0.1529 -0.4488
 8744TIP3    H147723   1.091   0.443  12.497 -0.3268 -0.1356 -0.4400
 8744TIP3    H247724   1.188   0.517  12.587  1.1460  1.9718 -3.5825
 8745TIP3   OH247725   3.731   6.403   4.713  0.2724 -0.0494  0.2159
 8745TIP3    H147726   3.784   6.339   4.761 -0.2884  0.0421  0.9740
 8745TIP3    H247727   3.662   6.350   4.671  1.6039 -0.3300 -1.7618
 8746TIP3   OH247728   1.426   6.302  13.778 -0.7660 -0.0363  0.4148
 8746TIP3    H147729   1.434   6.379  13.835  0.2457 -0.1862  0.4945
 8746TIP3    H247730   1.402   6.231  13.837  0.6564 -0.2727  0.7369
 8747TIP3   OH247731   1.646   3.876  11.465  0.2138 -0.1930 -0.3432
 8747TIP3    H147732   1.670   3.888  11.373  1.0918  0.1533 -0.0802
 8747TIP3    H247733   1.659   3.963  11.504 -2.0682  0.1836 -0.2872
 8748TIP3   OH247734   1.783   3.323   5.263 -0.0065  0.5335 -0.6922
 8748TIP3    H147735   1.692   3.298   5.275  0.4882 -1.1436 -0.2050
 8748TIP3    H247736   1.791   3.406   5.310 -1.6692  1.6038 -2.2034
 8749TIP3   OH247737   3.767   6.412  14.806 -0.0276  0.5272 -0.5036
 8749TIP3    H147738   3.830   6.423  14.878  2.6426 -0.9386 -2.4155
 8749TIP3    H247739   3.683   6.401  14.850  1.3927  0.0623  2.3984
 8750TIP3   OH247740   2.636   2.146  13.568 -0.8895  0.4241 -0.0178
 8750TIP3    H147741   2.651   2.124  13.476  0.7464 -1.0088  0.5404
 8750TIP3    H247742   2.687   2.225  13.582 -0.2548  0.0426 -0.1058
 8751TIP3   OH247743   0.800   1.263  17.155  0.0828 -0.1730 -0.3195
 8751TIP3    H147744   0.729   1.203  17.134  1.1542 -1.8851  0.7511
 8751TIP3    H247745   0.778   1.343  17.107 -3.0258 -0.2801  0.6441
 8752TIP3   OH247746   4.393   3.642   1.949 -0.4210  0.5849  0.1892
 8752TIP3    H147747   4.466   3.593   1.911 -0.2995 -0.0932  1.2451
 8752TIP3    H247748   4.352   3.687   1.875  0.7002  0.4890 -0.5020
 8753TIP3   OH247749   1.101   4.769  15.635  0.3231 -0.2403 -0.2971
 8753TIP3    H147750   1.072   4.779  15.726  0.0220 -3.7536  0.1339
 8753TIP3    H247751   1.029   4.804  15.583 -2.1084 -3.1043  0.8503
 8754TIP3   OH247752   6.635   2.156  13.690  0.3331  0.1379  0.3086
 8754TIP3    H147753   6.697   2.094  13.728  0.2176  0.0230  0.3121
 8754TIP3    H247754   6.673   2.242  13.705  0.0961  0.1211  1.0423
 8755TIP3   OH247755   5.050   5.226   1.140  0.1514 -0.8588  0.8768
 8755TIP3    H147756   5.023   5.295   1.080  3.5009  1.1337  1.3955
 8755TIP3    H247757   5.062   5.149   1.084 -2.3960 -0.7650  0.0796
 8756TIP3   OH247758   3.806   3.939   4.937  0.4576 -0.1365  0.4113
 8756TIP3    H147759   3.800   3.989   5.018  0.4531 -1.7649  1.4629
 8756TIP3    H247760   3.757   3.991   4.873 -1.0533  0.3545  1.8841
 8757TIP3   OH247761   2.221   5.069  17.032  0.6744 -0.2218 -0.4980
 8757TIP3    H147762   2.294   5.105  16.981  0.0988 -0.3561 -1.4290
 8757TIP3    H247763   2.143   5.093  16.983 -0.0197  0.8114  0.9987
 8758TIP3   OH247764   4.787   5.609   1.925 -0.0702 -0.3296  0.0627
 8758TIP3    H147765   4.800   5.592   2.018 -0.3188  1.5720  0.5008
 8758TIP3    H247766   4.732   5.688   1.923 -0.9764 -0.9508 -1.7031
 8759TIP3   OH247767   1.314   3.960   1.523  0.5012  0.1776  0.1015
 8759TIP3    H147768   1.402   3.998   1.517  0.4632  0.0373 -2.7315
 8759TIP3    H247769   1.262   4.027   1.567  1.2039  1.9624 -1.6410
 8760TIP3   OH247770   3.400   5.362   1.277 -0.2816  0.3080  0.0277
 8760TIP3    H147771   3.397   5.387   1.185  0.9384  0.7124  0.0786
 8760TIP3    H247772   3.403   5.266   1.276 -0.1069  0.3178 -0.3650
 8761TIP3   OH247773   5.713   1.734  16.307 -0.1268  0.1587 -0.2003
 8761TIP3    H147774   5.625   1.707  16.282  0.4946 -0.8810 -1.3770
 8761TIP3    H247775   5.744   1.663  16.364 -0.0649  0.5651  0.2855
 8762TIP3   OH247776   0.594   0.071   4.443  0.4374  0.8257  0.4640
 8762TIP3    H147777   0.617   0.063   4.536 -0.9782 -0.8101  0.7143
 8762TIP3    H247778   0.659   0.132   4.408  1.3759  1.0142  2.3870
 8763TIP3   OH247779   1.639   2.847   5.781  0.0350  0.3068  0.6394
 8763TIP3    H147780   1.688   2.822   5.703 -0.8980 -1.2246  0.5049
 8763TIP3    H247781   1.651   2.942   5.787  2.4374  0.0969  0.2694
 8764TIP3   OH247782   4.754   0.509  16.854 -0.5148 -0.3547  0.2495
 8764TIP3    H147783   4.769   0.525  16.761 -1.0834  0.7406  0.3288
 8764TIP3    H247784   4.730   0.416  16.859  1.7136 -1.0350 -0.3948
 8765TIP3   OH247785   6.036   1.119   2.751 -0.4940 -0.1714  0.5680
 8765TIP3    H147786   6.105   1.053   2.744 -0.6878 -0.4196  1.0152
 8765TIP3    H247787   5.997   1.105   2.837  0.2750  1.3235  1.2123
 8766TIP3   OH247788   4.743   4.538   3.904 -0.3521  0.1750  0.1435
 8766TIP3    H147789   4.760   4.557   3.996  0.2133  0.3482  0.0083
 8766TIP3    H247790   4.664   4.587   3.883 -1.2030 -0.8310  0.8559
 8767TIP3   OH247791   5.578   1.631  13.383 -0.2991  0.2103  0.0941
 8767TIP3    H147792   5.495   1.589  13.358 -1.3851  1.9562  0.5978
 8767TIP3    H247793   5.572   1.719  13.347  1.6899  0.1559 -0.4905
 8768TIP3   OH247794   3.602   1.410  12.908  0.4336 -0.4096 -0.4125
 8768TIP3    H147795   3.685   1.453  12.887  0.4853 -1.0038 -1.5093
 8768TIP3    H247796   3.544   1.481  12.936  0.9344  0.1818 -0.8472
 8769TIP3   OH247797   4.647   6.814  14.952  0.1620  0.3594 -0.4264
 8769TIP3    H147798   4.641   6.901  14.990 -0.1043  0.5910 -0.9890
 8769TIP3    H247799   4.725   6.775  14.992  0.3739  0.9130 -0.2985
 8770TIP3   OH247800   2.350   5.337  13.665 -0.5778 -0.0299 -0.1649
 8770TIP3    H147801   2.400   5.256  13.654  0.9292  0.7734  0.5509
 8770TIP3    H247802   2.296   5.321  13.742 -1.4559 -0.8895 -0.9207
 8771TIP3   OH247803   0.684   3.117  14.308  0.4347  0.9050 -0.4879
 8771TIP3    H147804   0.761   3.061  14.319 -0.2159  0.3271  1.8513
 8771TIP3    H247805   0.720   3.203  14.289  1.5345  0.1722 -1.9611
 8772TIP3   OH247806   4.820   4.596   2.526  0.0309 -0.5543 -0.1508
 8772TIP3    H147807   4.851   4.661   2.462 -0.9048 -0.4066 -0.4691
 8772TIP3    H247808   4.812   4.644   2.608  2.9218 -1.1286  0.5719
 8773TIP3   OH247809   0.494   0.716  11.005 -0.5115 -0.0203  0.2326
 8773TIP3    H147810   0.530   0.721  10.917  2.0125  2.1722  1.2658
 8773TIP3    H247811   0.412   0.766  11.001 -0.9281 -0.7567 -1.0268
 8774TIP3   OH247812   1.244   3.207   5.625 -0.2073  0.1958 -0.2408
 8774TIP3    H147813   1.261   3.132   5.683  1.7307  2.9575  3.1428
 8774TIP3    H247814   1.323   3.260   5.632 -2.1866  3.4595 -0.9634
 8775TIP3   OH247815   6.795   1.800  15.567 -0.3020 -0.2767  0.2896
 8775TIP3    H147816   6.809   1.892  15.547  0.2064 -0.6139 -0.9828
 8775TIP3    H247817   6.858   1.781  15.637 -0.9105  0.4920  1.0807
 8776TIP3   OH247818   0.071   0.932  16.367  0.5804 -0.1440  0.3772
 8776TIP3    H147819   0.024   1.012  16.390  0.9391  0.1395  0.1379
 8776TIP3    H247820   0.051   0.872  16.438  0.3253  0.1631  0.5721
 8777TIP3   OH247821   1.213   0.846  12.785 -0.9883  0.2837 -0.0457
 8777TIP3    H147822   1.179   0.757  12.791  2.2636 -1.1951 -1.3309
 8777TIP3    H247823   1.203   0.869  12.693 -0.8342  0.8294  0.0708
 8778TIP3   OH247824   2.447   1.192  13.699 -0.2903 -0.2413  0.0375
 8778TIP3    H147825   2.520   1.133  13.721  1.2511  1.4351 -0.3681
 8778TIP3    H247826   2.422   1.232  13.782  0.6279  0.6667 -0.1065
 8779TIP3   OH247827   5.444   0.244   1.457 -0.1488 -0.0904 -0.0811
 8779TIP3    H147828   5.385   0.184   1.411 -1.9579  0.0430  1.9166
 8779TIP3    H247829   5.410   0.331   1.438  0.4198  0.1080 -0.2235
 8780TIP3   OH247830   2.017   6.270  17.148  0.6502  0.1189 -0.3219
 8780TIP3    H147831   1.997   6.363  17.144  0.3422  0.0503 -0.4031
 8780TIP3    H247832   2.039   6.246  17.058 -1.0647 -0.2769 -0.6658
 8781TIP3   OH247833   5.964   5.525   0.145  0.4596  0.2174  0.0861
 8781TIP3    H147834   5.905   5.451   0.156 -0.6410  0.9888 -0.4460
 8781TIP3    H247835   5.916   5.600   0.181  1.1292  0.8451 -0.2956
 8782TIP3   OH247836   4.490   6.419  14.184 -0.1519  0.2988  0.4042
 8782TIP3    H147837   4.453   6.333  14.203 -3.9885  1.3667 -1.0666
 8782TIP3    H247838   4.536   6.408  14.101 -1.1382 -0.2830 -0.0894
 8783TIP3   OH247839   1.032   6.035   3.555 -0.0940 -0.4529  0.1026
 8783TIP3    H147840   1.106   6.009   3.609 -0.3794  1.3467  1.4681
 8783TIP3    H247841   0.955   6.019   3.609 -0.6234 -1.1405 -0.8220
 8784TIP3   OH247842   6.263   3.195   2.501  0.5888  0.0109  0.0090
 8784TIP3    H147843   6.252   3.250   2.424  1.2060  1.3469  0.8385
 8784TIP3    H247844   6.214   3.115   2.481  0.6414  0.3689 -1.7050
 8785TIP3   OH247845   3.240   6.572   4.195 -0.2866  0.2735 -0.2522
 8785TIP3    H147846   3.152   6.543   4.169 -0.0103  0.4555 -1.4583
 8785TIP3    H247847   3.237   6.575   4.290 -0.5011 -3.2422 -0.0334
 8786TIP3   OH247848   3.498   4.857   3.944 -0.1157  0.0346 -0.3598
 8786TIP3    H147849   3.477   4.769   3.913 -2.6496  0.5988 -0.5178
 8786TIP3    H247850   3.481   4.855   4.038 -0.9140  0.5000 -0.4790
 8787TIP3   OH247851   5.287   5.573   0.139  0.0241  0.5432  0.0620
 8787TIP3    H147852   5.313   5.510   0.206  0.4669 -1.5351 -1.9188
 8787TIP3    H247853   5.318   5.657   0.172  0.7048 -0.4517  2.1786
 8788TIP3   OH247854   6.614   6.670   4.197 -0.3219 -0.0703  0.3400
 8788TIP3    H147855   6.693   6.661   4.143 -0.2891 -2.8469  0.7230
 8788TIP3    H247856   6.545   6.630   4.145 -0.9860  0.1678  1.0270
 8789TIP3   OH247857   6.626   1.162   3.873  0.1085 -0.3750 -0.5352
 8789TIP3    H147858   6.706   1.126   3.911 -1.1014 -3.8388 -0.9792
 8789TIP3    H247859   6.657   1.217   3.801  2.0953 -1.5707 -0.6622
 8790TIP3   OH247860   1.941   1.558   0.642  0.1153 -0.3207 -0.1766
 8790TIP3    H147861   2.002   1.497   0.684  0.6993  0.0380 -0.4850
 8790TIP3    H247862   1.914   1.514   0.562  0.9166  0.0195 -0.6434
 8791TIP3   OH247863   1.345   4.836   5.621 -0.0499  0.4593  0.4402
 8791TIP3    H147864   1.368   4.778   5.694 -0.4832  0.2949  0.4477
 8791TIP3    H247865   1.423   4.837   5.566 -0.8658 -2.1987 -0.9306
 8792TIP3   OH247866   1.561   5.678   2.519 -0.3284 -0.0488  0.4873
 8792TIP3    H147867   1.465   5.681   2.523 -0.4149  1.1586 -1.4378
 8792TIP3    H247868   1.580   5.603   2.463 -0.0284 -1.5249  2.4685
 8793TIP3   OH247869   0.974   2.078   1.507  0.1080  0.5227 -0.1216
 8793TIP3    H147870   0.928   2.154   1.545  1.4983  1.7993 -0.8735
 8793TIP3    H247871   1.055   2.115   1.472  1.2971 -1.5061  0.3693
 8794TIP3   OH247872   2.013   5.089   3.223  0.2407  0.1558  0.0781
 8794TIP3    H147873   1.952   5.073   3.151  0.1029  0.2102  0.1839
 8794TIP3    H247874   1.998   5.180   3.248 -0.3177 -0.1189  0.7525
 8795TIP3   OH247875   1.288   5.657   0.439 -0.0020  0.1982 -0.2821
 8795TIP3    H147876   1.241   5.607   0.372  0.0655 -0.8245  0.4204
 8795TIP3    H247877   1.310   5.593   0.506  0.6518  1.0550  0.3417
 8796TIP3   OH247878   0.124   6.068   5.195  0.5002 -0.5586 -0.3559
 8796TIP3    H147879   0.216   6.044   5.193  0.4375 -0.9275  0.5064
 8796TIP3    H247880   0.109   6.100   5.284  0.2101  1.2746 -1.0136
 8797TIP3   OH247881   5.853   6.235   0.037  0.0118 -0.5340 -0.5212
 8797TIP3    H147882   5.908   6.312   0.051  0.1010 -0.4740 -1.1702
 8797TIP3    H247883   5.847   6.227  -0.058 -0.9122 -0.6759 -0.4637
 8798TIP3   OH247884   5.187   1.425  15.712 -0.0750  0.1108 -0.1541
 8798TIP3    H147885   5.215   1.456  15.798  0.2834  0.7161 -0.4820
 8798TIP3    H247886   5.182   1.329  15.721 -0.0657  0.1733  0.5401
 8799TIP3   OH247887   0.588   1.508  11.724 -0.2528 -0.0912  0.0245
 8799TIP3    H147888   0.585   1.599  11.754  0.4225  0.1001 -0.4525
 8799TIP3    H247889   0.642   1.462  11.789 -0.3806 -0.0922  0.1289
 8800TIP3   OH247890   5.063   5.387  12.533 -0.6263  0.6823 -0.4172
 8800TIP3    H147891   4.977   5.347  12.549 -0.6733  1.3017  1.0297
 8800TIP3    H247892   5.085   5.430  12.616  0.4941  1.6315 -1.1752
 8801TIP3   OH247893   2.976   0.524   0.230  0.5260  0.1920 -0.0530
 8801TIP3    H147894   2.945   0.460   0.166 -0.3420 -1.2038  1.6656
 8801TIP3    H247895   2.896   0.564   0.265  0.9430  0.5441  0.5246
 8802TIP3   OH247896   2.091   1.160  10.794  0.0506 -0.2607 -0.6842
 8802TIP3    H147897   2.111   1.068  10.812 -1.2806 -0.7425 -1.5480
 8802TIP3    H247898   2.000   1.159  10.765 -0.3291  1.4661  0.3197
 8803TIP3   OH247899   0.975   5.252   5.666 -0.0343  0.0247 -0.2203
 8803TIP3    H147900   0.980   5.160   5.691  0.4362 -0.1615 -0.9555
 8803TIP3    H247901   0.948   5.297   5.745 -2.3809 -0.9991 -0.3529
 8804TIP3   OH247902   5.039   0.616  10.750 -0.1844 -0.0302  0.3485
 8804TIP3    H147903   5.133   0.606  10.739 -0.1013  1.4450 -0.5533
 8804TIP3    H247904   5.006   0.636  10.662 -1.5439 -1.7856  0.3990
 8805TIP3   OH247905   4.102   3.055  11.069 -0.3800 -0.0387 -0.2954
 8805TIP3    H147906   4.057   3.001  11.004 -0.1469 -0.1569 -0.3582
 8805TIP3    H247907   4.157   2.994  11.117  0.7524  0.3072 -1.1139
 8806TIP3   OH247908   5.184   4.626   2.477 -0.2716 -0.5945  0.2302
 8806TIP3    H147909   5.112   4.688   2.466  0.5114  0.1177 -1.1479
 8806TIP3    H247910   5.229   4.625   2.392  1.9853 -0.2119  1.3320
 8807TIP3   OH247911   2.128   3.462  13.795  0.1103  0.3165 -0.2257
 8807TIP3    H147912   2.189   3.427  13.860  1.1712  1.1591 -0.7275
 8807TIP3    H247913   2.179   3.526  13.746 -1.1889  1.0495 -0.6840
 8808TIP3   OH247914   5.652   6.159   4.136 -0.6096  0.4860 -0.5328
 8808TIP3    H147915   5.592   6.152   4.061 -0.9942  1.4492 -0.3308
 8808TIP3    H247916   5.739   6.152   4.098 -0.8304  0.0437 -0.9578
 8809TIP3   OH247917   6.151   0.295   6.102  0.5464  0.0924 -0.1638
 8809TIP3    H147918   6.126   0.274   6.012  0.8829  0.2322 -0.2886
 8809TIP3    H247919   6.210   0.370   6.094 -2.8055  3.0904  0.4087
 8810TIP3   OH247920   1.576   0.330   0.837 -0.8413 -0.1098  0.3069
 8810TIP3    H147921   1.576   0.254   0.896 -0.1265  0.1399  0.6442
 8810TIP3    H247922   1.616   0.297   0.756 -1.7748 -0.4394 -0.0300
 8811TIP3   OH247923   3.331   3.712   5.402  0.0737  0.2498 -0.1716
 8811TIP3    H147924   3.247   3.709   5.357  0.9334 -0.9020 -1.8008
 8811TIP3    H247925   3.390   3.660   5.346  1.3275 -0.8531  2.0549
 8812TIP3   OH247926   0.947   5.224   2.594  0.1953  0.1972  0.5238
 8812TIP3    H147927   0.855   5.236   2.574  0.2045 -0.8443 -0.2175
 8812TIP3    H247928   0.951   5.215   2.689 -0.7036 -1.5172  0.4371
 8813TIP3   OH247929   5.350   4.862  15.059 -0.3287  0.5765  0.0682
 8813TIP3    H147930   5.319   4.947  15.092  1.3486  0.9360  0.8778
 8813TIP3    H247931   5.367   4.877  14.966  0.3259  1.2732  0.2865
 8814TIP3   OH247932   2.967   6.351  12.915 -0.3814 -0.1481  0.7470
 8814TIP3    H147933   2.930   6.420  12.970 -0.8031  0.1401  0.1069
 8814TIP3    H247934   2.951   6.270  12.964  4.3363  0.4372  3.9435
 8815TIP3   OH247935   5.158   5.480   4.021  0.2224 -0.3222  0.0316
 8815TIP3    H147936   5.191   5.427   3.948  2.2771 -2.6501  2.4156
 8815TIP3    H247937   5.237   5.516   4.062 -0.9730  2.2194  0.2634
 8816TIP3   OH247938   1.856   1.478   5.299 -0.4445  0.0959 -0.0262
 8816TIP3    H147939   1.816   1.564   5.308  0.5977  0.5632  0.2519
 8816TIP3    H247940   1.908   1.484   5.219 -0.4040 -0.2862 -0.0298
 8817TIP3   OH247941   0.380   3.636  14.165 -0.2625 -0.0524  0.5325
 8817TIP3    H147942   0.445   3.705  14.175 -0.7826  0.2383  2.2638
 8817TIP3    H247943   0.310   3.677  14.113  1.6493 -0.9500 -3.0476
 8818TIP3   OH247944   6.580   5.273   1.944 -0.1237  1.4267 -0.0345
 8818TIP3    H147945   6.648   5.312   1.999  0.6543  0.8677 -0.5717
 8818TIP3    H247946   6.595   5.178   1.951 -0.2992  1.3334 -0.8350
 8819TIP3   OH247947   2.156   5.088   3.803 -0.3302  0.5246  0.1842
 8819TIP3    H147948   2.175   5.131   3.886 -0.8241 -2.0760  1.7678
 8819TIP3    H247949   2.105   5.010   3.827 -0.6390 -0.2522 -2.5822
 8820TIP3   OH247950   6.045   2.610   1.754  0.3346 -0.0337  0.2965
 8820TIP3    H147951   6.028   2.701   1.732  0.7341  0.0768  0.4433
 8820TIP3    H247952   6.128   2.611   1.802  0.9647 -0.6085 -0.7377
 8821TIP3   OH247953   5.186   3.076   3.391  0.0758  0.3820 -0.3283
 8821TIP3    H147954   5.255   3.040   3.334 -0.3743 -1.5075  0.2295
 8821TIP3    H247955   5.232   3.102   3.470  0.1739 -1.1228  0.1493
 8822TIP3   OH247956   2.673   5.067  14.058 -0.2534  0.3034 -0.8943
 8822TIP3    H147957   2.751   5.060  14.003 -0.7261 -1.1314 -1.4268
 8822TIP3    H247958   2.702   5.038  14.144  0.1084  1.0248 -0.7697
 8823TIP3   OH247959   4.326   1.588   0.370  0.3969  0.4088 -0.2304
 8823TIP3    H147960   4.258   1.521   0.383  1.0544 -0.2063  0.0748
 8823TIP3    H247961   4.291   1.644   0.301 -1.4068  1.3733  1.3434
 8824TIP3   OH247962   1.946   3.503  16.342  0.1863  0.4037  0.2931
 8824TIP3    H147963   1.998   3.583  16.346  0.4840  0.3182 -1.0564
 8824TIP3    H247964   1.857   3.533  16.326  0.4893  0.4793 -1.4964
 8825TIP3   OH247965   6.120   3.049  11.783  0.0205  0.3722  0.8099
 8825TIP3    H147966   6.058   3.103  11.833  0.1769 -0.2881  1.7496
 8825TIP3    H247967   6.089   2.960  11.796 -0.1438  0.2066 -0.6077
 8826TIP3   OH247968   5.589   1.023  10.962  0.5109  0.4241  0.0715
 8826TIP3    H147969   5.644   0.972  11.021  1.1781  0.4360 -0.5263
 8826TIP3    H247970   5.650   1.080  10.916 -0.0986  0.9954 -0.0521
 8827TIP3   OH247971   4.218   5.187  11.895 -0.0139  0.0535 -0.7251
 8827TIP3    H147972   4.169   5.138  11.962  0.6828  1.2546  0.7105
 8827TIP3    H247973   4.150   5.224  11.838 -0.6259 -0.7751 -0.5631
 8828TIP3   OH247974   2.254   0.263   1.361  0.0558  0.4223  0.5347
 8828TIP3    H147975   2.304   0.185   1.339  1.1956  1.2095  0.2299
 8828TIP3    H247976   2.165   0.242   1.335 -0.9270 -2.7845  5.2332
 8829TIP3   OH247977   0.406   0.732  12.184  0.5605 -0.0453  0.3140
 8829TIP3    H147978   0.418   0.723  12.278 -0.4839 -0.1159  0.4516
 8829TIP3    H247979   0.348   0.808  12.175  0.0935 -0.4629 -0.2310
 8830TIP3   OH247980   4.806   0.910   3.217 -0.7861 -0.5289 -0.1289
 8830TIP3    H147981   4.733   0.905   3.155 -0.3310 -1.2174 -0.6346
 8830TIP3    H247982   4.863   0.979   3.182  0.0030 -1.6230 -1.1125
 8831TIP3   OH247983   2.390   0.397  14.603  0.1527  0.3122  0.4616
 8831TIP3    H147984   2.448   0.411  14.677 -0.8901  0.8248  1.2159
 8831TIP3    H247985   2.447   0.370  14.532  1.4663  1.9847  0.8196
 8832TIP3   OH247986   3.470   6.238   0.100 -0.6830  0.1556 -0.2477
 8832TIP3    H147987   3.526   6.251   0.176 -0.0041 -0.6248 -0.6008
 8832TIP3    H247988   3.420   6.319   0.093 -1.0713  0.0785  1.2810
 8833TIP3   OH247989   5.228   5.499   4.848  0.2999 -0.0033  0.1494
 8833TIP3    H147990   5.232   5.413   4.807  0.4399  0.7030 -1.3671
 8833TIP3    H247991   5.317   5.533   4.843 -0.1216  1.0096 -1.0436
 8834TIP3   OH247992   0.962   1.048  15.213 -0.0662 -0.7051  0.1196
 8834TIP3    H147993   1.023   1.003  15.155  1.3747  2.6209 -1.2369
 8834TIP3    H247994   1.011   1.061  15.294  0.0653 -0.4335  0.0016
 8835TIP3   OH247995   5.618   4.326  15.742 -0.2380 -0.0059  0.2878
 8835TIP3    H147996   5.551   4.318  15.674 -1.9283 -1.4533  2.0227
 8835TIP3    H247997   5.570   4.353  15.820  1.4730  0.4604  1.2406
 8836TIP3   OH247998   4.862   2.487  11.596  0.3174 -0.0179 -0.4065
 8836TIP3    H147999   4.828   2.544  11.527 -0.3045 -0.5150 -0.5184
 8836TIP3    H248000   4.788   2.475  11.656  0.1154 -1.5298 -0.9154
 8837TIP3   OH248001   5.798   3.191  11.811  0.5394  0.3410 -0.3255
 8837TIP3    H148002   5.846   3.245  11.874  0.8305  1.4110 -1.4177
 8837TIP3    H248003   5.762   3.119  11.863  1.4196  0.7613  0.9131
 8838TIP3   OH248004   2.545   2.690   4.177 -0.5240  0.3696 -0.9350
 8838TIP3    H148005   2.599   2.613   4.194 -2.3637 -0.2768  3.4139
 8838TIP3    H248006   2.473   2.658   4.123  0.3286 -0.1664 -1.7814
 8839TIP3   OH248007   4.266   3.355  15.660  0.1017  0.1272  0.8606
 8839TIP3    H148008   4.238   3.361  15.568 -0.5053 -0.3957  0.9992
 8839TIP3    H248009   4.202   3.295  15.700 -0.3041  1.2143  1.8829
 8840TIP3   OH248010   2.831   6.643  16.849  0.4967 -0.0468 -0.1709
 8840TIP3    H148011   2.870   6.562  16.816  0.0035 -0.4113  0.1345
 8840TIP3    H248012   2.809   6.693  16.770  0.4909 -0.3545 -0.3663
 8841TIP3   OH248013   2.268   6.042   4.858 -0.0672  0.5427  0.0938
 8841TIP3    H148014   2.312   6.125   4.877 -0.9310  0.9876  0.1777
 8841TIP3    H248015   2.262   5.998   4.943  2.3380 -0.6176 -0.2483
 8842TIP3   OH248016   0.811   4.906   0.062 -0.4314 -0.3938 -0.3081
 8842TIP3    H148017   0.716   4.901   0.070 -0.4514 -0.6583 -0.6985
 8842TIP3    H248018   0.845   4.849   0.131 -0.5524 -0.3269 -0.1919
 8843TIP3   OH248019   4.427   0.592  12.673 -0.2419 -0.8227 -0.0168
 8843TIP3    H148020   4.449   0.577  12.581  0.0140 -1.1670  0.0972
 8843TIP3    H248021   4.431   0.505  12.713 -2.0298 -0.9486 -0.0352
 8844TIP3   OH248022   2.555   5.185  15.337 -0.8580  0.0591 -0.3525
 8844TIP3    H148023   2.564   5.248  15.265 -0.7384  0.1883 -0.2258
 8844TIP3    H248024   2.639   5.190  15.383 -0.7846 -0.3226 -0.4460
 8845TIP3   OH248025   4.220   0.112  16.539 -0.0184  0.2058 -0.2382
 8845TIP3    H148026   4.178   0.048  16.596 -1.1786  1.0723 -0.0791
 8845TIP3    H248027   4.307   0.075  16.521 -0.7718 -1.5621 -0.4268
 8846TIP3   OH248028   5.960   3.204   5.616  0.0030 -0.2425  0.4596
 8846TIP3    H148029   5.870   3.184   5.641  0.0647 -1.7556 -0.4563
 8846TIP3    H248030   6.014   3.157   5.679  0.1424 -2.5820 -1.2976
 8847TIP3   OH248031   3.738   4.937   3.155  0.3322 -0.1911 -0.4152
 8847TIP3    H148032   3.669   5.003   3.147 -0.6121 -1.0996 -0.0161
 8847TIP3    H248033   3.726   4.899   3.242 -0.1629 -1.9694 -1.2010
 8848TIP3   OH248034   6.707   2.516  15.672  0.4478 -0.1712  0.0805
 8848TIP3    H148035   6.716   2.611  15.669  0.1885 -0.1571 -0.2228
 8848TIP3    H248036   6.765   2.489  15.744  0.5374  0.2112  0.1531
 8849TIP3   OH248037   4.331   0.676   2.808 -0.4070  0.3466 -0.8614
 8849TIP3    H148038   4.281   0.686   2.889  0.8388 -0.1444  0.0035
 8849TIP3    H248039   4.278   0.619   2.753 -0.1225 -1.5054  0.6699
 8850TIP3   OH248040   0.832   3.846  13.378  0.2861 -0.2436  0.0961
 8850TIP3    H148041   0.804   3.761  13.412 -0.2425  0.9394  2.9050
 8850TIP3    H248042   0.901   3.874  13.439 -1.4279  2.4865  0.9696
 8851TIP3   OH248043   1.504   2.443  15.620  0.1714  0.4884  0.3169
 8851TIP3    H148044   1.420   2.488  15.608 -0.1641  1.0785  3.7370
 8851TIP3    H248045   1.481   2.358  15.657  0.9957  1.2098  2.6948
 8852TIP3   OH248046   2.382   0.421   1.165  0.0312  0.4350  0.4246
 8852TIP3    H148047   2.462   0.449   1.209  0.2171  0.3314  0.1532
 8852TIP3    H248048   2.319   0.408   1.237 -0.2750  2.1976  0.5174
 8853TIP3   OH248049   4.217   0.517   2.592  0.3708 -0.5992  0.3920
 8853TIP3    H148050   4.143   0.525   2.532  0.2279  1.8014  0.7899
 8853TIP3    H248051   4.211   0.428   2.627 -2.6480 -0.3052  0.8266
 8854TIP3   OH248052   2.953   5.569   3.934 -0.0401  0.5313  0.0711
 8854TIP3    H148053   3.031   5.561   3.988  0.2133 -0.3471 -0.4065
 8854TIP3    H248054   2.896   5.630   3.982 -0.7543 -1.8394  2.4620
 8855TIP3   OH248055   5.047   5.933   5.658  0.0490 -0.3136  0.0005
 8855TIP3    H148056   5.126   5.892   5.694  1.1434  0.7479 -1.1399
 8855TIP3    H248057   4.987   5.859   5.643  1.4925 -1.3777 -0.7983
 8856TIP3   OH248058   1.718   0.943   1.987 -0.1923  0.3314 -0.0332
 8856TIP3    H148059   1.804   0.978   1.963  0.4737  0.2278  2.0199
 8856TIP3    H248060   1.684   0.907   1.905  1.7417  0.3313 -0.9002
 8857TIP3   OH248061   2.063   1.638  13.535 -0.6441  0.1553  0.0993
 8857TIP3    H148062   2.138   1.647  13.476 -0.2330  0.3988  0.6529
 8857TIP3    H248063   1.997   1.591  13.483 -0.4041  0.6361 -0.6578
 8858TIP3   OH248064   5.104   2.668  15.393 -0.1554  0.0321  0.1079
 8858TIP3    H148065   5.055   2.721  15.330  0.2958  1.8389  1.2040
 8858TIP3    H248066   5.092   2.713  15.476  0.7278 -1.3042  0.9935
 8859TIP3   OH248067   6.405   6.681  13.333  0.0001 -0.3436  0.1770
 8859TIP3    H148068   6.405   6.585  13.325  0.4406 -0.3171 -0.1628
 8859TIP3    H248069   6.367   6.712  13.251 -1.1768 -0.2505  0.7354
 8860TIP3   OH248070   3.168   6.645   5.694  0.1670  0.0421  0.2474
 8860TIP3    H148071   3.130   6.633   5.781 -0.0250  0.8606  0.2887
 8860TIP3    H248072   3.260   6.667   5.711 -0.3295  2.2750  0.3846
 8861TIP3   OH248073   5.751   0.292   5.289 -0.1111  0.0374  0.3897
 8861TIP3    H148074   5.845   0.310   5.290  0.1558 -1.2213  1.7968
 8861TIP3    H248075   5.714   0.360   5.232  1.7060  0.1563 -0.7215
 8862TIP3   OH248076   1.882   1.305  17.158  0.6059 -0.8805 -0.2357
 8862TIP3    H148077   1.900   1.303  17.252  0.8131 -1.6401 -0.2878
 8862TIP3    H248078   1.890   1.397  17.134 -1.4486 -0.3455  0.8761
 8863TIP3   OH248079   6.194   1.354  17.057  0.1545  0.0688 -0.5320
 8863TIP3    H148080   6.190   1.340  16.963  2.0189  0.0331 -0.6535
 8863TIP3    H248081   6.161   1.443  17.070 -0.2819  0.0091 -1.1979
 8864TIP3   OH248082   3.807   1.331   1.642 -0.9493 -0.2172 -0.1073
 8864TIP3    H148083   3.838   1.254   1.595 -0.1721  0.8040 -1.3244
 8864TIP3    H248084   3.842   1.406   1.593 -2.1429  0.9361  0.7041
 8865TIP3   OH248085   4.764   1.681  13.123  0.0716  0.0392  0.2901
 8865TIP3    H148086   4.675   1.668  13.092  0.3469  4.1391 -3.2218
 8865TIP3    H248087   4.753   1.729  13.206 -0.9054 -1.0726  0.8327
 8866TIP3   OH248088   3.084   5.326   4.013 -0.1125  0.7080 -0.0634
 8866TIP3    H148089   3.111   5.239   4.042  0.9043  0.5221 -1.4695
 8866TIP3    H248090   3.167   5.371   3.994 -0.6093  2.0662  0.8191
 8867TIP3   OH248091   5.210   5.017   0.421 -0.0158  0.1250  0.0427
 8867TIP3    H148092   5.291   4.986   0.461 -0.4577 -1.2836 -0.1266
 8867TIP3    H248093   5.176   4.942   0.372 -1.2530  0.7842 -0.1610
 8868TIP3   OH248094   5.106   5.905  16.185  0.1921  0.6565  0.8136
 8868TIP3    H148095   5.112   5.910  16.089 -0.5382 -0.8460  0.6652
 8868TIP3    H248096   5.020   5.942  16.206  0.4828  1.2866  0.9432
 8869TIP3   OH248097   4.468   0.214  14.474  0.6070  0.0298  0.3366
 8869TIP3    H148098   4.507   0.148  14.530 -0.4637 -0.6597  0.3016
 8869TIP3    H248099   4.465   0.293  14.529 -2.0797 -1.0759  1.9857
 8870TIP3   OH248100   4.011   1.333  10.259  0.3163  0.2557  0.2946
 8870TIP3    H148101   4.034   1.332  10.166  0.5376  0.5758  0.3427
 8870TIP3    H248102   4.034   1.421  10.288  0.3556  0.1198  0.6790
 8871TIP3   OH248103   6.110   1.515   0.602 -0.2561 -0.5522 -0.0049
 8871TIP3    H148104   6.058   1.437   0.622 -0.3052 -0.6211 -0.3823
 8871TIP3    H248105   6.095   1.530   0.508 -1.0320  0.5022  0.2768
 8872TIP3   OH248106   5.404   5.531   4.127 -0.1040 -0.1497  0.2396
 8872TIP3    H148107   5.468   5.491   4.068 -1.1609  0.2839 -1.2699
 8872TIP3    H248108   5.456   5.562   4.202  0.9810 -2.6507  0.6135
 8873TIP3   OH248109   0.904   1.075   1.163  0.1479  0.1025  0.6829
 8873TIP3    H148110   0.911   1.155   1.214 -1.2092  1.8333 -1.6578
 8873TIP3    H248111   0.994   1.053   1.139  0.4318  1.8119  0.0846
 8874TIP3   OH248112   2.771   3.788   5.708  0.0678 -0.5657  0.4349
 8874TIP3    H148113   2.850   3.735   5.695 -0.4819 -1.1588 -0.6286
 8874TIP3    H248114   2.717   3.769   5.631 -1.4563 -0.7925  1.5235
 8875TIP3   OH248115   1.045   2.102  17.028 -0.0542  0.0025 -0.4637
 8875TIP3    H148116   1.093   2.078  16.949  1.8589  0.7410  0.4079
 8875TIP3    H248117   1.029   2.196  17.019  0.9855  0.2893  0.3750
 8876TIP3   OH248118   0.352   5.949   5.204  0.2615  0.3719 -0.0960
 8876TIP3    H148119   0.422   5.915   5.149 -0.4106 -0.7088 -0.3195
 8876TIP3    H248120   0.395   5.974   5.285  0.8723 -0.5822 -0.1087
 8877TIP3   OH248121   5.772   6.425  14.997  0.2545 -0.0488 -0.2923
 8877TIP3    H148122   5.684   6.440  15.030 -0.3304  0.2693 -1.9304
 8877TIP3    H248123   5.824   6.405  15.075 -1.1197  0.3928  0.7626
 8878TIP3   OH248124   5.125   5.648   5.915 -0.3718 -0.7331  0.0913
 8878TIP3    H148125   5.063   5.633   5.843  0.9649  0.3467 -1.3654
 8878TIP3    H248126   5.101   5.734   5.950 -1.1040 -1.3159  1.0497
 8879TIP3   OH248127   4.354   4.794  15.021  0.3074  0.0389  0.3126
 8879TIP3    H148128   4.391   4.798  15.109 -0.7418  0.2345  0.7615
 8879TIP3    H248129   4.307   4.711  15.018 -0.6408  0.5573  0.3578
 8880TIP3   OH248130   5.175   6.607   4.189 -0.2494  0.6054  0.2644
 8880TIP3    H148131   5.157   6.559   4.108 -3.6971  1.1122  0.5678
 8880TIP3    H248132   5.177   6.699   4.163 -0.4403  0.7066  0.5993
 8881TIP3   OH248133   2.115   3.899   0.306  0.3923  0.4575  0.3337
 8881TIP3    H148134   2.138   3.844   0.231 -0.6748  2.5069 -1.6103
 8881TIP3    H248135   2.028   3.870   0.331  0.8395 -0.3809  0.9616
 8882TIP3   OH248136   3.738   1.190   4.048 -0.5074  0.6161 -0.3659
 8882TIP3    H148137   3.643   1.201   4.045 -0.5298  0.3484 -0.8974
 8882TIP3    H248138   3.757   1.132   3.974  0.0481  0.5145 -0.1451
 8883TIP3   OH248139   4.516   3.974   4.847 -0.0965  1.1047 -0.4661
 8883TIP3    H148140   4.433   4.020   4.854 -0.7967 -0.0598 -0.8390
 8883TIP3    H248141   4.504   3.895   4.899  0.2092  0.1541 -1.7919
 8884TIP3   OH248142   4.268   3.369  15.118 -0.2536 -0.1579 -0.2705
 8884TIP3    H148143   4.264   3.273  15.115  1.8525 -0.2755 -0.6864
 8884TIP3    H248144   4.221   3.397  15.040 -1.6084 -0.7985  0.2836
 8885TIP3   OH248145   5.525   5.179   1.567 -0.1977 -0.2430  0.9231
 8885TIP3    H148146   5.552   5.270   1.555  1.2125 -0.6299  0.9293
 8885TIP3    H248147   5.460   5.164   1.499  2.1637 -0.2307 -1.5015
 8886TIP3   OH248148   2.254   0.440   5.820 -0.5280  0.0460  0.2627
 8886TIP3    H148149   2.267   0.456   5.913 -1.4123  0.1142  0.3855
 8886TIP3    H248150   2.232   0.526   5.784  0.9480  0.2500 -0.2371
 8887TIP3   OH248151   6.285   0.958   6.563  0.1407 -0.6749  0.4485
 8887TIP3    H148152   6.336   1.039   6.568  1.9929 -1.7839 -0.0241
 8887TIP3    H248153   6.340   0.891   6.603 -0.1292 -2.2941 -1.7255
 8888TIP3   OH248154   2.483   3.446   5.772  0.2861  0.6832 -0.0454
 8888TIP3    H148155   2.501   3.412   5.860 -0.8904 -0.2533 -0.1355
 8888TIP3    H248156   2.398   3.490   5.781  1.0099  2.1975 -0.3202
 8889TIP3   OH248157   4.510   0.342   3.867 -0.6190 -0.5215  0.0696
 8889TIP3    H148158   4.487   0.275   3.931 -0.9642  1.1304  1.7507
 8889TIP3    H248159   4.594   0.376   3.897 -0.5673 -0.0099 -0.6228
 8890TIP3   OH248160   0.235   0.223  15.457 -0.0618  0.1673  0.0878
 8890TIP3    H148161   0.176   0.153  15.428 -0.3741  0.6414 -0.4266
 8890TIP3    H248162   0.310   0.176  15.495  0.2346 -0.4716 -1.2398
 8891TIP3   OH248163   1.964   6.163   1.524 -0.1955 -0.3436  0.2122
 8891TIP3    H148164   1.997   6.074   1.509  2.1833  0.8382 -2.8176
 8891TIP3    H248165   1.890   6.171   1.465  0.5676  0.0927 -0.7216
 8892TIP3   OH248166   1.953   6.708  16.582 -0.0809 -0.4394  0.2090
 8892TIP3    H148167   1.894   6.634  16.565 -0.4228 -0.3309  0.8630
 8892TIP3    H248168   2.026   6.695  16.522  0.5205 -2.0495  1.2203
 8893TIP3   OH248169   6.775   2.950  15.184  0.2537  1.1843  0.2490
 8893TIP3    H148170   6.736   2.998  15.258  1.3082  1.7599  0.4543
 8893TIP3    H248171   6.702   2.901  15.147 -0.2955  0.8328  1.7108
 8894TIP3   OH248172   5.682   1.934  13.812 -0.7920 -0.0594 -0.1630
 8894TIP3    H148173   5.606   1.953  13.866  0.0640 -0.9121  1.4089
 8894TIP3    H248174   5.729   1.865  13.859  1.9827  1.7428 -0.0423
 8895TIP3   OH248175   3.549   1.276   2.540 -0.3423  0.4395 -0.2073
 8895TIP3    H148176   3.504   1.359   2.555 -0.9848  0.6734 -2.7933
 8895TIP3    H248177   3.638   1.289   2.573 -1.5563  0.5655  3.4316
 8896TIP3   OH248178   2.433   5.357  12.492  0.2375 -0.2813  0.3064
 8896TIP3    H148179   2.440   5.388  12.402 -0.7169 -1.3832 -0.1828
 8896TIP3    H248180   2.523   5.347  12.521  0.5625 -0.0643 -0.5816
 8897TIP3   OH248181   6.462   6.704  10.535 -0.5966  0.5197  0.0786
 8897TIP3    H148182   6.446   6.618  10.573 -1.3817  0.5679 -0.1246
 8897TIP3    H248183   6.375   6.741  10.521 -0.2726  1.8655  1.3316
 8898TIP3   OH248184   2.729   2.760  13.090 -0.8801  0.6894  0.5855
 8898TIP3    H148185   2.791   2.830  13.108  0.7664 -0.8976  1.4895
 8898TIP3    H248186   2.698   2.732  13.176 -0.0791 -0.8691  0.4130
 8899TIP3   OH248187   5.419   3.587   3.702  0.0267 -0.2154  0.4604
 8899TIP3    H148188   5.483   3.558   3.767  0.1610 -0.5436  0.1858
 8899TIP3    H248189   5.336   3.591   3.749 -0.4515 -3.1118  0.0521
 8900TIP3   OH248190   6.140   2.160  13.715 -0.3097  0.1456 -0.0421
 8900TIP3    H148191   6.119   2.164  13.808  0.5566  0.5725  0.1501
 8900TIP3    H248192   6.157   2.251  13.690  0.3957 -0.0659 -0.3808
 8901TIP3   OH248193   6.036   5.030   3.281  0.0106  0.3512  0.0731
 8901TIP3    H148194   6.034   4.956   3.220  0.3376 -0.2842  0.8157
 8901TIP3    H248195   6.088   4.998   3.355 -0.6279  1.0028  0.8216
 8902TIP3   OH248196   4.283   4.232   4.604  0.7604 -0.1415 -0.3295
 8902TIP3    H148197   4.372   4.214   4.573  0.0844  0.0499 -2.5572
 8902TIP3    H248198   4.227   4.181   4.545 -0.6206 -0.1448  0.9538
 8903TIP3   OH248199   6.818   3.886  15.503 -0.0830  0.2437  0.1119
 8903TIP3    H148200   6.782   3.911  15.418 -0.3583 -2.3550 -0.6126
 8903TIP3    H248201   6.873   3.809  15.485 -2.1972 -2.0530  2.5257
 8904TIP3   OH248202   1.609   0.559  15.888  0.1261  0.1325  0.5107
 8904TIP3    H148203   1.595   0.636  15.944 -1.4715 -1.2751  2.1427
 8904TIP3    H248204   1.672   0.590  15.822  0.7197  2.3957  1.9865
 8905TIP3   OH248205   1.183   0.906   4.734  0.5706 -0.3339  0.0906
 8905TIP3    H148206   1.194   0.841   4.803  2.8169  0.4326  0.5307
 8905TIP3    H248207   1.134   0.977   4.774 -0.4792 -1.0368  0.0800
 8906TIP3   OH248208   0.522   3.733   5.816  1.3147  0.6299  0.4449
 8906TIP3    H148209   0.529   3.646   5.778 -2.2643  0.1172  0.6253
 8906TIP3    H248210   0.572   3.727   5.898 -0.6912 -2.0782  1.6243
 8907TIP3   OH248211   1.437   3.174  13.998  0.9709  0.2112  0.7452
 8907TIP3    H148212   1.488   3.136  14.070  1.2174 -1.1172 -0.0857
 8907TIP3    H248213   1.497   3.173  13.924  0.0356 -0.4928 -0.0193
 8908TIP3   OH248214   1.122   5.703   6.522 -0.0995 -0.1997  0.4089
 8908TIP3    H148215   1.187   5.735   6.585  0.2400 -1.2159  0.6048
 8908TIP3    H248216   1.086   5.782   6.482  1.9445  0.4055 -0.4132
 8909TIP3   OH248217   6.313   5.034   5.855  0.3022  0.0499 -0.4989
 8909TIP3    H148218   6.344   4.961   5.909 -0.2634 -0.1732 -0.4604
 8909TIP3    H248219   6.301   4.995   5.768 -4.1240 -1.1329  0.3826
 8910TIP3   OH248220   4.902   5.259  14.302  0.6393 -0.5976  0.0709
 8910TIP3    H148221   4.872   5.307  14.225  0.8974 -0.5082  0.0265
 8910TIP3    H248222   4.828   5.262  14.362  0.8786  0.3953  0.3237
 8911TIP3   OH248223   2.585   0.775  13.632  0.1174  0.4443  0.1461
 8911TIP3    H148224   2.570   0.721  13.710  0.4795  0.6669  0.3676
 8911TIP3    H248225   2.583   0.865  13.664 -1.4484  0.6373 -0.3659
 8912TIP3   OH248226   5.529   6.253  16.826  0.3632  0.3534  0.2130
 8912TIP3    H148227   5.622   6.274  16.815 -0.0934  1.9798 -0.9886
 8912TIP3    H248228   5.487   6.290  16.748 -1.3546 -0.0185  0.9160
 8913TIP3   OH248229   3.525   4.029   3.422  0.2370 -0.3527 -0.2399
 8913TIP3    H148230   3.465   3.957   3.401 -0.8642 -0.6806  3.3943
 8913TIP3    H248231   3.488   4.069   3.500  1.9819  2.8946 -0.8999
 8914TIP3   OH248232   5.462   4.285   3.039 -0.5407  0.0408 -0.4155
 8914TIP3    H148233   5.552   4.282   3.007 -1.2461 -2.4736 -2.4472
 8914TIP3    H248234   5.463   4.226   3.115 -0.7404 -1.2838 -1.3981
 8915TIP3   OH248235   3.577   5.358   5.621  0.3198  0.2831 -0.2869
 8915TIP3    H148236   3.528   5.281   5.592 -0.3791  0.4768  0.3810
 8915TIP3    H248237   3.561   5.363   5.715 -1.2961  2.4110 -0.6167
 8916TIP3   OH248238   3.323   0.868   1.044  0.2709  0.0688 -0.2010
 8916TIP3    H148239   3.409   0.852   1.084  0.8527 -0.1626 -1.5010
 8916TIP3    H248240   3.289   0.944   1.092  0.5500 -0.7049  1.3032
 8917TIP3   OH248241   2.737   2.442  15.038 -0.4425  0.5772  0.1020
 8917TIP3    H148242   2.772   2.416  14.953 -1.0788 -2.5153  0.6826
 8917TIP3    H248243   2.797   2.403  15.102 -2.0303 -0.3913  1.0531
 8918TIP3   OH248244   3.458   2.556  16.151 -0.4379 -0.0995  0.6631
 8918TIP3    H148245   3.439   2.571  16.058  0.0185 -0.5302  0.4944
 8918TIP3    H248246   3.384   2.506  16.184  0.6313 -2.3626 -0.1453
 8919TIP3   OH248247   2.315   1.843   2.485  0.4976 -0.3781 -0.2196
 8919TIP3    H148248   2.310   1.767   2.543  0.8253  0.2353  0.6412
 8919TIP3    H248249   2.398   1.833   2.439  0.5726 -0.5045 -0.0564
 8920TIP3   OH248250   0.857   2.801   5.293 -0.4499 -0.3909  0.3891
 8920TIP3    H148251   0.837   2.894   5.287  0.7187  0.0198  2.0035
 8920TIP3    H248252   0.865   2.772   5.203 -0.1420  1.2386 -0.1439
 8921TIP3   OH248253   0.861   2.071  11.250 -0.1651  0.0910  0.2405
 8921TIP3    H148254   0.911   2.010  11.304 -0.1317 -0.4275 -0.3720
 8921TIP3    H248255   0.895   2.060  11.162  0.5735  1.7550  0.2780
 8922TIP3   OH248256   0.351   5.201   2.521  0.7000  0.4446  0.4795
 8922TIP3    H148257   0.308   5.154   2.450 -0.6990  0.0391  1.5327
 8922TIP3    H248258   0.366   5.289   2.486 -0.2290  0.3406 -0.2207
 8923TIP3   OH248259   4.338   3.117   5.025 -0.0948 -0.2166  0.6128
 8923TIP3    H148260   4.305   3.029   5.043 -0.0980 -0.3114  0.1560
 8923TIP3    H248261   4.433   3.109   5.029 -0.0695 -0.4345 -0.2916
 8924TIP3   OH248262   5.625   5.723  15.670 -0.0420  0.2196 -0.2164
 8924TIP3    H148263   5.554   5.737  15.607  0.4217  0.9877 -0.5841
 8924TIP3    H248264   5.621   5.630  15.690 -0.4417  0.0366 -1.1031
 8925TIP3   OH248265   1.079   5.308  15.231  0.1010 -0.2564  0.2736
 8925TIP3    H148266   1.036   5.260  15.161  0.8392  0.4740 -0.7029
 8925TIP3    H248267   1.075   5.249  15.306 -1.9634 -0.4848  0.0367
 8926TIP3   OH248268   0.800   2.227  15.275  0.3333 -0.4817  0.6943
 8926TIP3    H148269   0.774   2.287  15.204  1.5114  0.7962  1.2910
 8926TIP3    H248270   0.845   2.155  15.231 -1.5628 -1.2398 -0.0841
 8927TIP3   OH248271   5.484   0.984  14.265 -0.0743  0.3293 -0.1717
 8927TIP3    H148272   5.548   1.046  14.302 -0.1728  1.1902 -1.4173
 8927TIP3    H248273   5.534   0.935  14.200 -0.3671  0.0884 -0.2145
 8928TIP3   OH248274   1.638   1.960   2.438 -0.0383  0.4040 -0.7426
 8928TIP3    H148275   1.731   1.982   2.447 -0.1458  0.7020 -0.3776
 8928TIP3    H248276   1.639   1.869   2.407  0.3526 -0.0854  0.6399
 8929TIP3   OH248277   3.648   6.664   1.376  0.4065 -0.0040 -0.0751
 8929TIP3    H148278   3.679   6.682   1.288  1.2952 -0.4041  0.1488
 8929TIP3    H248279   3.557   6.636   1.364  0.5361 -0.0960 -0.8649
 8930TIP3   OH248280   0.939   5.469  11.974  0.6162 -0.1661 -0.3040
 8930TIP3    H148281   1.000   5.403  12.006  1.5279  0.9144  0.2404
 8930TIP3    H248282   0.911   5.436  11.888  1.6490 -0.8834 -0.3883
 8931TIP3   OH248283   0.055   0.954   1.366  0.0289 -0.4154  0.0950
 8931TIP3    H148284   0.068   1.036   1.318 -0.3456 -1.0745 -1.2048
 8931TIP3    H248285   0.072   0.886   1.300  2.1266 -1.4398  1.5772
 8932TIP3   OH248286   3.347   2.934   6.591 -0.4077 -0.6134 -0.2027
 8932TIP3    H148287   3.265   2.923   6.543  0.0069 -1.0220 -0.8316
 8932TIP3    H248288   3.381   2.845   6.600  0.2842 -0.3855 -0.5180
 8933TIP3   OH248289   1.603   0.922  13.568 -0.0804  0.6865  0.0574
 8933TIP3    H148290   1.508   0.928  13.581 -0.0605 -1.2675  1.5537
 8933TIP3    H248291   1.614   0.844  13.514  0.6173  1.9840 -1.7579
 8934TIP3   OH248292   5.504   4.714   1.907  0.0637  0.2758 -0.0109
 8934TIP3    H148293   5.417   4.754   1.918  0.2613  0.3421  1.5633
 8934TIP3    H248294   5.487   4.620   1.902 -0.0850  0.2637  0.6397
 8935TIP3   OH248295   4.743   5.629   4.490  0.4319 -0.1529 -0.0251
 8935TIP3    H148296   4.689   5.685   4.546  1.2033  0.3710  0.2192
 8935TIP3    H248297   4.825   5.619   4.539  0.9890  0.0366 -0.9012
 8936TIP3   OH248298   1.489   1.226  13.812  0.2161  0.3737  0.3339
 8936TIP3    H148299   1.567   1.193  13.767 -0.6636  1.4105 -2.1677
 8936TIP3    H248300   1.484   1.318  13.786 -1.8655  0.3116  0.3254
 8937TIP3   OH248301   5.154   6.153  13.703 -0.0248  0.2726 -0.5612
 8937TIP3    H148302   5.130   6.165  13.795 -1.8685 -0.6253 -0.8749
 8937TIP3    H248303   5.163   6.058  13.693  3.0968  0.5042 -0.6688
 8938TIP3   OH248304   2.769   5.862   4.627  0.4492 -0.3208 -0.1442
 8938TIP3    H148305   2.763   5.783   4.574  0.4874 -0.8097  0.5715
 8938TIP3    H248306   2.718   5.927   4.578  0.5063 -0.7466 -0.7909
 8939TIP3   OH248307   6.351   5.122  16.883 -0.0537 -0.1038 -0.0633
 8939TIP3    H148308   6.340   5.188  16.951 -0.1730 -0.9026  0.7024
 8939TIP3    H248309   6.324   5.166  16.802  1.1776  1.2136  0.2060
 8940TIP3   OH248310   0.451   5.919   5.462 -0.2445 -0.2920  0.2262
 8940TIP3    H148311   0.378   5.909   5.522  0.2868  0.3222  1.0019
 8940TIP3    H248312   0.526   5.883   5.509  0.3774  1.1222  0.3679
 8941TIP3   OH248313   3.399   5.555  13.623 -0.3589  0.3624  0.2105
 8941TIP3    H148314   3.337   5.581  13.691  0.0515 -0.2058  0.8099
 8941TIP3    H248315   3.440   5.475  13.656 -0.4918 -0.1954 -0.9147
 8942TIP3   OH248316   3.131   6.049   1.136 -0.5164  0.9401 -0.1966
 8942TIP3    H148317   3.172   6.016   1.055  1.5674  1.4597  0.5852
 8942TIP3    H248318   3.066   6.112   1.106 -1.0213 -0.1562 -1.5188
 8943TIP3   OH248319   1.552   1.732   3.032  0.1254 -0.3349 -0.0257
 8943TIP3    H148320   1.634   1.781   3.042  0.2950 -0.0180 -2.4999
 8943TIP3    H248321   1.538   1.726   2.938 -1.9956 -1.6118  0.2974
 8944TIP3   OH248322   6.337   5.517   5.625  0.2546  0.1266  0.2270
 8944TIP3    H148323   6.293   5.569   5.558 -1.1692 -0.1746  0.8894
 8944TIP3    H248324   6.277   5.446   5.644  2.9567 -3.0538 -2.0804
 8945TIP3   OH248325   2.769   5.958   2.388  0.0517  0.1669  0.2330
 8945TIP3    H148326   2.844   5.901   2.373 -1.4993 -1.2709 -2.8172
 8945TIP3    H248327   2.756   6.004   2.305 -0.1437  3.4280  1.8811
 8946TIP3   OH248328   3.834   1.845   5.033  0.2324  0.0744  0.3012
 8946TIP3    H148329   3.741   1.824   5.039  0.0443  0.9018  0.4324
 8946TIP3    H248330   3.859   1.820   4.944 -0.2815  0.4954  0.0372
 8947TIP3   OH248331   2.046   6.577   4.506  0.4277  0.4843 -0.0886
 8947TIP3    H148332   2.016   6.527   4.582 -0.6180  2.8112  1.1200
 8947TIP3    H248333   2.120   6.628   4.538  0.2707  1.1544 -0.7705
 8948TIP3   OH248334   1.029   1.318   4.816 -0.2571  0.0390  0.2712
 8948TIP3    H148335   1.091   1.347   4.749 -0.1631  1.8303  1.0706
 8948TIP3    H248336   0.979   1.397   4.837 -0.6112 -0.6058  1.9508
 8949TIP3   OH248337   2.884   5.411   5.083  0.1325  0.1039 -0.0323
 8949TIP3    H148338   2.858   5.391   5.173 -0.0965  1.1042  0.1306
 8949TIP3    H248339   2.965   5.461   5.092 -1.7621  3.4144 -0.1584
 8950TIP3   OH248340   0.233   6.413  16.534  0.0716 -0.1768  0.4496
 8950TIP3    H148341   0.166   6.379  16.594  0.0984 -1.8142 -0.3974
 8950TIP3    H248342   0.313   6.369  16.560  0.8393  1.5896  1.2941
 8951TIP3   OH248343   5.446   3.158   0.841 -0.0459  0.1108  0.2878
 8951TIP3    H148344   5.389   3.227   0.807 -0.2700  0.5918  1.5978
 8951TIP3    H248345   5.389   3.081   0.849 -0.3020  0.3466  0.7548
 8952TIP3   OH248346   6.494   4.958   5.096  0.2198 -0.2013 -0.4493
 8952TIP3    H148347   6.401   4.981   5.103  0.4937  0.3978  1.9722
 8952TIP3    H248348   6.503   4.878   5.147  0.7250 -1.3754 -2.3088
 8953TIP3   OH248349   5.779   6.377   5.680  0.1092  0.0330  0.2457
 8953TIP3    H148350   5.692   6.371   5.640  0.2991  0.3267 -0.2175
 8953TIP3    H248351   5.789   6.294   5.727  0.7446 -1.3439 -2.0985
 8954TIP3   OH248352   4.859   4.773   3.259  0.8641  0.4501 -0.4268
 8954TIP3    H148353   4.928   4.837   3.248  1.5537 -0.1137  0.4851
 8954TIP3    H248354   4.836   4.778   3.352 -0.1467  0.4481 -0.6629
 8955TIP3   OH248355   3.623   0.322  10.367  0.4011  0.1644 -0.2672
 8955TIP3    H148356   3.552   0.355  10.421  0.0008 -0.5973 -0.3069
 8955TIP3    H248357   3.695   0.384  10.380  0.3869 -0.1024  1.2779
 8956TIP3   OH248358   5.579   5.372   2.548 -0.2343 -0.5457 -0.2872
 8956TIP3    H148359   5.675   5.374   2.548 -0.0841 -3.6604 -0.7950
 8956TIP3    H248360   5.554   5.399   2.636  1.1017 -0.1606 -0.0055
 8957TIP3   OH248361   2.657   2.948   2.654 -0.2722 -0.7763  0.4386
 8957TIP3    H148362   2.672   3.036   2.621 -0.2757 -0.6337  0.8189
 8957TIP3    H248363   2.744   2.906   2.649  0.1713 -0.1305  2.0937
 8958TIP3   OH248364   4.039   4.532  13.481 -0.1778 -0.2076  0.4041
 8958TIP3    H148365   4.101   4.603  13.499  0.8986 -0.7124 -1.1438
 8958TIP3    H248366   4.092   4.463  13.441 -1.5644 -1.0824  0.0046
 8959TIP3   OH248367   1.053   5.419   5.247  0.2839 -0.2954  0.3871
 8959TIP3    H148368   1.121   5.453   5.189 -0.4252 -0.8286 -0.7940
 8959TIP3    H248369   1.099   5.358   5.304  1.1475  0.8612  0.9818
 8960TIP3   OH248370   3.081   2.807  15.725  0.7967 -0.3159 -0.2040
 8960TIP3    H148371   3.094   2.713  15.727  1.4320 -0.2378 -0.3655
 8960TIP3    H248372   2.990   2.819  15.698  0.2502 -0.9028  1.2550
 8961TIP3   OH248373   5.216   2.693   3.342 -0.2563 -0.1748  0.2319
 8961TIP3    H148374   5.246   2.741   3.265  0.9173  2.9007  2.4003
 8961TIP3    H248375   5.121   2.690   3.334 -0.3937  2.6342 -0.0566
 8962TIP3   OH248376   2.221   6.577   1.702 -0.3402 -0.1375  0.1726
 8962TIP3    H148377   2.177   6.531   1.630 -1.5891  1.5451 -0.1914
 8962TIP3    H248378   2.149   6.617   1.752  0.6157  0.1362  1.3723
 8963TIP3   OH248379   4.698   4.492   2.237  0.1351 -0.3111 -0.2175
 8963TIP3    H148380   4.749   4.412   2.242  0.2099 -0.1952  1.8033
 8963TIP3    H248381   4.760   4.562   2.259 -0.2081  0.1873 -0.7662
 8964TIP3   OH248382   5.045   6.215  16.984  0.0745  0.6423  0.1758
 8964TIP3    H148383   5.100   6.144  16.952 -0.4254 -0.4891  1.7146
 8964TIP3    H248384   4.962   6.205  16.938 -0.1300 -0.0290  0.6829
 8965TIP3   OH248385   6.079   0.783  14.097  0.1699  0.3610 -0.8726
 8965TIP3    H148386   6.142   0.850  14.124 -0.5594  0.2043  1.4919
 8965TIP3    H248387   6.132   0.705  14.082  0.6302  0.2188  1.1299
 8966TIP3   OH248388   4.311   0.536   1.400 -0.2231  0.4446 -0.8943
 8966TIP3    H148389   4.400   0.571   1.393 -0.2156  0.2586 -1.8110
 8966TIP3    H248390   4.262   0.606   1.444  0.4246  0.4381 -0.1388
 8967TIP3   OH248391   6.379   5.198  12.121  0.1747  0.0069  0.0212
 8967TIP3    H148392   6.473   5.207  12.109  0.4822  2.3648  3.0527
 8967TIP3    H248393   6.341   5.255  12.054  0.7958 -1.2719 -1.4840
 8968TIP3   OH248394   6.077   5.949   3.085 -0.0157  0.0048  0.1971
 8968TIP3    H148395   6.133   6.012   3.040 -1.9873  0.9687 -1.0612
 8968TIP3    H248396   6.124   5.928   3.166  1.1326  2.4165  0.2432
 8969TIP3   OH248397   2.777   4.733   3.912 -0.6287 -0.1324  0.1320
 8969TIP3    H148398   2.843   4.689   3.965 -1.7123 -1.3793  0.4969
 8969TIP3    H248399   2.699   4.735   3.968 -1.2868  0.1047 -0.7760
 8970TIP3   OH248400   6.219   6.733   3.986  0.2861  0.1130 -0.2412
 8970TIP3    H148401   6.241   6.746   4.078  1.9573  1.7497 -0.8070
 8970TIP3    H248402   6.135   6.779   3.976 -0.0120 -0.2504  0.4880
 8971TIP3   OH248403   0.886   0.661   1.514  0.7134  0.0991  0.4222
 8971TIP3    H148404   0.933   0.718   1.454 -0.2739  0.9965  0.4585
 8971TIP3    H248405   0.835   0.603   1.457 -0.0540  0.8055  0.3601
 8972TIP3   OH248406   1.937   1.688   1.400 -0.2802 -0.3528 -0.2212
 8972TIP3    H148407   1.911   1.762   1.456 -2.5120 -1.4102  0.2374
 8972TIP3    H248408   2.004   1.643   1.450 -2.0900 -1.1661  1.6171
 8973TIP3   OH248409   1.981   5.971  16.486  0.1074 -0.1231 -0.1586
 8973TIP3    H148410   2.048   6.017  16.436  0.1131 -2.6545 -2.7046
 8973TIP3    H248411   1.970   5.887  16.440 -3.0704 -0.8021  1.5934
 8974TIP3   OH248412   1.000   2.502  15.375 -0.1639  0.1780  0.4060
 8974TIP3    H148413   1.089   2.466  15.371 -0.8797 -1.5489 -2.2776
 8974TIP3    H248414   0.952   2.442  15.433  0.0768  0.3770  0.8212
 8975TIP3   OH248415   5.023   2.524  11.818  0.5251 -0.0343  0.4870
 8975TIP3    H148416   4.976   2.597  11.856  0.5973 -0.4147  1.3198
 8975TIP3    H248417   4.976   2.505  11.736 -0.0946  0.2992  0.7601
 8976TIP3   OH248418   0.854   6.131  13.356  0.1110 -0.0669  0.4316
 8976TIP3    H148419   0.785   6.175  13.305  1.6315 -0.0991 -1.8030
 8976TIP3    H248420   0.848   6.039  13.330  1.3264  0.0283 -0.2712
 8977TIP3   OH248421   1.609   5.035  16.073  0.0209  0.5722 -0.2229
 8977TIP3    H148422   1.683   4.977  16.056  0.6833  1.3403 -0.0363
 8977TIP3    H248423   1.648   5.122  16.082 -1.0605  1.2432 -1.5694
 8978TIP3   OH248424   4.672   3.426   1.331  0.5773 -0.6014 -0.2664
 8978TIP3    H148425   4.735   3.497   1.342 -0.4076  0.5238 -1.5457
 8978TIP3    H248426   4.605   3.462   1.274 -0.9716 -1.9293  0.6247
 8979TIP3   OH248427   4.384   1.005   1.538  0.1873  0.5041 -0.3144
 8979TIP3    H148428   4.361   0.957   1.459  0.6607 -1.4970  0.6815
 8979TIP3    H248429   4.407   0.937   1.602 -1.5903  1.9263  2.0189
 8980TIP3   OH248430   4.847   1.749   0.687 -0.1063  0.5070 -0.1346
 8980TIP3    H148431   4.807   1.806   0.620  1.0893 -0.0503 -1.3742
 8980TIP3    H248432   4.849   1.803   0.766 -1.8408  1.0826 -0.4327
 8981TIP3   OH248433   5.319   6.379   1.485  0.1312  0.3030  0.0425
 8981TIP3    H148434   5.394   6.401   1.540 -0.4531  1.2087  0.4976
 8981TIP3    H248435   5.287   6.464   1.453 -0.7535 -0.0683 -0.0745
 8982TIP3   OH248436   2.273   5.038   0.813  0.2926 -0.7185  0.4143
 8982TIP3    H148437   2.341   4.996   0.866 -1.0369 -0.9419  2.0443
 8982TIP3    H248438   2.251   4.973   0.746  1.7388 -0.5928 -0.1976
 8983TIP3   OH248439   2.021   5.656  11.418  0.2696 -0.1421  0.6207
 8983TIP3    H148440   2.001   5.592  11.486 -0.6635 -0.1014  0.4005
 8983TIP3    H248441   2.108   5.632  11.387 -0.0890 -1.3480  0.5024
 8984TIP3   OH248442   0.542   4.857  10.114  0.1019  0.0442  0.0528
 8984TIP3    H148443   0.624   4.827  10.074 -0.6386 -1.9392 -0.0544
 8984TIP3    H248444   0.488   4.778  10.122 -1.8757  1.3167 -0.0120
 8985TIP3   OH248445   1.348   5.037   3.880 -0.2377 -0.2099 -0.1641
 8985TIP3    H148446   1.398   4.961   3.853  2.5038  0.6224  2.1745
 8985TIP3    H248447   1.409   5.110   3.872 -2.2318  1.5026 -0.6136
 8986TIP3   OH248448   6.131   4.064  16.629  0.0607 -0.0050 -0.3130
 8986TIP3    H148449   6.206   4.032  16.678  0.2647  1.5960  0.4486
 8986TIP3    H248450   6.168   4.104  16.551 -0.1206 -0.4871 -0.6572
 8987TIP3   OH248451   2.484   3.822  17.188  0.0271 -0.3408 -0.0371
 8987TIP3    H148452   2.516   3.783  17.269 -0.3501  0.2561  0.4098
 8987TIP3    H248453   2.400   3.860  17.211 -0.4462 -0.8410 -0.9065
 8988TIP3   OH248454   5.268   1.662   0.836 -0.0028  0.2369  0.1251
 8988TIP3    H148455   5.201   1.717   0.877  0.0168 -0.7943  1.5921
 8988TIP3    H248456   5.269   1.690   0.745 -1.4199  1.2621  0.3954
 8989TIP3   OH248457   2.848   0.424  14.832 -0.6057  0.3607  0.4409
 8989TIP3    H148458   2.923   0.387  14.786 -1.5997  0.8914 -1.7427
 8989TIP3    H248459   2.865   0.518  14.835 -1.4121  0.5511 -0.5632
 8990TIP3   OH248460   1.015   1.646   3.102  0.2587  0.4375  0.1557
 8990TIP3    H148461   0.944   1.705   3.129  0.6357  1.2914 -0.6682
 8990TIP3    H248462   1.093   1.681   3.144  0.1902 -0.6223  1.2273
 8991TIP3   OH248463   5.860   1.151  14.191 -0.4874 -0.3070 -0.1419
 8991TIP3    H148464   5.953   1.172  14.181  0.1655 -1.2084  2.8550
 8991TIP3    H248465   5.818   1.236  14.206  0.3343 -0.0965  1.1220
 8992TIP3   OH248466   3.581   5.037  12.967  0.2451  0.3706 -0.0233
 8992TIP3    H148467   3.651   5.087  12.927 -0.9667  1.5667 -0.7517
 8992TIP3    H248468   3.552   4.977  12.899 -0.8394  1.3836 -0.4910
 8993TIP3   OH248469   0.403   3.671   4.335  0.6168  0.1782  1.0920
 8993TIP3    H148470   0.351   3.670   4.255  0.5106 -0.0346  1.1612
 8993TIP3    H248471   0.342   3.701   4.403  0.8541  0.8733  0.9953
 8994TIP3   OH248472   1.347   5.453   2.901  0.1067  0.1015 -0.3680
 8994TIP3    H148473   1.336   5.365   2.938  2.9691 -1.0692 -1.9733
 8994TIP3    H248474   1.386   5.504   2.971 -0.5113 -0.2099  0.2186
 8995TIP3   OH248475   5.251   4.147  14.681  0.3962 -0.5013  0.1758
 8995TIP3    H148476   5.177   4.091  14.706  0.4336 -0.8568 -0.4740
 8995TIP3    H248477   5.213   4.234  14.670  0.4216 -0.2829  1.6620
 8996TIP3   OH248478   4.633   0.953   1.950  0.5591  0.0982  0.1860
 8996TIP3    H148479   4.578   1.030   1.964 -1.1929 -1.3633  1.8366
 8996TIP3    H248480   4.589   0.905   1.880  0.8892 -0.0912  0.1078
 8997TIP3   OH248481   4.805   0.441  10.797  0.0144  0.0533 -0.2847
 8997TIP3    H148482   4.749   0.388  10.854  0.3091 -0.4281 -0.4313
 8997TIP3    H248483   4.882   0.460  10.849 -0.1726  0.5014 -0.1692
 8998TIP3   OH248484   5.038   3.728  11.807  0.2963 -0.2034 -0.3994
 8998TIP3    H148485   4.987   3.783  11.747 -0.1748 -0.8360 -0.5879
 8998TIP3    H248486   5.018   3.762  11.894  0.3316  0.1859 -0.5400
 8999TIP3   OH248487   2.476   6.669  14.264  0.2258  0.4263  0.1314
 8999TIP3    H148488   2.479   6.574  14.267 -2.9022  0.2524  0.5551
 8999TIP3    H248489   2.452   6.696  14.353 -3.0718  1.2250 -0.8468
 9000TIP3   OH248490   0.918   1.394   3.141  0.0995  0.1445  0.0276
 9000TIP3    H148491   0.832   1.434   3.153 -0.6491 -1.1956 -0.6512
 9000TIP3    H248492   0.970   1.462   3.099 -0.5088  1.0932  0.7633
 9001TIP3   OH248493   4.668   6.586   3.075 -0.0913 -0.3649 -0.0206
 9001TIP3    H148494   4.755   6.558   3.047 -0.0099 -0.5617  0.4127
 9001TIP3    H248495   4.644   6.656   3.014  1.4788  1.5425  1.3859
 9002TIP3   OH248496   6.604   1.361   1.083  0.4334  0.1638  0.2599
 9002TIP3    H148497   6.576   1.434   1.139 -0.7272 -1.7855  2.3940
 9002TIP3    H248498   6.532   1.298   1.088  1.6524 -1.4198 -1.0009
 9003TIP3   OH248499   6.665   2.049   0.672 -0.3340  0.3187  0.1551
 9003TIP3    H148500   6.633   1.969   0.713 -1.1933 -0.1475 -1.3534
 9003TIP3    H248501   6.717   2.092   0.740  0.8850 -1.9278  0.7303
 9004TIP3   OH248502   2.934   2.297  14.794 -0.3171 -0.0104 -0.6090
 9004TIP3    H148503   3.002   2.326  14.733 -0.3181  1.8747  0.2255
 9004TIP3    H248504   2.975   2.301  14.880 -1.8058  2.7281  0.1257
 9005TIP3   OH248505   0.395   2.826   3.220  0.2869 -0.5452 -0.4345
 9005TIP3    H148506   0.339   2.877   3.162 -0.5477  0.7877  1.4432
 9005TIP3    H248507   0.472   2.881   3.234  0.1966 -0.5655  0.1959
 9006TIP3   OH248508   5.694   3.847  12.388 -0.4909 -0.8008  0.0863
 9006TIP3    H148509   5.624   3.861  12.323  0.0911  1.7380 -0.0680
 9006TIP3    H248510   5.649   3.806  12.462 -1.7309 -1.1424 -0.8115
 9007TIP3   OH248511   1.373   2.495  11.709  0.3673 -0.4708 -0.4488
 9007TIP3    H148512   1.409   2.555  11.645 -0.3482 -0.8010 -1.1747
 9007TIP3    H248513   1.433   2.421  11.710  0.2981 -0.5340 -0.8576
 9008TIP3   OH248514   2.347   2.243   5.232 -0.1304 -0.5567  0.6993
 9008TIP3    H148515   2.355   2.181   5.305  0.0351 -0.5975  0.6474
 9008TIP3    H248516   2.387   2.198   5.158 -0.1002 -0.4273  0.6370
 9009TIP3   OH248517   5.650   1.258  11.287  0.2071 -0.4460  0.3294
 9009TIP3    H148518   5.630   1.308  11.209  0.4153 -0.2090  0.4262
 9009TIP3    H248519   5.645   1.321  11.359  0.5288 -0.5480  0.4439
 9010TIP3   OH248520   0.182   4.389   0.517  0.1949  0.0601  0.5813
 9010TIP3    H148521   0.270   4.426   0.521  0.4833 -0.4471 -0.6426
 9010TIP3    H248522   0.164   4.380   0.423 -0.0815 -2.3279  0.8118
 9011TIP3   OH248523   5.315   1.067   1.281  0.8564  0.5056  0.0803
 9011TIP3    H148524   5.321   0.990   1.224  1.2113  0.5064  0.1146
 9011TIP3    H248525   5.234   1.110   1.254  1.8307  1.4131 -1.5662
 9012TIP3   OH248526   4.082   3.219  12.214  0.0320  0.1069 -0.2393
 9012TIP3    H148527   4.159   3.248  12.166 -0.7480  2.1825 -0.3327
 9012TIP3    H248528   4.008   3.254  12.164 -1.0497 -2.2895 -0.4668
 9013TIP3   OH248529   1.363   1.268   2.831 -0.1078  0.4553  0.5418
 9013TIP3    H148530   1.452   1.269   2.866  0.0220 -1.1477  0.3588
 9013TIP3    H248531   1.364   1.198   2.766 -1.2625  1.0508 -0.1449
 9014TIP3   OH248532   3.400   6.419   1.018  0.2999  0.3802  0.6310
 9014TIP3    H148533   3.458   6.379   1.084 -1.5915 -0.7106  1.7108
 9014TIP3    H248534   3.317   6.433   1.064 -0.3278  1.9315 -0.8610
 9015TIP3   OH248535   1.344   1.855  11.078  0.7178 -0.3953  0.2831
 9015TIP3    H148536   1.268   1.869  11.022  0.4190  0.3724  0.8562
 9015TIP3    H248537   1.418   1.851  11.018  0.3436 -0.1042 -0.2091
 9016TIP3   OH248538   0.405   4.666   2.625  0.5160  0.5654  0.1919
 9016TIP3    H148539   0.484   4.654   2.677  0.7647  1.7264  0.1199
 9016TIP3    H248540   0.434   4.659   2.534 -0.0030 -1.9453  0.1725
 9017TIP3   OH248541   0.164   0.871  16.651  0.4741  0.3042 -0.1558
 9017TIP3    H148542   0.242   0.918  16.624  0.8184 -0.8999 -1.3831
 9017TIP3    H248543   0.194   0.814  16.723  1.0015 -0.8648 -1.2577
 9018TIP3   OH248544   4.364   6.038  11.396 -0.2571  0.2129 -0.3741
 9018TIP3    H148545   4.457   6.062  11.400 -0.4371  1.0814 -1.0273
 9018TIP3    H248546   4.340   6.053  11.304 -0.3737 -2.6542 -0.9009
 9019TIP3   OH248547   2.115   4.678  15.479 -0.7520  0.2050  0.3160
 9019TIP3    H148548   2.105   4.589  15.447 -1.1184 -0.2848  1.7366
 9019TIP3    H248549   2.175   4.671  15.553  0.9059  1.4659 -0.8309
 9020TIP3   OH248550   6.638   3.268   5.841  0.0325 -0.0867  0.9234
 9020TIP3    H148551   6.627   3.286   5.934  1.0450  0.5169  0.9442
 9020TIP3    H248552   6.558   3.222   5.815 -0.6681  0.5703  1.8734
 9021TIP3   OH248553   6.498   1.102   0.286 -0.1961  0.7378 -0.1708
 9021TIP3    H148554   6.471   1.074   0.199  1.5856  2.4433 -1.3893
 9021TIP3    H248555   6.540   1.025   0.325 -0.7299  0.0458 -0.9473
 9022TIP3   OH248556   1.288   3.997   3.101 -0.1383  0.4831  0.2480
 9022TIP3    H148557   1.317   3.906   3.094  0.0761  0.5867 -0.3037
 9022TIP3    H248558   1.332   4.031   3.179  0.7857  0.4722 -0.2480
 9023TIP3   OH248559   1.987   3.340   5.960 -0.5016 -0.3187 -0.2362
 9023TIP3    H148560   2.013   3.279   5.891 -1.1160 -0.1175 -0.6567
 9023TIP3    H248561   1.898   3.314   5.983 -0.0116 -0.9266  1.1048
 9024TIP3   OH248562   5.543   0.644   5.816  0.0252  0.1625 -0.0132
 9024TIP3    H148563   5.630   0.609   5.801  0.4660  0.5547  1.4041
 9024TIP3    H248564   5.539   0.724   5.763  1.2043  1.0801  1.2101
 9025TIP3   OH248565   0.613   5.228   5.944 -0.0355  0.0047 -0.2429
 9025TIP3    H148566   0.581   5.159   5.886 -0.8265  0.2681 -0.1235
 9025TIP3    H248567   0.697   5.195   5.976 -0.1470 -0.6575 -0.6222
 9026TIP3   OH248568   0.849   3.217  15.828  0.0492  0.0587  0.0471
 9026TIP3    H148569   0.864   3.267  15.908  0.7814  1.1986 -0.7700
 9026TIP3    H248570   0.765   3.248  15.794  0.8760  1.3699 -0.8803
 9027TIP3   OH248571   2.128   5.099  13.559 -0.7586  0.9493 -0.1719
 9027TIP3    H148572   2.111   5.006  13.571  1.7056  0.3069 -0.9842
 9027TIP3    H248573   2.193   5.120  13.626 -0.1236  1.6617 -0.9777
 9028TIP3   OH248574   2.586   5.596  16.528 -0.5604 -0.1080 -0.2122
 9028TIP3    H148575   2.561   5.516  16.575 -1.5939 -0.2012 -0.8732
 9028TIP3    H248576   2.642   5.643  16.589 -0.8918 -0.7902  0.6492
 9029TIP3   OH248577   6.170   1.981  16.088 -0.0601 -0.4791  0.0975
 9029TIP3    H148578   6.145   1.889  16.078 -0.7499 -0.3217  0.2866
 9029TIP3    H248579   6.111   2.028  16.030  0.2057 -0.1416  0.0992
 9030TIP3   OH248580   5.973   2.573   6.737 -0.1639 -0.2379  0.2193
 9030TIP3    H148581   6.039   2.564   6.667 -1.1065 -2.7614 -0.4484
 9030TIP3    H248582   5.920   2.648   6.710  2.8211  2.4618  1.2241
 9031TIP3   OH248583   2.554   1.452  11.742  0.2936 -0.1115 -0.1910
 9031TIP3    H148584   2.621   1.510  11.780 -0.6735  0.7391  0.2836
 9031TIP3    H248585   2.522   1.401  11.817  0.2468 -0.3273 -0.3604
 9032TIP3   OH248586   4.084   1.034  17.039  0.7308  0.4572  0.3088
 9032TIP3    H148587   4.109   1.116  16.996 -2.3066  0.3482 -2.0578
 9032TIP3    H248588   4.167   0.990  17.057  2.3839  3.0201 -0.4530
 9033TIP3   OH248589   1.530   0.838   2.399 -0.1577  0.3017  0.5338
 9033TIP3    H148590   1.573   0.770   2.450  0.1245 -1.2475 -1.6389
 9033TIP3    H248591   1.601   0.894   2.369  0.0300 -0.5069 -0.5661
 9034TIP3   OH248592   1.578   5.706   2.789  0.1195 -1.3093  0.4009
 9034TIP3    H148593   1.597   5.723   2.696  1.0967 -1.4228  0.5687
 9034TIP3    H248594   1.535   5.620   2.789 -0.6675 -0.9321 -0.0146
 9035TIP3   OH248595   3.085   6.561  14.005 -0.1241  0.3648  0.2274
 9035TIP3    H148596   3.181   6.569  14.013 -0.0158 -1.8652  2.3840
 9035TIP3    H248597   3.072   6.495  13.937  0.0660 -1.3510  1.7621
 9036TIP3   OH248598   4.518   2.432  16.704  0.1839 -0.2944 -0.1787
 9036TIP3    H148599   4.483   2.436  16.615  0.7981 -0.8567 -0.4493
 9036TIP3    H248600   4.567   2.350  16.707  0.9259  0.1553  0.3965
 9037TIP3   OH248601   5.532   2.408   1.407  0.2707 -0.0670  0.0272
 9037TIP3    H148602   5.467   2.471   1.378 -0.4084 -0.6553  0.2633
 9037TIP3    H248603   5.612   2.432   1.360 -0.0589  0.7760 -0.1131
 9038TIP3   OH248604   6.379   4.948   4.059 -0.1246 -0.0795  0.1257
 9038TIP3    H148605   6.422   4.866   4.083 -0.5463 -0.5853 -0.8289
 9038TIP3    H248606   6.436   5.016   4.096  0.9198 -0.7612 -0.1908
 9039TIP3   OH248607   6.399   2.961   3.294 -0.2554 -0.6980 -0.0572
 9039TIP3    H148608   6.318   2.979   3.245 -0.4358  0.2907  0.5801
 9039TIP3    H248609   6.468   3.001   3.240 -0.3152 -0.6276 -0.0828
 9040TIP3   OH248610   0.732   2.224   5.183  0.4330  0.1411  0.8717
 9040TIP3    H148611   0.655   2.167   5.186 -0.4987  1.3711  1.0867
 9040TIP3    H248612   0.724   2.272   5.101  0.4987  0.9009  1.2968
 9041TIP3   OH248613   1.432   3.707   4.279 -0.1709  0.0284  0.3500
 9041TIP3    H148614   1.454   3.674   4.366 -2.2423  0.0880  0.9613
 9041TIP3    H248615   1.505   3.764   4.256  1.0754 -1.0506  1.4326
 9042TIP3   OH248616   1.433   4.248  11.637 -0.1841 -0.3188  0.2849
 9042TIP3    H148617   1.362   4.205  11.590  1.1559 -2.2991 -0.0594
 9042TIP3    H248618   1.389   4.304  11.701 -2.0515  1.0449 -2.0160
 9043TIP3   OH248619   5.628   1.849   4.425 -0.3521 -0.0891 -0.0675
 9043TIP3    H148620   5.625   1.761   4.388  0.7610 -0.4981  0.8004
 9043TIP3    H248621   5.719   1.876   4.417 -0.2754  0.1913  1.4988
 9044TIP3   OH248622   5.499   1.902  15.715 -0.4241  0.0991  0.3459
 9044TIP3    H148623   5.427   1.957  15.685  0.1606  0.4338 -0.4863
 9044TIP3    H248624   5.473   1.873  15.802 -1.1028  1.0416  0.4663
 9045TIP3   OH248625   2.064   5.101  14.922  0.2410  0.0630 -0.5069
 9045TIP3    H148626   2.101   5.033  14.978  1.5547  0.4692 -0.8568
 9045TIP3    H248627   2.137   5.129  14.867 -0.4645  1.2436 -0.8668
 9046TIP3   OH248628   2.267   5.713   2.040  0.4782 -0.3376 -0.0271
 9046TIP3    H148629   2.208   5.788   2.043 -0.0498 -0.7586  0.1637
 9046TIP3    H248630   2.233   5.659   1.968  0.9222 -0.3470 -0.2363
 9047TIP3   OH248631   2.607   0.328   5.084  0.0220  0.4478 -0.2737
 9047TIP3    H148632   2.608   0.324   5.179 -0.2281  3.3250 -0.0516
 9047TIP3    H248633   2.693   0.298   5.057 -0.1308 -1.0522  0.7645
 9048TIP3   OH248634   2.571   2.174  11.909 -0.6951  0.4522  0.2379
 9048TIP3    H148635   2.484   2.195  11.944 -1.2354  2.6103 -2.0791
 9048TIP3    H248636   2.616   2.259  11.906  1.1479 -0.4745  0.4388
 9049TIP3   OH248637   0.200   4.888   5.256 -0.2542 -0.8009 -0.2687
 9049TIP3    H148638   0.106   4.887   5.273 -0.2839  1.4468  0.0239
 9049TIP3    H248639   0.207   4.922   5.166  0.2750  0.0848  0.0945
 9050TIP3   OH248640   3.782   4.483  16.820  0.4487 -0.2716  0.4911
 9050TIP3    H148641   3.778   4.411  16.882  0.3526 -0.6612  0.0363
 9050TIP3    H248642   3.758   4.445  16.736  1.6362  0.0002 -0.0001
 9051TIP3   OH248643   3.443   0.518  15.723  0.3279 -0.0116 -0.6862
 9051TIP3    H148644   3.414   0.436  15.684  0.6260 -0.1919 -0.5327
 9051TIP3    H248645   3.368   0.549  15.774  0.1967 -0.1602 -0.7927
 9052TIP3   OH248646   0.239   2.779   6.606 -0.5166 -0.2999  0.5321
 9052TIP3    H148647   0.152   2.805   6.575 -0.1465 -0.7135 -0.9448
 9052TIP3    H248648   0.266   2.711   6.545 -0.2895 -2.1770  2.6284
 9053TIP3   OH248649   3.543   5.627  10.348 -0.1002 -0.0244 -0.1188
 9053TIP3    H148650   3.629   5.592  10.373  0.4852  0.7681 -0.9185
 9053TIP3    H248651   3.564   5.710  10.305 -1.3892  1.1655  1.3986
 9054TIP3   OH248652   0.261   5.941  14.618 -0.1102 -0.2156  0.5023
 9054TIP3    H148653   0.178   5.985  14.632  0.3502  0.4685  1.1207
 9054TIP3    H248654   0.274   5.888  14.697 -0.2783 -0.8517  0.1116
 9055TIP3   OH248655   2.462   0.866   1.650  0.4990  0.3679  1.0671
 9055TIP3    H148656   2.458   0.867   1.554  0.0965 -2.5005  0.9418
 9055TIP3    H248657   2.555   0.873   1.670  0.5950  0.8763  0.4607
 9056TIP3   OH248658   1.002   1.834  14.761 -0.0417  0.4597 -0.6811
 9056TIP3    H148659   1.096   1.851  14.763  0.1393 -0.3273  2.6005
 9056TIP3    H248660   0.995   1.739  14.758 -0.7218  0.5080 -0.6819
 9057TIP3   OH248661   6.573   1.125  13.814 -0.6447  0.6903 -0.7130
 9057TIP3    H148662   6.609   1.065  13.748 -0.0109  0.4969 -0.1994
 9057TIP3    H248663   6.482   1.139  13.786 -0.9187 -0.7960 -0.6572
 9058TIP3   OH248664   3.175   5.975   3.589  0.2105 -0.1200 -0.2502
 9058TIP3    H148665   3.105   5.972   3.523 -0.3388 -2.0257  0.3585
 9058TIP3    H248666   3.142   5.922   3.661  2.5719 -1.6901 -0.2253
 9059TIP3   OH248667   4.952   1.890  16.668  0.5267  0.2163  0.0629
 9059TIP3    H148668   4.930   1.925  16.582 -2.2040 -1.8181 -0.2000
 9059TIP3    H248669   4.886   1.927  16.727  0.9640 -0.2060  0.8384
 9060TIP3   OH248670   5.199   2.292  12.905  0.3541 -0.4530 -0.2253
 9060TIP3    H148671   5.243   2.367  12.866 -0.6682 -0.1076 -0.7485
 9060TIP3    H248672   5.225   2.218  12.851  2.2820 -0.7295  0.9563
 9061TIP3   OH248673   6.198   3.841  17.028  0.6536  0.2091  0.1756
 9061TIP3    H148674   6.117   3.854  17.078 -0.0665  1.7301 -1.2601
 9061TIP3    H248675   6.237   3.762  17.065 -0.5834  0.4113  2.0897
 9062TIP3   OH248676   3.465   6.469  14.220  0.0145 -0.0293  0.3210
 9062TIP3    H148677   3.520   6.534  14.263 -0.0966 -0.2725  0.8436
 9062TIP3    H248678   3.376   6.496  14.241 -0.2212  1.6903 -2.4156
 9063TIP3   OH248679   1.831   5.198  14.199 -0.5513  0.5079  0.6541
 9063TIP3    H148680   1.775   5.121  14.204  0.9444 -0.6726 -0.0011
 9063TIP3    H248681   1.920   5.163  14.196  0.1982  2.2864  0.9153
 9064TIP3   OH248682   4.006   2.279   6.080  0.3419 -0.3463  0.5022
 9064TIP3    H148683   4.083   2.250   6.129 -0.3040  0.7400  2.2394
 9064TIP3    H248684   3.933   2.272   6.142 -0.2278  2.6645  0.3147
 9065TIP3   OH248685   5.675   0.889   5.097  0.2576 -0.6487 -0.2680
 9065TIP3    H148686   5.665   0.942   5.176  1.4870  1.1473 -1.2553
 9065TIP3    H248687   5.618   0.813   5.112 -2.1408  1.2430  0.9296
 9066TIP3   OH248688   1.963   0.910   0.613  0.1360  0.0737  0.3509
 9066TIP3    H148689   2.042   0.930   0.563  0.8802  0.1386  1.5147
 9066TIP3    H248690   1.968   0.967   0.689  0.0013 -1.3266  1.4569
 9067TIP3   OH248691   5.374   2.394   1.660 -0.1562 -0.0945 -0.1720
 9067TIP3    H148692   5.461   2.386   1.621  0.3250 -1.4640  1.0869
 9067TIP3    H248693   5.321   2.434   1.591  1.4913  0.9646 -0.9039
 9068TIP3   OH248694   2.595   3.113  16.512  1.4231 -0.4513 -0.2292
 9068TIP3    H148695   2.589   3.139  16.420  1.0320  0.4033  0.0262
 9068TIP3    H248696   2.616   3.194  16.559 -2.1303  0.0221  0.8927
 9069TIP3   OH248697   4.326   4.016  15.839  0.0614  0.9873  0.3531
 9069TIP3    H148698   4.388   4.089  15.846 -0.0957  1.2770 -1.0931
 9069TIP3    H248699   4.263   4.032  15.909 -0.2390  2.5154 -0.2246
 9070TIP3   OH248700   5.186   5.634   6.377  0.2843  0.2721  0.1223
 9070TIP3    H148701   5.156   5.566   6.318  1.7532  0.7589 -1.2615
 9070TIP3    H248702   5.107   5.681   6.402 -0.4636 -0.4459 -0.8286
 9071TIP3   OH248703   2.479   1.492  15.468 -0.1205 -0.2978 -0.2110
 9071TIP3    H148704   2.385   1.473  15.471  0.1752 -1.9691 -0.4368
 9071TIP3    H248705   2.511   1.469  15.555  0.2066 -0.4552 -0.3716
 9072TIP3   OH248706   3.403   1.242   4.240 -0.2650 -0.4967 -0.3255
 9072TIP3    H148707   3.390   1.268   4.149  2.3139 -0.1214 -0.6740
 9072TIP3    H248708   3.453   1.314   4.279  0.5726 -1.6152  0.7602
 9073TIP3   OH248709   6.537   1.206   2.858  0.5067 -0.0896 -0.8115
 9073TIP3    H148710   6.502   1.121   2.886  2.3384 -0.8331 -0.6200
 9073TIP3    H248711   6.463   1.266   2.864 -1.0968 -1.8519 -1.8886
 9074TIP3   OH248712   1.389   0.098   1.974 -0.2849 -0.0068  0.9342
 9074TIP3    H148713   1.381   0.019   2.027 -1.4743 -0.5417 -0.0015
 9074TIP3    H248714   1.299   0.128   1.961  0.0948  1.0470  0.5922
 9075TIP3   OH248715   2.968   6.011  14.639 -0.4885 -0.0911  0.4225
 9075TIP3    H148716   2.979   5.940  14.575 -1.5731 -0.0633  0.1751
 9075TIP3    H248717   3.048   6.063  14.631 -0.7412  0.1135 -1.1736
 9076TIP3   OH248718   6.807   6.727   1.040  0.3913  0.6751  0.2265
 9076TIP3    H148719   6.717   6.706   1.014  0.2491  1.3442  0.1646
 9076TIP3    H248720   6.810   6.708   1.133 -0.1498  1.6983  0.4744
 9077TIP3   OH248721   1.620   6.729  14.558 -0.4646  0.3103  0.6313
 9077TIP3    H148722   1.700   6.676  14.560 -0.7247 -0.4299 -2.4755
 9077TIP3    H248723   1.610   6.762  14.647  0.8012 -3.2446  2.2822
 9078TIP3   OH248724   1.202   0.767  11.756  0.1635  0.3890  0.8879
 9078TIP3    H148725   1.137   0.702  11.730 -0.7778  1.1787  1.1973
 9078TIP3    H248726   1.286   0.723  11.744 -0.2889  0.0954 -1.7063
 9079TIP3   OH248727   5.527   0.043   6.078  0.3439 -0.3903 -0.3156
 9079TIP3    H148728   5.539   0.029   5.984 -0.9388 -1.3030 -0.3716
 9079TIP3    H248729   5.520  -0.046   6.114 -0.7306 -0.0314  0.3990
 9080TIP3   OH248730   2.233   5.533  11.214  0.1004  0.5250  0.1114
 9080TIP3    H148731   2.308   5.580  11.176  0.7525 -2.0033 -2.0619
 9080TIP3    H248732   2.272   5.456  11.256 -1.1172  0.2691  0.8054
 9081TIP3   OH248733   3.492   1.979  13.798 -0.2138 -0.1589  0.3804
 9081TIP3    H148734   3.561   1.937  13.747  0.6641  0.5765  0.9251
 9081TIP3    H248735   3.434   1.907  13.824 -0.1774 -0.6629 -0.8661
 9082TIP3   OH248736   3.476   4.269   5.533  0.0438 -0.0591 -0.6238
 9082TIP3    H148737   3.520   4.301   5.454 -1.1933  2.1122 -0.5268
 9082TIP3    H248738   3.419   4.342   5.559 -0.4983 -1.1957  1.5742
 9083TIP3   OH248739   1.594   1.956   5.539 -0.1461  0.6804 -0.3103
 9083TIP3    H148740   1.581   1.920   5.626 -1.2332  1.6132 -0.0513
 9083TIP3    H248741   1.619   2.047   5.554  1.2412  0.4312 -0.9621
 9084TIP3   OH248742   0.258   3.887  16.416  0.1327 -0.4348 -0.0982
 9084TIP3    H148743   0.186   3.922  16.364  0.1979  0.6821  0.5498
 9084TIP3    H248744   0.333   3.889  16.357  0.4253  1.7037  0.2624
 9085TIP3   OH248745   2.611   3.376   1.560 -0.0985 -0.1192 -0.6324
 9085TIP3    H148746   2.521   3.346   1.572 -0.2533  0.6347  0.1546
 9085TIP3    H248747   2.664   3.297   1.573 -0.6066 -0.4403 -0.4748
 9086TIP3   OH248748   5.125   2.235   1.362 -0.2521  0.3833  0.0025
 9086TIP3    H148749   5.189   2.305   1.375  1.7706 -1.1456 -1.0410
 9086TIP3    H248750   5.052   2.277   1.316  1.2509  1.6844 -1.3033
 9087TIP3   OH248751   3.489   0.993   6.166 -0.6908 -0.0614 -0.4004
 9087TIP3    H148752   3.507   0.947   6.084 -0.4235 -1.2075  0.2791
 9087TIP3    H248753   3.413   0.947   6.204 -1.7158  1.3412 -0.6554
 9088TIP3   OH248754   5.458   5.160  12.965  0.1306  0.0149  0.5884
 9088TIP3    H148755   5.485   5.095  12.900  0.3595 -0.4063  1.0931
 9088TIP3    H248756   5.441   5.239  12.915 -0.9596 -0.6639 -0.1514
 9089TIP3   OH248757   5.676   1.309   1.701 -0.1242  0.2589 -0.0139
 9089TIP3    H148758   5.667   1.288   1.608  0.1189  0.2932 -0.0458
 9089TIP3    H248759   5.591   1.287   1.739 -0.1235 -0.0565 -0.1881
 9090TIP3   OH248760   2.270   5.937   5.125 -0.3889 -0.6569  0.0535
 9090TIP3    H148761   2.223   6.014   5.159 -0.5306 -0.7002 -0.0449
 9090TIP3    H248762   2.362   5.958   5.140 -0.4629 -0.8604  0.8662
 9091TIP3   OH248763   4.975   1.777   2.847 -0.4575  0.3001 -0.4119
 9091TIP3    H148764   4.915   1.851   2.845  0.5298  1.1495  0.1768
 9091TIP3    H248765   4.923   1.702   2.817 -1.3811  1.2874 -1.3296
 9092TIP3   OH248766   3.211   3.181   5.140 -0.2516 -0.0489 -0.0943
 9092TIP3    H148767   3.289   3.139   5.176 -1.0129 -1.3684  0.0867
 9092TIP3    H248768   3.171   3.226   5.215  0.4697  0.8757 -0.2492
 9093TIP3   OH248769   2.698   0.468  16.302  0.1117  0.0921 -0.0962
 9093TIP3    H148770   2.788   0.492  16.283 -0.1564  0.3227 -1.1366
 9093TIP3    H248771   2.705   0.392  16.360  0.9621  0.9400  0.9502
 9094TIP3   OH248772   6.070   2.954  15.944  0.3296 -0.2965 -0.2273
 9094TIP3    H148773   6.143   3.000  15.985 -0.2556  0.3429  0.1174
 9094TIP3    H248774   6.011   3.023  15.916 -0.9313 -0.8415  0.9752
 9095TIP3   OH248775   1.744   5.642   2.064 -0.4200  0.2479  0.7855
 9095TIP3    H148776   1.659   5.674   2.093 -0.2379  0.1410  1.4543
 9095TIP3    H248777   1.784   5.604   2.143  1.0763  2.0631  0.9722
 9096TIP3   OH248778   6.441   2.295   4.677 -0.0454  0.2212  0.0627
 9096TIP3    H148779   6.465   2.360   4.610  1.5502 -0.8991 -0.5276
 9096TIP3    H248780   6.443   2.344   4.759  0.3624  1.0979 -0.4511
 9097TIP3   OH248781   5.294   2.413  14.449 -0.0804  0.2881 -0.4412
 9097TIP3    H148782   5.225   2.364  14.405 -1.2743 -0.1838  1.7653
 9097TIP3    H248783   5.344   2.347  14.497  1.0112  0.7947 -0.8457
 9098TIP3   OH248784   3.870   0.204   0.667  0.2406 -0.4378  0.2578
 9098TIP3    H148785   3.897   0.284   0.711 -0.0705 -0.3365  0.2676
 9098TIP3    H248786   3.855   0.141   0.737  1.7780 -0.9271  0.1969
 9099TIP3   OH248787   5.726   0.127  16.961  0.8554  0.1693  0.1334
 9099TIP3    H148788   5.679   0.168  17.033  0.6557 -0.0188  0.1093
 9099TIP3    H248789   5.704   0.180  16.884 -0.9456 -1.0860 -0.2802
 9100TIP3   OH248790   3.876   1.873  14.845 -0.7356 -0.1998  0.5848
 9100TIP3    H148791   3.932   1.804  14.809 -0.6820 -0.7033  1.6057
 9100TIP3    H248792   3.787   1.843  14.829 -0.7169 -0.7747  1.4871
 9101TIP3   OH248793   3.664   6.653  15.919  0.3943  0.1900  0.0404
 9101TIP3    H148794   3.573   6.661  15.890  0.7666 -1.7571 -1.9714
 9101TIP3    H248795   3.682   6.559  15.915  2.1604  0.3945  1.5925
 9102TIP3   OH248796   4.199   6.594   3.857 -0.5324  0.3302 -0.1784
 9102TIP3    H148797   4.196   6.689   3.857 -0.9336  0.3257 -1.0299
 9102TIP3    H248798   4.291   6.573   3.840 -0.1614  0.5411  1.3748
 9103TIP3   OH248799   5.976   2.497   5.764 -0.2754  0.0183  0.4038
 9103TIP3    H148800   6.044   2.510   5.830 -0.7334  0.8192  0.7430
 9103TIP3    H248801   5.936   2.583   5.755 -0.2660 -0.0957 -0.8835
 9104TIP3   OH248802   5.362   2.591   1.836  0.2988 -0.6451 -0.2257
 9104TIP3    H148803   5.403   2.517   1.791 -2.3244 -1.7606 -0.9627
 9104TIP3    H248804   5.297   2.624   1.774  1.0773  2.0675  0.2670
 9105TIP3   OH248805   0.333   4.155   0.616  0.1277 -0.4119  0.4417
 9105TIP3    H148806   0.388   4.143   0.538  0.6968 -1.0240  0.9299
 9105TIP3    H248807   0.274   4.226   0.592  0.8849  0.0115 -0.2332
 9106TIP3   OH248808   5.862   4.725  11.414 -0.6257  0.3642  0.7219
 9106TIP3    H148809   5.953   4.704  11.390  0.7319  1.8721  3.8965
 9106TIP3    H248810   5.829   4.645  11.454 -0.1847  0.2336  0.8363
 9107TIP3   OH248811   2.800   2.274   1.538  0.3967  0.0448 -0.1906
 9107TIP3    H148812   2.745   2.217   1.485 -1.6065  0.5892  1.2109
 9107TIP3    H248813   2.776   2.363   1.511  0.1059  0.3060  0.8970
 9108TIP3   OH248814   1.278   2.586  11.953  0.3516  0.0346  0.4046
 9108TIP3    H148815   1.311   2.558  11.868 -0.9387  1.6193 -0.6872
 9108TIP3    H248816   1.351   2.634  11.992  0.2964  1.1397 -0.7770
 9109TIP3   OH248817   1.800   1.089  16.771  0.3838 -0.1210 -0.2418
 9109TIP3    H148818   1.893   1.107  16.762  0.8818 -2.3762 -0.3595
 9109TIP3    H248819   1.783   1.098  16.865  1.0809 -1.1058 -0.0064
 9110TIP3   OH248820   0.965   2.161   4.332  0.0973  0.2728 -0.2163
 9110TIP3    H148821   0.996   2.169   4.423  2.4049  1.0381 -0.9813
 9110TIP3    H248822   0.902   2.232   4.322  2.1897  2.2798 -0.0219
 9111TIP3   OH248823   1.436   0.505   3.298  0.0402  0.1930 -0.2753
 9111TIP3    H148824   1.378   0.581   3.290  0.5369  0.7423  1.0646
 9111TIP3    H248825   1.426   0.459   3.215 -1.9210  0.5470 -0.2800
 9112TIP3   OH248826   3.195   4.491  13.672  0.1977  0.4620 -0.8376
 9112TIP3    H148827   3.218   4.534  13.590 -0.6400 -0.8133 -1.7978
 9112TIP3    H248828   3.260   4.421  13.681  0.7866  1.1056  0.0405
 9113TIP3   OH248829   5.464   1.447  16.671 -0.1022 -0.5833 -0.0987
 9113TIP3    H148830   5.491   1.531  16.707 -1.7004 -0.2869  0.4880
 9113TIP3    H248831   5.396   1.416  16.730  0.1701 -2.1048 -0.5355
 9114TIP3   OH248832   1.501   6.063  15.528 -0.3814  0.1222  0.0559
 9114TIP3    H148833   1.514   6.058  15.434 -2.7416 -0.2055 -0.3118
 9114TIP3    H248834   1.496   5.971  15.557  1.1265  0.2045  0.6614
 9115TIP3   OH248835   3.354   0.335  14.289 -0.1472  0.2722  0.1169
 9115TIP3    H148836   3.431   0.362  14.240 -0.1228  0.1475  0.0876
 9115TIP3    H248837   3.291   0.306  14.222 -0.5705  1.2654  0.0722
 9116TIP3   OH248838   1.288   0.353   2.417 -0.6347 -0.1566  0.2576
 9116TIP3    H148839   1.204   0.397   2.424 -1.2476 -1.1891 -0.4427
 9116TIP3    H248840   1.338   0.405   2.355 -0.8718  0.2708  0.4246
 9117TIP3   OH248841   2.918   6.811   6.209  0.2718  0.2225 -0.4807
 9117TIP3    H148842   2.828   6.802   6.240  0.8127  1.2277  1.5800
 9117TIP3    H248843   2.949   6.722   6.198 -0.5189 -0.1539  0.2403
 9118TIP3   OH248844   2.579   0.808  15.342 -0.0262 -0.7198  0.4454
 9118TIP3    H148845   2.484   0.795  15.338 -0.3920  1.6118 -0.7713
 9118TIP3    H248846   2.590   0.882  15.401  0.6400  1.2189 -1.9263
 9119TIP3   OH248847   0.833   2.481   5.332  0.1383  0.5172 -0.0802
 9119TIP3    H148848   0.912   2.482   5.278  0.0883  1.0721 -0.1532
 9119TIP3    H248849   0.783   2.406   5.302  0.3195  0.5628 -0.4962
 9120TIP3   OH248850   6.509   5.441   0.632  0.0629  0.1101 -0.1559
 9120TIP3    H148851   6.507   5.528   0.592 -2.2227  0.2351  0.0990
 9120TIP3    H248852   6.569   5.451   0.707  1.0101  1.0162 -0.9873
 9121TIP3   OH248853   4.091   5.459  11.260  0.1969 -0.0977 -0.4690
 9121TIP3    H148854   4.183   5.441  11.238  0.8736  0.8386  1.3912
 9121TIP3    H248855   4.091   5.551  11.288 -1.7076  0.5293 -2.2804
 9122TIP3   OH248856   2.557   5.110   0.118  0.0000  0.0686 -0.7135
 9122TIP3    H148857   2.554   5.203   0.142  1.2706 -0.0162 -0.1892
 9122TIP3    H248858   2.639   5.100   0.070  1.0324 -1.2144  1.1940
 9123TIP3   OH248859   1.420   6.070   3.129 -0.5535  0.5117 -0.3260
 9123TIP3    H148860   1.385   6.137   3.187  0.8359 -0.1023  1.2797
 9123TIP3    H248861   1.491   6.114   3.081 -0.7609  0.6339 -0.5226
 9124TIP3   OH248862   0.613   2.351   6.625  0.3570 -0.3990 -0.0050
 9124TIP3    H148863   0.601   2.275   6.682  1.3479 -0.0651  0.6780
 9124TIP3    H248864   0.707   2.370   6.630  0.0217  1.3418  0.4833
 9125TIP3   OH248865   4.504   6.007  15.000 -0.2846  0.1177 -0.4576
 9125TIP3    H148866   4.553   5.972  15.074  0.1952 -0.3849 -1.0092
 9125TIP3    H248867   4.571   6.035  14.938 -0.6883 -0.7782 -1.3114
 9126TIP3   OH248868   6.567   1.882   2.071  0.1982  0.0146  0.4963
 9126TIP3    H148869   6.492   1.866   2.128  0.8120 -0.1969  1.2668
 9126TIP3    H248870   6.576   1.802   2.019 -0.3478  0.1972  0.1183
 9127TIP3   OH248871   5.755   3.418   5.316  0.7728 -0.1393 -0.3040
 9127TIP3    H148872   5.780   3.417   5.408  0.5398  1.1929 -0.2010
 9127TIP3    H248873   5.662   3.398   5.316  0.9245 -0.8588 -0.3179
 9128TIP3   OH248874   1.244   1.830  11.350 -0.1893  0.7454 -0.7416
 9128TIP3    H148875   1.266   1.846  11.258  0.5498  0.1961 -0.6750
 9128TIP3    H248876   1.312   1.769  11.380 -1.7473 -0.9236 -0.4665
 9129TIP3   OH248877   2.808   2.726  15.100  0.1001 -0.9979 -0.4221
 9129TIP3    H148878   2.740   2.721  15.168 -0.3116 -0.0814 -0.7416
 9129TIP3    H248879   2.821   2.636  15.073 -2.3966 -1.0757 -1.6887
 9130TIP3   OH248880   1.014   1.415  11.833 -0.1118 -0.1730 -0.4334
 9130TIP3    H148881   1.043   1.462  11.754  1.1097  4.9427  2.6122
 9130TIP3    H248882   1.092   1.368  11.862  0.6666  1.1065 -0.3436
 9131TIP3   OH248883   6.272   4.142  13.332  0.1956  0.0288  0.1603
 9131TIP3    H148884   6.321   4.216  13.367 -0.7638  1.4769 -1.3821
 9131TIP3    H248885   6.282   4.149  13.237 -0.9266 -1.0938 -0.0686
 9132TIP3   OH248886   5.398   0.437   0.202 -0.1546 -0.0957 -0.0295
 9132TIP3    H148887   5.445   0.478   0.129 -0.1430  0.3842  0.2393
 9132TIP3    H248888   5.306   0.457   0.186 -0.2073 -0.4885 -0.2190
 9133TIP3   OH248889   4.446   4.647  15.698  0.3394 -0.2375 -0.0528
 9133TIP3    H148890   4.519   4.660  15.759  0.5081  0.1144 -0.3284
 9133TIP3    H248891   4.473   4.693  15.619 -0.2956  0.1112 -0.0707
 9134TIP3   OH248892   6.258   0.513  15.680 -0.3417 -0.2292  0.3274
 9134TIP3    H148893   6.213   0.462  15.612 -1.3212  0.1964  0.6363
 9134TIP3    H248894   6.214   0.598  15.679 -0.8106 -0.4196  1.9204
 9135TIP3   OH248895   6.800   6.736   3.606 -0.4649  0.3232  0.0822
 9135TIP3    H148896   6.847   6.809   3.565 -1.9108  1.8074  0.9708
 9135TIP3    H248897   6.854   6.659   3.585  0.1845  1.3417 -2.4014
 9136TIP3   OH248898   0.352   2.451   6.584  0.8381  0.9752 -0.0816
 9136TIP3    H148899   0.432   2.404   6.611  0.1979  1.3350  2.7319
 9136TIP3    H248900   0.317   2.398   6.512  1.6451 -1.3251  1.0946
 9137TIP3   OH248901   1.118   3.694   0.468 -0.1324  0.9167 -0.7538
 9137TIP3    H148902   1.045   3.684   0.407  0.5436 -0.8328 -1.3306
 9137TIP3    H248903   1.084   3.751   0.536 -2.0146  0.2252 -1.0492
 9138TIP3   OH248904   6.058   2.295  16.045 -0.0822  0.4268  0.3380
 9138TIP3    H148905   6.017   2.226  15.993 -0.2721  0.4160  0.5031
 9138TIP3    H248906   6.152   2.284  16.030 -0.1515  0.7190 -0.3868
 9139TIP3   OH248907   1.137   2.514  10.681  0.0547 -1.0288  0.5216
 9139TIP3    H148908   1.095   2.448  10.624  0.5797 -0.1703 -0.9146
 9139TIP3    H248909   1.216   2.472  10.712  0.5135 -1.0284 -0.5864
 9140TIP3   OH248910   4.067   2.218   4.374  0.3511 -0.7899  0.6457
 9140TIP3    H148911   4.017   2.273   4.313  0.9115 -0.6145  0.3354
 9140TIP3    H248912   4.045   2.252   4.460  1.9062  1.0311  0.4096
 9141TIP3   OH248913   2.826   1.741   5.457  0.1078  0.1735 -0.4990
 9141TIP3    H148914   2.833   1.651   5.424 -0.0560  0.7689 -2.2941
 9141TIP3    H248915   2.856   1.736   5.547 -0.2634 -1.7522 -0.4361
 9142TIP3   OH248916   1.393   3.924  15.058  0.2707 -0.4815  0.1568
 9142TIP3    H148917   1.394   3.834  15.090  0.5769 -0.7700 -0.6293
 9142TIP3    H248918   1.324   3.924  14.992 -1.1367  0.3884  1.5632
 9143TIP3   OH248919   3.964   6.623  15.645 -0.3131  0.3621  0.8098
 9143TIP3    H148920   3.992   6.634  15.554  1.1932  1.0612  1.3365
 9143TIP3    H248921   3.952   6.528  15.654 -0.3740  0.2685 -0.0765
 9144TIP3   OH248922   3.016   1.681  16.491  0.0051  0.0772  0.2496
 9144TIP3    H148923   2.929   1.643  16.476  0.3124 -0.4596 -0.1980
 9144TIP3    H248924   3.069   1.608  16.522 -0.4653  1.0089  3.6507
 9145TIP3   OH248925   2.378   6.732  11.657  1.0828  0.1319 -0.5484
 9145TIP3    H148926   2.391   6.801  11.722 -0.8120 -1.0791  1.2655
 9145TIP3    H248927   2.284   6.730  11.642  0.9760 -2.3716 -0.0826
 9146TIP3   OH248928   4.512   1.552   3.316 -0.1395  0.7279  0.2641
 9146TIP3    H148929   4.503   1.529   3.224 -1.3922  1.5010  0.1729
 9146TIP3    H248930   4.422   1.565   3.347  0.2391  0.2617  1.6587
 9147TIP3   OH248931   2.691   2.530  12.954  0.5108 -0.0295  0.3565
 9147TIP3    H148932   2.767   2.478  12.928 -0.3924 -1.4570  0.4810
 9147TIP3    H248933   2.728   2.602  13.006  1.8531 -0.1139 -0.4404
 9148TIP3   OH248934   6.068   2.654  10.908  0.2067  0.5048  0.7867
 9148TIP3    H148935   6.089   2.561  10.916  0.2036  0.4974  0.7100
 9148TIP3    H248936   5.996   2.657  10.845 -2.7121  0.1818  3.8156
 9149TIP3   OH248937   6.583   6.801   2.412 -0.0457 -0.1197 -0.2544
 9149TIP3    H148938   6.502   6.797   2.362 -1.7549  1.3220  2.1893
 9149TIP3    H248939   6.596   6.712   2.444 -0.6882 -0.3446 -0.6031
 9150TIP3   OH248940   6.125   4.542  13.048  0.7752  0.4617 -0.2427
 9150TIP3    H148941   6.216   4.564  13.066  0.6995  2.4214 -1.8640
 9150TIP3    H248942   6.080   4.555  13.132  1.9687 -0.6510  0.6032
 9151TIP3   OH248943   3.777   2.562   6.014 -0.0383 -0.1308 -0.6679
 9151TIP3    H148944   3.765   2.486   6.071  0.4268  0.6487  0.5019
 9151TIP3    H248945   3.688   2.589   5.991 -0.2442 -0.1717  0.0777
 9152TIP3   OH248946   5.027   5.427  13.172 -0.0683  0.0765  0.2449
 9152TIP3    H148947   5.101   5.471  13.129 -0.6538  2.5430  1.5749
 9152TIP3    H248948   4.951   5.481  13.150 -0.8498 -0.2625  1.9749
 9153TIP3   OH248949   2.873   3.040  13.667 -0.4683  0.2809 -0.2977
 9153TIP3    H148950   2.854   3.100  13.595  0.0282  1.6906  0.6915
 9153TIP3    H248951   2.927   3.091  13.728  1.8406 -1.8403 -0.3958
 9154TIP3   OH248952   1.891   2.120  14.628  0.2803  0.3406 -0.5519
 9154TIP3    H148953   1.923   2.205  14.658  3.6050 -1.0519  0.2698
 9154TIP3    H248954   1.863   2.075  14.708  0.0117  0.0770 -0.7905
 9155TIP3   OH248955   0.359   4.383  10.808 -0.7257 -0.6098 -0.5654
 9155TIP3    H148956   0.277   4.432  10.813 -1.3199 -1.6041 -0.3255
 9155TIP3    H248957   0.424   4.440  10.851 -1.3656  0.0125 -0.4077
 9156TIP3   OH248958   0.219   3.677   1.301 -0.1124 -0.0495  0.3414
 9156TIP3    H148959   0.220   3.770   1.327  0.3457 -0.2608  1.1031
 9156TIP3    H248960   0.302   3.642   1.335  0.0974 -0.5524 -0.6503
 9157TIP3   OH248961   5.520   6.492   1.655  0.2743 -0.2273  0.1025
 9157TIP3    H148962   5.536   6.507   1.748  1.8079  0.6079 -0.2657
 9157TIP3    H248963   5.524   6.578   1.615 -2.0944 -0.3526 -0.5503
 9158TIP3   OH248964   2.906   6.361   3.428  0.3634  0.7844 -0.2638
 9158TIP3    H148965   2.887   6.440   3.479  1.8247  1.2407 -0.3761
 9158TIP3    H248966   2.845   6.295   3.461  0.2729  1.4929  1.0208
 9159TIP3   OH248967   3.520   5.316   5.124  0.3950 -0.1222 -0.6222
 9159TIP3    H148968   3.589   5.298   5.189 -1.6129 -2.0616  1.1253
 9159TIP3    H248969   3.542   5.260   5.050  1.5297  0.4551 -0.7418
 9160TIP3   OH248970   3.386   2.043   5.655 -0.5401  0.7735 -0.3825
 9160TIP3    H148971   3.370   2.136   5.667 -1.9054  0.7373 -1.6734
 9160TIP3    H248972   3.476   2.030   5.685  0.2006  2.7712 -1.5374
 9161TIP3   OH248973   4.554   0.934   4.419  0.1563  0.9425 -0.0411
 9161TIP3    H148974   4.467   0.895   4.427  1.5645 -3.1865 -1.6647
 9161TIP3    H248975   4.580   0.956   4.508 -2.0142  1.0274  0.6076
 9162TIP3   OH248976   5.578   6.435   2.471 -0.6889  0.6090 -0.6340
 9162TIP3    H148977   5.505   6.423   2.532 -1.2692  0.5131 -1.3356
 9162TIP3    H248978   5.623   6.351   2.470 -0.8492  0.5228 -0.5615
 9163TIP3   OH248979   5.085   0.110   3.466  0.3873 -0.1534  0.0908
 9163TIP3    H148980   5.127   0.063   3.394 -0.6463  0.4211 -0.9242
 9163TIP3    H248981   4.998   0.070   3.472 -0.4952  1.5512 -0.7624
 9164TIP3   OH248982   6.490   0.550   1.911  0.0127 -0.2415 -0.3658
 9164TIP3    H148983   6.585   0.558   1.918  0.0589 -1.3169  0.5474
 9164TIP3    H248984   6.476   0.501   1.830  0.1295  1.3398 -1.3836
 9165TIP3   OH248985   4.878   2.982   1.209  0.3701 -0.0419 -0.4356
 9165TIP3    H148986   4.920   3.052   1.257  1.4500 -0.6285 -0.5064
 9165TIP3    H248987   4.796   3.021   1.177  2.1008  2.0294 -2.7184
 9166TIP3   OH248988   3.028   5.141  12.303  0.7370  0.0190 -0.0246
 9166TIP3    H148989   2.933   5.141  12.301  0.7387 -0.7507 -0.8518
 9166TIP3    H248990   3.054   5.135  12.211  1.5299 -2.3033  0.2890
 9167TIP3   OH248991   3.129   5.959  16.639 -0.1497 -0.4973  0.3525
 9167TIP3    H148992   3.164   5.875  16.668 -0.0434 -0.5186  0.1654
 9167TIP3    H248993   3.104   6.004  16.720  2.3850  0.4547  0.6912
 9168TIP3   OH248994   1.720   6.179  16.022  0.1721 -0.3426  0.1929
 9168TIP3    H148995   1.759   6.233  15.954  0.1488 -0.4114  0.1241
 9168TIP3    H248996   1.636   6.150  15.985 -0.4194  0.6281  0.7273
 9169TIP3   OH248997   4.172   6.104   5.769 -0.3693  0.3806 -0.3883
 9169TIP3    H148998   4.106   6.156   5.816 -1.0653 -1.3983  0.7170
 9169TIP3    H248999   4.133   6.091   5.682 -0.6299  0.8650 -0.3534
 9170TIP3   OH249000   0.546   5.295   0.585 -0.3896  0.4000  0.2684
 9170TIP3    H149001   0.563   5.368   0.525  0.0666  0.4451  0.4497
 9170TIP3    H249002   0.491   5.334   0.653  0.3704  0.7484  0.7034
 9171TIP3   OH249003   2.227   5.181   0.074  0.0584 -0.3688  0.0110
 9171TIP3    H149004   2.227   5.103   0.019  0.5824 -0.7390  0.5259
 9171TIP3    H249005   2.318   5.192   0.100 -0.4604 -1.5598  2.6711
 9172TIP3   OH249006   3.778   0.705   4.476  0.3524 -0.1671 -0.1098
 9172TIP3    H149007   3.707   0.683   4.537  1.4214 -0.6835  0.9949
 9172TIP3    H249008   3.743   0.682   4.390  0.0489 -2.8043  0.6230
 9173TIP3   OH249009   3.832   0.395  16.946 -0.4847  0.0007  0.0910
 9173TIP3    H149010   3.834   0.487  16.919  1.2702 -0.0721 -0.1765
 9173TIP3    H249011   3.924   0.374  16.964 -0.9873 -1.4076  1.1918
 9174TIP3   OH249012   2.112   5.574   4.321  0.0975  0.1081  0.5633
 9174TIP3    H149013   2.109   5.656   4.371 -1.2909  0.8174 -0.6167
 9174TIP3    H249014   2.206   5.558   4.308  0.3997  1.4468  0.9152
 9175TIP3   OH249015   3.113   3.213  14.078 -0.0478  0.0014 -0.1274
 9175TIP3    H149016   3.063   3.220  14.159 -0.6996  0.8006 -0.5865
 9175TIP3    H249017   3.146   3.301  14.062 -0.6197  0.0481 -1.1604
 9176TIP3   OH249018   1.917   0.886  14.660 -0.0220  0.1349 -0.0552
 9176TIP3    H149019   1.974   0.809  14.655 -0.9044 -0.4920 -0.7286
 9176TIP3    H249020   1.968   0.950  14.710  1.0768 -0.5738 -0.2314
 9177TIP3   OH249021   4.179   6.020  13.011  0.6808  0.1300  0.2148
 9177TIP3    H149022   4.256   6.077  13.006  1.9421 -1.4513  0.7427
 9177TIP3    H249023   4.140   6.041  13.096 -0.7356  2.3780 -0.8776
 9178TIP3   OH249024   2.019   5.603  11.716  0.2059 -0.1008  0.0225
 9178TIP3    H149025   2.114   5.601  11.709  0.2855  1.1796  0.4334
 9178TIP3    H249026   1.993   5.511  11.724  1.4749 -0.4080  0.8413
 9179TIP3   OH249027   3.989   5.195  11.511 -0.0222 -0.5780 -0.1271
 9179TIP3    H149028   4.054   5.170  11.445 -1.5452 -3.6231 -0.6397
 9179TIP3    H249029   3.915   5.228  11.462  0.3227  1.0015  0.3537
 9180TIP3   OH249030   1.243   4.062   4.835 -0.3490  0.1971 -0.3385
 9180TIP3    H149031   1.321   4.078   4.889 -0.8693  0.7936  0.2565
 9180TIP3    H249032   1.269   3.992   4.775  1.0899  1.3329 -1.0962
 9181TIP3   OH249033   1.231   3.342   6.762 -0.2205  0.6494  0.4135
 9181TIP3    H149034   1.263   3.427   6.730 -0.1624  0.7726  0.7925
 9181TIP3    H249035   1.173   3.311   6.693  1.2402  0.0984 -0.6224
 9182TIP3   OH249036   5.723   2.638  14.061  0.2774  0.0927 -0.7251
 9182TIP3    H149037   5.782   2.677  13.996  1.0254 -0.5549 -0.4469
 9182TIP3    H249038   5.676   2.571  14.013 -0.3314  0.6948 -0.9786
 9183TIP3   OH249039   2.450   2.862   5.295 -0.6843  0.4424 -0.0340
 9183TIP3    H149040   2.359   2.879   5.316 -0.6500 -0.0426  0.5280
 9183TIP3    H249041   2.448   2.819   5.210 -0.9562  0.7163 -0.1647
 9184TIP3   OH249042   4.495   3.280  11.269 -0.0611 -0.2579  0.3240
 9184TIP3    H149043   4.441   3.264  11.192 -0.3152  0.0085  0.4436
 9184TIP3    H249044   4.569   3.221  11.259 -0.1467 -0.3027 -0.0703
 9185TIP3   OH249045   3.892   2.769   3.466  0.1134  0.5876 -0.2275
 9185TIP3    H149046   3.888   2.743   3.374 -1.7480 -2.5690  0.5742
 9185TIP3    H249047   3.835   2.846   3.472  0.7329  1.1985 -1.7612
 9186TIP3   OH249048   3.387   2.934  12.449 -0.2100 -0.4286  0.5443
 9186TIP3    H149049   3.376   2.904  12.359 -1.6316  2.5793 -0.4130
 9186TIP3    H249050   3.478   2.963  12.454 -0.0935 -0.7137  0.1201
 9187TIP3   OH249051   5.841   5.618   0.824 -0.2172 -0.1793 -0.5824
 9187TIP3    H149052   5.840   5.652   0.735 -1.3528  0.0725 -0.4814
 9187TIP3    H249053   5.809   5.690   0.879 -0.7558 -0.7476 -0.1336
 9188TIP3   OH249054   2.594   0.877   3.833  0.4174  0.5812  0.9472
 9188TIP3    H149055   2.575   0.963   3.870  0.6406 -0.1137  2.7751
 9188TIP3    H249056   2.655   0.837   3.895  1.4671 -0.3519 -0.6095
 9189TIP3   OH249057   5.048   3.170   5.756 -0.0985 -0.3083 -0.3237
 9189TIP3    H149058   4.993   3.119   5.696  0.6324 -0.7827 -0.6001
 9189TIP3    H249059   5.040   3.125   5.840 -0.8028  0.1225 -0.1517
 9190TIP3   OH249060   3.965   1.808   5.628 -0.0956 -0.0417  0.0829
 9190TIP3    H149061   3.985   1.853   5.710 -0.8623  0.8254 -0.1806
 9190TIP3    H249062   4.050   1.798   5.585  0.1051  1.2273  0.1338
 9191TIP3   OH249063   4.952   4.025   3.869  0.5496 -0.2266 -0.7785
 9191TIP3    H149064   4.922   4.115   3.873 -1.5240 -0.8942 -0.2374
 9191TIP3    H249065   5.028   4.022   3.927 -1.5950  0.3903  2.2963
 9192TIP3   OH249066   3.839   4.752   5.430 -0.1691 -0.5383 -0.5248
 9192TIP3    H149067   3.755   4.727   5.390 -0.6441 -0.4803  0.4099
 9192TIP3    H249068   3.819   4.764   5.522  0.6774  0.4135 -0.4464
 9193TIP3   OH249069   1.466   5.616  13.019  0.2642  0.6350 -0.8505
 9193TIP3    H149070   1.535   5.674  12.987 -0.2721  1.3790 -0.6634
 9193TIP3    H249071   1.445   5.560  12.944  0.3467  1.0942 -1.2187
 9194TIP3   OH249072   4.449   0.148   5.669  0.0667 -0.3905  0.2967
 9194TIP3    H149073   4.443   0.184   5.580  1.8622 -1.8587 -0.4888
 9194TIP3    H249074   4.475   0.057   5.656 -1.1758 -1.0970  2.3146
 9195TIP3   OH249075   5.669   1.858  15.199 -0.0839  0.6998 -0.6271
 9195TIP3    H149076   5.604   1.794  15.168 -2.4635  2.6911 -0.0731
 9195TIP3    H249077   5.681   1.837  15.291 -0.6466  0.8831 -0.5107
 9196TIP3   OH249078   5.756   6.332  13.380 -0.3651 -0.0926  0.1772
 9196TIP3    H149079   5.671   6.370  13.357 -0.3233 -1.0633 -1.8214
 9196TIP3    H249080   5.745   6.238  13.364  0.7852 -0.3733  0.9063
 9197TIP3   OH249081   3.589   3.848   1.343 -0.3556  0.1227 -0.1186
 9197TIP3    H149082   3.614   3.779   1.404 -0.1973  2.8282  3.1835
 9197TIP3    H249083   3.670   3.873   1.300 -0.2835 -1.1323 -0.7703
 9198TIP3   OH249084   2.917   5.524  13.886  0.5868 -0.7995 -0.3780
 9198TIP3    H149085   2.905   5.511  13.980  0.4897  2.2962  0.1289
 9198TIP3    H249086   2.830   5.509  13.849 -0.4232  1.8175  0.6459
 9199TIP3   OH249087   3.046   1.704  15.158 -0.2948 -0.0242  0.1600
 9199TIP3    H149088   3.012   1.775  15.104 -0.0982  0.4181  0.6082
 9199TIP3    H249089   2.970   1.670  15.205 -0.4794 -0.4578 -0.4386
 9200TIP3   OH249090   3.275   5.939   0.583 -0.2676  0.5528  0.6175
 9200TIP3    H149091   3.186   5.910   0.565 -0.0046  0.4597 -0.6423
 9200TIP3    H249092   3.281   6.026   0.542  0.1607  0.6392  0.8539
 9201TIP3   OH249093   1.390   4.955  13.682 -0.1744  0.0345  0.3727
 9201TIP3    H149094   1.450   5.022  13.650 -0.8892  0.7495  0.5047
 9201TIP3    H249095   1.319   5.004  13.723 -1.6741 -0.7259 -1.1876
 9202TIP3   OH249096   6.092   0.243   5.851 -0.6594 -0.2218 -0.6637
 9202TIP3    H149097   6.175   0.233   5.804 -0.3654  0.0595 -0.2125
 9202TIP3    H249098   6.033   0.285   5.788 -0.6053 -0.8483 -1.1429
 9203TIP3   OH249099   3.122   0.990  16.343  0.4833 -0.2048 -0.3105
 9203TIP3    H149100   3.171   0.924  16.295  0.1571 -0.5606 -0.1650
 9203TIP3    H249101   3.170   1.072  16.329  2.3168 -0.8933  1.5491
 9204TIP3   OH249102   1.435   0.148  10.339  0.0693  0.0602 -0.4305
 9204TIP3    H149103   1.454   0.055  10.324  1.7424  0.0925  1.2381
 9204TIP3    H249104   1.358   0.148  10.396  0.8516 -0.3796  0.6627
 9205TIP3   OH249105   0.573   5.401   4.108  0.2962 -0.0570 -0.7233
 9205TIP3    H149106   0.485   5.390   4.070 -0.4021  0.6828  0.6205
 9205TIP3    H249107   0.627   5.428   4.033 -0.7754  0.1722 -1.4505
 9206TIP3   OH249108   0.878   0.846   3.576 -0.4599 -0.2882 -0.2052
 9206TIP3    H149109   0.869   0.939   3.596 -1.7363 -0.4311 -0.0168
 9206TIP3    H249110   0.973   0.832   3.567  0.1068  0.3229  3.1962
 9207TIP3   OH249111   4.649   4.451   4.852 -0.3721  0.5215  0.1217
 9207TIP3    H149112   4.732   4.493   4.875  0.6365 -1.0616 -0.4478
 9207TIP3    H249113   4.639   4.468   4.758 -0.2591  0.0006  0.0137
 9208TIP3   OH249114   0.840   4.346  16.686 -0.4149  0.3016  0.9698
 9208TIP3    H149115   0.749   4.357  16.713 -0.0587  0.7632  2.0566
 9208TIP3    H249116   0.866   4.262  16.724 -0.9512 -0.8583 -1.0605
 9209TIP3   OH249117   6.300   1.657   3.845 -0.7334 -0.0178 -0.2719
 9209TIP3    H149118   6.271   1.569   3.821 -1.4503  0.1419 -0.0138
 9209TIP3    H249119   6.219   1.706   3.861 -0.3248  0.1396  1.5513
 9210TIP3   OH249120   6.302   0.643  16.628 -0.0588  0.1765  0.3882
 9210TIP3    H149121   6.269   0.692  16.704 -1.3133 -1.1096  0.7006
 9210TIP3    H249122   6.310   0.709  16.559  0.1182  1.1752  1.3381
 9211TIP3   OH249123   3.964   4.501  17.151 -0.6059 -0.4497 -0.1122
 9211TIP3    H149124   3.998   4.587  17.176 -1.5541  0.7321 -2.5721
 9211TIP3    H249125   3.869   4.512  17.151 -0.7704 -1.7342  0.2341
 9212TIP3   OH249126   3.141   0.591  17.155  0.2086  0.0553  0.2982
 9212TIP3    H149127   3.050   0.620  17.152 -0.2231 -1.1397  1.0441
 9212TIP3    H249128   3.193   0.670  17.138 -0.9456  0.8882  0.5881
 9213TIP3   OH249129   1.203   5.577  14.323 -0.1535 -0.3423  0.2340
 9213TIP3    H149130   1.202   5.641  14.394 -0.8227 -1.6068  1.4034
 9213TIP3    H249131   1.291   5.583  14.287 -0.1455  1.0874  0.4404
 9214TIP3   OH249132   1.851   3.750   6.135 -0.2574 -0.3377 -0.2110
 9214TIP3    H149133   1.821   3.820   6.192 -1.9148 -0.1608 -1.2265
 9214TIP3    H249134   1.914   3.701   6.188  1.7085  2.4216  0.2127
 9215TIP3   OH249135   2.513   5.070  14.684  0.0093  0.2317  0.9508
 9215TIP3    H149136   2.606   5.090  14.692  0.6507 -1.8159 -0.6982
 9215TIP3    H249137   2.509   4.991  14.631 -2.7619  1.1082 -0.3312
 9216TIP3   OH249138   4.713   4.759   1.607 -0.2243  0.1995 -0.2457
 9216TIP3    H149139   4.735   4.852   1.603 -0.1058  0.3164  1.8577
 9216TIP3    H249140   4.766   4.725   1.679 -1.6422 -1.0694  0.2670
 9217TIP3   OH249141   1.497   0.316  14.507  0.3731 -0.7241 -0.5811
 9217TIP3    H149142   1.476   0.247  14.570  0.9261 -0.6775 -0.3329
 9217TIP3    H249143   1.583   0.291  14.473  1.2976  0.6041  0.6231
 9218TIP3   OH249144   5.340   2.996  12.070 -0.1372 -0.1111 -0.4919
 9218TIP3    H149145   5.383   3.079  12.087 -0.1415 -0.1473 -0.3047
 9218TIP3    H249146   5.334   2.954  12.155  1.1504 -0.9315 -0.7738
 9219TIP3   OH249147   5.782   0.237  14.253  0.3526  0.4014  0.3068
 9219TIP3    H149148   5.764   0.230  14.159  0.8227  2.0832  0.0665
 9219TIP3    H249149   5.875   0.261  14.257 -0.0852  2.0846  1.1179
 9220TIP3   OH249150   1.677   2.779   0.703 -0.4786  0.4664 -0.4239
 9220TIP3    H149151   1.635   2.826   0.631  0.4099 -0.6410 -1.7103
 9220TIP3    H249152   1.764   2.756   0.668  0.0887  0.1702  1.1187
 9221TIP3   OH249153   1.553   2.187  12.404  0.2258  0.1259 -0.3392
 9221TIP3    H149154   1.483   2.223  12.459  0.4709 -1.7637  1.3501
 9221TIP3    H249155   1.627   2.245  12.417 -0.4103  1.0097 -0.5492
 9222TIP3   OH249156   5.543   5.467  14.375  0.2350 -0.0155  0.4176
 9222TIP3    H149157   5.459   5.496  14.340  0.8840  0.0932 -1.1379
 9222TIP3    H249158   5.543   5.372  14.362  0.5868  0.0574 -0.1463
 9223TIP3   OH249159   0.563   2.683  13.246 -0.0862  0.4144 -0.7654
 9223TIP3    H149160   0.551   2.770  13.208 -0.5305 -0.1752 -2.0367
 9223TIP3    H249161   0.500   2.681  13.319  0.6406  1.4981 -0.0730
 9224TIP3   OH249162   2.675   6.122   5.501 -0.6575  0.4744 -0.6339
 9224TIP3    H149163   2.614   6.049   5.510 -0.8368  0.6202 -0.6690
 9224TIP3    H249164   2.631   6.183   5.442 -0.6500  0.7632 -0.3430
 9225TIP3   OH249165   0.936   5.198  12.714 -0.2577  0.7907 -0.6858
 9225TIP3    H149166   0.863   5.248  12.678 -0.8229  1.4972  1.3449
 9225TIP3    H249167   1.014   5.249  12.691 -0.4683  0.5890 -1.9248
 9226TIP3   OH249168   1.822   1.599  13.396  0.4811  0.0409 -0.1233
 9226TIP3    H149169   1.743   1.568  13.440  0.7708  0.0385  0.4040
 9226TIP3    H249170   1.804   1.691  13.375  0.4723  0.1462  0.3291
 9227TIP3   OH249171   2.806   2.917  14.522 -0.2653 -0.2380  0.6574
 9227TIP3    H149172   2.778   2.903  14.432  0.5755 -0.6508  0.4583
 9227TIP3    H249173   2.732   2.885  14.575  0.2416 -2.3703  0.1593
 9228TIP3   OH249174   3.860   0.380   3.168  0.6495 -0.5322  0.1604
 9228TIP3    H149175   3.858   0.435   3.091  0.3228 -3.5646 -2.1834
 9228TIP3    H249176   3.954   0.368   3.187  0.7238  1.0028  0.9344
 9229TIP3   OH249177   6.081   0.719   4.477 -0.1903 -0.1416 -0.2737
 9229TIP3    H149178   6.150   0.753   4.534 -1.6786 -0.1697  1.6742
 9229TIP3    H249179   6.013   0.689   4.538 -2.0825  0.2200 -2.0948
 9230TIP3   OH249180   6.513   1.237  12.223 -0.1680 -0.7342  0.4153
 9230TIP3    H149181   6.460   1.159  12.240  0.9572 -1.3584  1.1015
 9230TIP3    H249182   6.501   1.292  12.301  1.1283 -1.4149  1.1094
 9231TIP3   OH249183   0.364   6.343  11.618 -0.5250 -0.1297  0.1905
 9231TIP3    H149184   0.294   6.304  11.670 -1.2246 -1.1907 -1.4461
 9231TIP3    H249185   0.444   6.327  11.667 -1.2472 -0.2449  1.3614
 9232TIP3   OH249186   1.850   6.311   2.848  0.2093  0.3051 -0.4146
 9232TIP3    H149187   1.889   6.394   2.875  2.6145 -0.6397 -0.7750
 9232TIP3    H249188   1.793   6.334   2.775 -1.3836  1.9762  1.2271
 9233TIP3   OH249189   1.008   2.196   4.974 -0.0097 -0.2158 -0.0798
 9233TIP3    H149190   0.990   2.131   4.906 -0.3181 -1.7059  1.3656
 9233TIP3    H249191   0.933   2.190   5.033 -0.3189  1.8795 -0.1756
 9234TIP3   OH249192   0.030   4.401  14.866  0.1265 -0.4548 -0.2104
 9234TIP3    H149193   0.032   4.337  14.795  2.2778 -1.2466  0.4795
 9234TIP3    H249194   0.058   4.353  14.943 -1.4391  0.5686  1.0580
 9235TIP3   OH249195   5.303   2.958  15.708  0.1899 -0.1675 -0.2564
 9235TIP3    H149196   5.272   2.912  15.786 -0.7436  0.3993 -0.2800
 9235TIP3    H249197   5.235   2.942  15.642  0.4152  0.3049 -0.6069
 9236TIP3   OH249198   2.719   2.180  16.831  0.0499 -0.3894 -0.0795
 9236TIP3    H149199   2.765   2.097  16.834 -1.3619 -1.3299 -2.0980
 9236TIP3    H249200   2.635   2.163  16.873 -0.3912 -0.1272 -0.8175
 9237TIP3   OH249201   3.007   4.054   5.907  0.5234 -0.0071 -0.1035
 9237TIP3    H149202   3.023   3.960   5.905  0.0283 -0.1115 -2.4279
 9237TIP3    H249203   3.012   4.078   6.000  2.3132 -2.0087  0.3849
 9238TIP3   OH249204   4.670   3.733   4.521 -0.2822  0.0572  0.6658
 9238TIP3    H149205   4.666   3.741   4.426  0.1592  1.6900  0.7512
 9238TIP3    H249206   4.597   3.785   4.553 -0.1102 -0.0385  1.2280
 9239TIP3   OH249207   6.241   2.078   3.710  0.4264 -0.6827 -0.1024
 9239TIP3    H149208   6.227   1.989   3.677  1.0416 -0.6429 -0.4979
 9239TIP3    H249209   6.327   2.074   3.752  0.2177 -0.4040  0.3607
 9240TIP3   OH249210   4.046   3.722   3.875 -0.3714  0.0622 -0.0223
 9240TIP3    H149211   4.105   3.666   3.926  0.4167 -0.2244 -1.2030
 9240TIP3    H249212   3.962   3.717   3.920 -0.7647 -3.2297 -0.8479
 9241TIP3   OH249213   4.861   3.389  17.223  0.1443 -0.6552 -0.1602
 9241TIP3    H149214   4.795   3.411  17.289  0.2440 -0.2982 -0.1767
 9241TIP3    H249215   4.892   3.302  17.247  1.1605  0.0081  1.0779
 9242TIP3   OH249216   2.022   5.260  16.183 -0.1103 -0.0066  0.2641
 9242TIP3    H149217   2.045   5.338  16.232  1.7249  0.1287 -0.7359
 9242TIP3    H249218   2.086   5.255  16.113  0.0976 -2.6214  0.5164
 9243TIP3   OH249219   3.605   2.366   4.171 -0.2107  0.3949 -0.1423
 9243TIP3    H149220   3.650   2.451   4.170 -0.2782  0.4310 -1.5311
 9243TIP3    H249221   3.517   2.385   4.140 -0.9060  0.1375  1.5408
 9244TIP3   OH249222   5.276   1.794  15.004 -0.0632  0.7423  0.4488
 9244TIP3    H149223   5.337   1.786  14.931  0.7930 -2.7347  1.3977
 9244TIP3    H249224   5.330   1.781  15.082 -1.7066 -0.6016  1.4161
 9245TIP3   OH249225   2.608   1.003   2.777  0.6416  0.0543 -0.0823
 9245TIP3    H149226   2.661   1.048   2.712 -0.2834  0.0881 -0.8351
 9245TIP3    H249227   2.671   0.953   2.829  1.3621 -0.3797 -1.3205
 9246TIP3   OH249228   0.965   0.687   5.641  0.3229  0.7883 -0.2866
 9246TIP3    H149229   1.032   0.632   5.600  1.5344  2.4187 -0.6107
 9246TIP3    H249230   1.002   0.710   5.726 -0.6427  0.2688  0.2869
 9247TIP3   OH249231   2.804   5.434  12.841 -0.0060 -0.1087 -0.5390
 9247TIP3    H149232   2.812   5.497  12.913 -2.0853  0.1642 -0.5098
 9247TIP3    H249233   2.867   5.365  12.863  0.4276  0.6663  0.7751
 9248TIP3   OH249234   2.809   3.175   2.576 -0.0772  0.3241 -0.1191
 9248TIP3    H149235   2.751   3.249   2.556 -1.8350 -1.3100 -1.5075
 9248TIP3    H249236   2.872   3.173   2.504 -1.2146 -0.5914 -1.1377
 9249TIP3   OH249237   4.063   2.230  14.934 -0.6689  0.5147  0.4169
 9249TIP3    H149238   4.084   2.211  15.026  2.5634 -0.5916 -0.4066
 9249TIP3    H249239   4.015   2.312  14.937  0.9923  1.5357  3.0506
 9250TIP3   OH249240   3.846   6.262  17.240 -0.4296  0.0525 -0.1965
 9250TIP3    H149241   3.900   6.279  17.317 -1.0152 -0.3025  0.2917
 9250TIP3    H249242   3.858   6.169  17.222 -2.1219 -0.4236  0.8935
 9251TIP3   OH249243   2.418   2.555  16.697 -0.1853 -0.8077  0.6626
 9251TIP3    H149244   2.399   2.574  16.788  1.8683 -0.5823  1.1017
 9251TIP3    H249245   2.466   2.473  16.699  1.3455  0.0294 -0.0023
 9252TIP3   OH249246   2.766   2.818   0.317 -0.3469 -0.4209 -0.3282
 9252TIP3    H149247   2.857   2.791   0.331 -0.2320  0.0897 -0.0724
 9252TIP3    H249248   2.770   2.913   0.309 -0.9434 -0.3383  0.3005
 9253TIP3   OH249249   6.789   6.388  17.045  0.5506 -0.0247 -0.3143
 9253TIP3    H149250   6.804   6.408  16.952 -0.9346 -0.5578 -0.7015
 9253TIP3    H249251   6.722   6.320  17.044  1.9443 -1.5168  1.1095
 9254TIP3   OH249252   4.707   1.099   5.243 -0.4644  0.1853 -0.0803
 9254TIP3    H149253   4.621   1.059   5.231  0.0649 -0.8659 -0.4081
 9254TIP3    H249254   4.708   1.125   5.335 -0.8317 -0.5122  0.1281
 9255TIP3   OH249255   6.117   3.489  16.287  0.2121  0.1450  1.0094
 9255TIP3    H149256   6.030   3.450  16.290  0.3927 -0.3830 -0.1411
 9255TIP3    H249257   6.102   3.583  16.300 -0.8007  0.3793 -1.3897
 9256TIP3   OH249258   4.969   5.652  11.450  0.4517 -0.5809  0.0106
 9256TIP3    H149259   4.954   5.634  11.543  0.7762 -0.6860  0.0453
 9256TIP3    H249260   5.044   5.712  11.449  2.2514 -2.6757 -0.2684
 9257TIP3   OH249261   0.268   6.344  15.946 -0.4609  0.3699  0.7037
 9257TIP3    H149262   0.351   6.368  15.906 -0.5117 -0.8442 -0.1762
 9257TIP3    H249263   0.278   6.367  16.038 -0.1570  2.7462  0.1308
 9258TIP3   OH249264   5.937   0.938  11.399 -0.2893  0.1510  0.0707
 9258TIP3    H149265   5.945   0.925  11.493 -0.1723  1.0294  0.1900
 9258TIP3    H249266   6.024   0.917  11.364  0.6753  2.9171  0.5526
 9259TIP3   OH249267   1.793   3.362   4.992 -0.1409 -0.4413 -0.2110
 9259TIP3    H149268   1.706   3.330   4.969  0.4607 -2.2335 -0.1479
 9259TIP3    H249269   1.794   3.363   5.087  0.2851 -1.6022 -0.1890
 9260TIP3   OH249270   4.759   6.153   5.345  0.2216  0.0198  0.1679
 9260TIP3    H149271   4.738   6.236   5.305 -0.5422 -0.9274 -1.4879
 9260TIP3    H249272   4.812   6.107   5.280 -0.4116 -1.2639  0.5206
 9261TIP3   OH249273   0.367   4.587  11.662  0.1687 -0.1152  0.7318
 9261TIP3    H149274   0.272   4.582  11.669  0.0738  0.0786 -0.2512
 9261TIP3    H249275   0.383   4.621  11.574  1.1369  0.7132  1.2045
 9262TIP3   OH249276   1.421   3.330  15.188 -0.0866  0.2384 -0.2771
 9262TIP3    H149277   1.467   3.267  15.244 -0.8623 -0.1621 -0.0770
 9262TIP3    H249278   1.463   3.414  15.207 -0.2812  0.0959  0.8653
 9263TIP3   OH249279   6.001   4.048  12.741 -0.5420 -0.1926  0.1800
 9263TIP3    H149280   6.000   4.128  12.688  0.6466  1.0171  1.8743
 9263TIP3    H249281   6.084   4.051  12.788 -1.6086 -1.0738  2.2600
 9264TIP3   OH249282   0.109   6.101  14.970 -0.1678 -0.3393  0.0620
 9264TIP3    H149283   0.157   6.143  14.899  1.3944 -0.2706  1.1181
 9264TIP3    H249284   0.146   6.013  14.976  1.3574  0.3569  2.1968
 9265TIP3   OH249285   6.328   5.276  15.948  0.1484  0.0729  0.3230
 9265TIP3    H149286   6.418   5.242  15.954 -0.1318 -0.5324  1.4679
 9265TIP3    H249287   6.292   5.263  16.036 -0.7303  1.2699  0.1588
 9266TIP3   OH249288   0.558   4.492  10.983  1.1836  0.8407 -0.5151
 9266TIP3    H149289   0.549   4.467  11.075 -1.2920  0.9178 -0.6670
 9266TIP3    H249290   0.615   4.425  10.946  0.0993 -0.7625  0.5398
 9267TIP3   OH249291   2.581   0.477  14.808 -0.1431 -0.3784  0.2975
 9267TIP3    H149292   2.563   0.456  14.899 -2.2761 -2.6203 -0.5176
 9267TIP3    H249293   2.672   0.452  14.795  1.2161  2.8082  2.4271
 9268TIP3   OH249294   4.497   5.178  14.741  0.0616  0.2914  0.2727
 9268TIP3    H149295   4.487   5.087  14.770  1.3228  0.3297  0.8826
 9268TIP3    H249296   4.428   5.190  14.676  0.2721 -1.3002 -0.2882
 9269TIP3   OH249297   0.229   2.359   2.261 -0.2094 -0.1187 -0.0379
 9269TIP3    H149298   0.235   2.416   2.183 -2.1133 -0.8385 -0.7622
 9269TIP3    H249299   0.261   2.274   2.231  0.6690  0.0131  0.4758
 9270TIP3   OH249300   5.689   1.287   0.053  0.0054 -0.2489 -0.2538
 9270TIP3    H149301   5.631   1.220   0.017 -0.2627 -0.7471  1.0666
 9270TIP3    H249302   5.766   1.286  -0.005 -0.2662 -1.2569 -0.6110
 9271TIP3   OH249303   4.005   0.800  15.246 -0.1207  0.4995  0.0713
 9271TIP3    H149304   4.057   0.830  15.172 -0.0007  1.2476  0.4550
 9271TIP3    H249305   4.029   0.858  15.318 -0.9653  0.4050  0.4428
 9272TIP3   OH249306   2.758   0.348  11.326 -0.4994  0.1810  0.3058
 9272TIP3    H149307   2.764   0.320  11.235 -1.0919  1.0900 -0.0358
 9272TIP3    H249308   2.664   0.349  11.344 -0.3680 -0.4427  1.0859
 9273TIP3   OH249309   3.496   3.647   3.854 -0.1777  1.0201 -0.0998
 9273TIP3    H149310   3.409   3.668   3.888 -0.1216  1.4603 -0.2264
 9273TIP3    H249311   3.482   3.570   3.799 -0.6709  1.7185 -0.9747
 9274TIP3   OH249312   2.778   3.331  13.648 -0.0269  0.6211  0.0023
 9274TIP3    H149313   2.848   3.366  13.703 -0.2252  0.9530  0.0477
 9274TIP3    H249314   2.706   3.314  13.708  0.9433 -2.5003  0.4695
 9275TIP3   OH249315   0.833   2.194  10.881  0.1137  0.1782  0.1318
 9275TIP3    H149316   0.738   2.190  10.895 -0.1093 -1.7852 -1.5438
 9275TIP3    H249317   0.869   2.127  10.939  0.7511  2.0673  2.0723
 9276TIP3   OH249318   0.373   5.008  15.064 -0.2216  0.1583  0.0421
 9276TIP3    H149319   0.373   4.922  15.021  1.3646  0.6341 -0.9870
 9276TIP3    H249320   0.357   4.988  15.157 -0.2382 -1.2174 -0.2382
 9277TIP3   OH249321   6.327   4.738  11.288 -0.0157 -0.1944  0.3229
 9277TIP3    H149322   6.394   4.800  11.259  1.6550 -0.9980  2.2353
 9277TIP3    H249323   6.349   4.656  11.242 -1.2378  0.1639 -0.9530
 9278TIP3   OH249324   4.548   3.945  14.521  0.4050 -0.5323  0.6134
 9278TIP3    H149325   4.539   3.854  14.549 -0.8794 -0.4797  0.4453
 9278TIP3    H249326   4.563   3.940  14.426  2.7081 -0.6292  0.9244
 9279TIP3   OH249327   4.760   4.997  15.550 -0.4199  0.1905 -0.0479
 9279TIP3    H149328   4.846   5.025  15.520 -0.7988  0.6663 -0.7349
 9279TIP3    H249329   4.747   5.044  15.633 -0.0356  0.1442  0.0392
 9280TIP3   OH249330   1.774   2.198  12.138  0.7765 -0.1583 -0.3941
 9280TIP3    H149331   1.792   2.190  12.232 -0.5160  0.3896 -0.0862
 9280TIP3    H249332   1.688   2.238  12.133  0.5780 -0.7143 -1.8291
 9281TIP3   OH249333   6.522   0.829  14.020 -0.2848  0.1845  0.1612
 9281TIP3    H149334   6.485   0.839  13.933 -2.6884  1.8000  1.2381
 9281TIP3    H249335   6.482   0.749  14.055  0.3327 -0.2191 -0.0372
 9282TIP3   OH249336   2.063   3.576   6.187  0.4367  0.2566 -0.6678
 9282TIP3    H149337   2.094   3.592   6.276  2.3552  0.3371 -1.2887
 9282TIP3    H249338   2.139   3.537   6.143 -0.1604  1.0661 -2.5022
 9283TIP3   OH249339   1.081   5.921  11.324  0.7419  0.0525 -0.0419
 9283TIP3    H149340   1.041   5.994  11.276 -1.5291  0.8091  2.7111
 9283TIP3    H249341   1.025   5.846  11.305 -0.2755  0.3946  1.3802
 9284TIP3   OH249342   5.086   3.350  16.132 -0.1867  0.1483 -0.5246
 9284TIP3    H149343   5.007   3.337  16.080  1.0821 -1.8739 -2.0927
 9284TIP3    H249344   5.070   3.431  16.181 -2.8592  0.2322 -1.3927
 9285TIP3   OH249345   5.508   5.209   3.414  0.1761 -0.5865 -0.2961
 9285TIP3    H149346   5.466   5.292   3.391 -0.0125 -1.1516 -2.1997
 9285TIP3    H249347   5.474   5.188   3.501  0.0367  1.1941  0.1177
 9286TIP3   OH249348   2.028   1.429   3.981 -0.2125 -0.2758 -0.1798
 9286TIP3    H149349   2.103   1.377   3.953  0.6087  0.2133  1.0295
 9286TIP3    H249350   2.053   1.519   3.962 -0.0809 -0.0299  1.1038
 9287TIP3   OH249351   5.245   2.952   5.796 -0.4820 -0.2969  0.1312
 9287TIP3    H149352   5.162   2.988   5.766  0.7283  0.6830 -2.2851
 9287TIP3    H249353   5.243   2.861   5.767  0.2030  0.3442 -2.0394
 9288TIP3   OH249354   3.074   6.499  11.364  0.2950  0.0102  0.4540
 9288TIP3    H149355   3.143   6.437  11.386  1.1421  0.1655 -1.5341
 9288TIP3    H249356   3.120   6.581  11.345 -0.7643  1.1811  2.5276
 9289TIP3   OH249357   5.371   3.402   2.807  0.1070 -0.2610 -0.7466
 9289TIP3    H149358   5.342   3.370   2.892  0.5073 -0.2527 -0.6023
 9289TIP3    H249359   5.303   3.464   2.780  0.5081  0.5826  0.0856
 9290TIP3   OH249360   0.141   1.704   1.110  0.0710 -0.2425 -0.7863
 9290TIP3    H149361   0.113   1.703   1.202 -1.5288 -0.0182 -1.2547
 9290TIP3    H249362   0.076   1.651   1.064  1.1600 -0.8053 -1.7239
 9291TIP3   OH249363   6.372   1.233   2.549  0.2020  0.1972 -0.3172
 9291TIP3    H149364   6.303   1.271   2.604  0.4367  3.5562 -2.0837
 9291TIP3    H249365   6.333   1.227   2.462  1.5124  0.2409 -0.9340
 9292TIP3   OH249366   3.726   4.242   3.112  0.2898 -0.9077  0.2870
 9292TIP3    H149367   3.757   4.217   3.025 -1.3862  0.8559 -0.8940
 9292TIP3    H249368   3.799   4.291   3.151  0.4131 -0.1691 -0.8524
 9293TIP3   OH249369   3.976   0.537  15.152  0.4588 -0.0082  0.0582
 9293TIP3    H149370   3.962   0.610  15.213  0.1221  0.5367 -0.6518
 9293TIP3    H249371   4.068   0.546  15.126  0.7428 -0.5476  0.8694
 9294TIP3   OH249372   2.331   4.672  11.097  0.2842  0.2369 -0.1971
 9294TIP3    H149373   2.251   4.621  11.085  0.2740  0.1887  0.0588
 9294TIP3    H249374   2.318   4.716  11.182 -0.3396  1.8115 -1.0570
 9295TIP3   OH249375   1.544   5.174  10.620 -0.0463 -0.7987 -0.3553
 9295TIP3    H149376   1.540   5.079  10.628 -0.9427 -0.6572  1.4172
 9295TIP3    H249377   1.564   5.205  10.708 -2.6104  0.7466 -0.2144
 9296TIP3   OH249378   6.039   3.106   1.398  0.1480  0.0228  0.1183
 9296TIP3    H149379   6.015   3.059   1.478 -1.0806 -0.8230 -0.7129
 9296TIP3    H249380   6.022   3.044   1.327 -0.2740  1.2755 -0.9215
 9297TIP3   OH249381   6.413   4.821   6.013 -0.3006 -0.1839 -0.4371
 9297TIP3    H149382   6.430   4.727   6.012  0.2627 -0.0904 -0.4278
 9297TIP3    H249383   6.481   4.857   6.070 -0.3072  0.2597 -0.6998
 9298TIP3   OH249384   2.470   3.715   4.936 -0.2162 -0.8381 -0.3792
 9298TIP3    H149385   2.483   3.721   5.031 -2.1286  0.0953 -0.1201
 9298TIP3    H249386   2.375   3.725   4.925  0.2195  2.3305 -2.5635
 9299TIP3   OH249387   0.472   1.653  14.987 -0.0672  0.6898 -0.0490
 9299TIP3    H149388   0.386   1.636  14.947  0.1746  2.7831 -1.6157
 9299TIP3    H249389   0.528   1.583  14.952 -0.3181  1.3840 -1.9913
 9300TIP3   OH249390   2.622   4.114   2.869 -0.0534 -0.3147 -0.3693
 9300TIP3    H149391   2.650   4.023   2.856  1.5971  0.3462 -1.7859
 9300TIP3    H249392   2.642   4.157   2.786 -0.9570  1.3308  0.2273
 9301TIP3   OH249393   4.515   6.760   1.003 -0.9718  0.2597  0.0984
 9301TIP3    H149394   4.558   6.771   0.918 -0.5237 -0.8172  0.1795
 9301TIP3    H249395   4.450   6.831   1.005 -0.1161  1.0978 -0.5808
 9302TIP3   OH249396   6.802   3.123   6.505  0.5337  0.2197  0.0278
 9302TIP3    H149397   6.886   3.164   6.484 -0.0738  1.3200 -0.3385
 9302TIP3    H249398   6.745   3.148   6.433 -0.6376  1.1398  1.2271
 9303TIP3   OH249399   3.356   4.080   6.403  0.1290 -0.3261  0.5712
 9303TIP3    H149400   3.270   4.059   6.439  0.0189  0.5490  0.8392
 9303TIP3    H249401   3.351   4.173   6.379  1.2827 -0.0062  1.4585
 9304TIP3   OH249402   4.366   6.129  11.645 -0.2400 -0.4999 -0.4226
 9304TIP3    H149403   4.332   6.060  11.703 -0.5026 -0.3691 -0.4177
 9304TIP3    H249404   4.330   6.108  11.559 -0.6571 -0.1451 -0.3416
 9305TIP3   OH249405   2.850   1.455   5.429 -0.1778 -0.0783  0.0809
 9305TIP3    H149406   2.845   1.366   5.392 -0.8031 -0.3573  0.8039
 9305TIP3    H249407   2.896   1.443   5.512 -1.4262  0.0310  0.8273
 9306TIP3   OH249408   5.515   5.782   4.931 -0.5157 -0.6051  0.7006
 9306TIP3    H149409   5.564   5.700   4.940  0.4765 -0.0811  0.2127
 9306TIP3    H249410   5.559   5.829   4.860 -1.7758 -0.1397  0.1888
 9307TIP3   OH249411   4.115   3.538  15.982  0.2255 -0.2581  0.1930
 9307TIP3    H149412   4.104   3.615  15.926 -0.5449 -0.2388  0.3647
 9307TIP3    H249413   4.077   3.466  15.932 -0.3446 -0.2661  0.6365
 9308TIP3   OH249414   5.598   6.033  11.687  0.3800 -0.2310  0.1679
 9308TIP3    H149415   5.599   6.108  11.628  0.0985  1.3480  2.0513
 9308TIP3    H249416   5.618   6.070  11.773 -2.8572 -1.7155  1.7597
 9309TIP3   OH249417   0.439   0.677   3.949 -0.0562 -0.1515 -0.0370
 9309TIP3    H149418   0.371   0.742   3.932  0.3661  0.4868  0.6833
 9309TIP3    H249419   0.390   0.597   3.971 -0.5995 -0.4415 -2.0535
 9310TIP3   OH249420   0.427   1.035   5.511  0.1549  0.5003 -0.1395
 9310TIP3    H149421   0.491   0.977   5.470 -0.1970 -1.1827  1.5150
 9310TIP3    H249422   0.376   1.070   5.438  0.0935 -1.6584 -1.2273
 9311TIP3   OH249423   5.642   1.932   0.541 -0.0797 -0.6466  0.6193
 9311TIP3    H149424   5.713   1.988   0.512 -1.8197  1.8613  0.9354
 9311TIP3    H249425   5.638   1.863   0.474 -0.8509  2.2436 -2.6437
 9312TIP3   OH249426   3.420   3.090   0.153  0.1701  0.2573 -0.3284
 9312TIP3    H149427   3.408   3.031   0.228  1.1409  0.5176  0.0514
 9312TIP3    H249428   3.461   3.034   0.086  1.1320  0.4873  0.0474
 9313TIP3   OH249429   2.924   5.500   3.526  0.3417 -0.1553 -0.5288
 9313TIP3    H149430   2.868   5.423   3.526  0.0543  0.0236  0.9933
 9313TIP3    H249431   3.001   5.474   3.577  0.5254  0.3748 -0.5231
 9314TIP3   OH249432   4.694   6.232   3.019  0.2523 -1.1101 -0.2962
 9314TIP3    H149433   4.675   6.148   3.062 -2.8835  0.7240  2.4277
 9314TIP3    H249434   4.753   6.277   3.079 -0.7920 -0.1371  0.0461
 9315TIP3   OH249435   4.001   3.111   5.330  0.2588 -0.1502 -0.4096
 9315TIP3    H149436   4.037   3.024   5.347 -0.1798 -0.4409 -0.9498
 9315TIP3    H249437   3.907   3.102   5.347  0.3739  0.5350  0.7417
 9316TIP3   OH249438   1.930   4.775  12.299  0.0912 -0.0595 -0.1189
 9316TIP3    H149439   1.875   4.845  12.262  1.2195  0.6533 -0.5167
 9316TIP3    H249440   1.999   4.822  12.347 -0.0034 -0.9426  0.9283
 9317TIP3   OH249441   3.740   6.156  12.056  0.2591 -0.1325 -0.3464
 9317TIP3    H149442   3.690   6.099  12.115  1.0541 -1.6165 -1.0430
 9317TIP3    H249443   3.826   6.164  12.098  0.0150  0.9444 -0.0327
 9318TIP3   OH249444   0.914   3.033   3.447  0.2520 -0.0296 -0.2687
 9318TIP3    H149445   0.824   3.064   3.455  0.8279  1.5244  0.6477
 9318TIP3    H249446   0.967   3.109   3.469  1.8135 -0.7352 -1.4328
 9319TIP3   OH249447   0.886   5.763   1.918 -0.2114  0.5134 -0.0597
 9319TIP3    H149448   0.967   5.785   1.966 -1.0452  3.3397  0.2381
 9319TIP3    H249449   0.903   5.791   1.828  0.4302 -2.4757 -1.0007
 9320TIP3   OH249450   6.389   3.122  15.479 -0.0239 -0.6934  0.2134
 9320TIP3    H149451   6.347   3.200  15.443 -1.3298 -0.7046  1.6544
 9320TIP3    H249452   6.320   3.056  15.480  0.8989 -1.6980 -0.3753
 9321TIP3   OH249453   1.219   0.324  16.210 -0.3863 -0.5020 -0.0100
 9321TIP3    H149454   1.279   0.396  16.192  0.7151 -1.9985 -2.9077
 9321TIP3    H249455   1.276   0.255  16.246 -0.9860 -0.8148  0.3478
 9322TIP3   OH249456   3.122   5.537   5.072  0.2697  0.0320 -0.3576
 9322TIP3    H149457   3.209   5.509   5.043  0.9680  1.3368  0.3780
 9322TIP3    H249458   3.133   5.555   5.165 -1.1499 -1.0845  0.0528
 9323TIP3   OH249459   5.114   5.766   4.868 -0.3075  0.9372  0.6829
 9323TIP3    H149460   5.142   5.674   4.860  0.0508  1.1230 -0.4057
 9323TIP3    H249461   5.194   5.816   4.854 -0.6296  1.4352  0.6074
 9324TIP3   OH249462   1.373   3.203  15.832  0.8375  0.1250 -0.2905
 9324TIP3    H149463   1.290   3.156  15.836  1.1308 -0.6058 -1.9211
 9324TIP3    H249464   1.433   3.151  15.884  0.3642  0.5362  0.7089
 9325TIP3   OH249465   6.349   5.819  12.912  0.1910 -0.0331  0.5416
 9325TIP3    H149466   6.325   5.783  12.997  0.7941 -3.0665 -0.4413
 9325TIP3    H249467   6.284   5.783  12.852  2.3638 -1.7883 -0.9261
 9326TIP3   OH249468   0.393   0.326  11.852  0.0117 -0.5012 -0.7721
 9326TIP3    H149469   0.332   0.256  11.829 -2.7645  0.2313  3.2939
 9326TIP3    H249470   0.461   0.282  11.903 -0.2640 -0.6020 -0.4876
 9327TIP3   OH249471   6.508   2.976   1.488 -0.8053 -0.2880 -0.0958
 9327TIP3    H149472   6.578   2.914   1.509  0.5063  0.4527 -2.0128
 9327TIP3    H249473   6.553   3.058   1.468 -2.2388  0.2642 -1.2568
 9328TIP3   OH249474   5.066   1.133  11.557 -0.3247  0.3893 -0.1232
 9328TIP3    H149475   5.069   1.068  11.487 -0.2460 -1.0228  1.1129
 9328TIP3    H249476   5.154   1.170  11.560 -0.3481  0.5065 -0.8038
 9329TIP3   OH249477   0.570   3.300  14.523 -0.4898  0.3732  0.6194
 9329TIP3    H149478   0.576   3.291  14.428  2.2825 -1.2438  0.8017
 9329TIP3    H249479   0.559   3.210  14.555 -1.0522  0.8506  1.8374
 9330TIP3   OH249480   3.535   6.383  16.760  0.6207  0.6191  0.7359
 9330TIP3    H149481   3.556   6.473  16.737 -1.6404  1.3486  1.3307
 9330TIP3    H249482   3.559   6.332  16.682  1.5174  1.7618  0.2342
 9331TIP3   OH249483   3.168   5.829   0.312  0.0421  0.3748 -0.7927
 9331TIP3    H149484   3.125   5.851   0.230 -0.4253  0.5337 -0.5029
 9331TIP3    H249485   3.187   5.735   0.305 -1.1922  0.0899 -0.5373
 9332TIP3   OH249486   0.545   4.312   1.808 -0.4230  0.0214 -0.4745
 9332TIP3    H149487   0.520   4.290   1.718  0.2645 -0.3640 -0.5766
 9332TIP3    H249488   0.528   4.232   1.857 -2.0973  0.6379  0.0238
 9333TIP3   OH249489   6.001   0.111   4.232  0.0196  0.3494 -0.0681
 9333TIP3    H149490   6.076   0.075   4.279 -1.7295  0.5374  3.1659
 9333TIP3    H249491   6.001   0.204   4.254 -0.2980  0.6687 -1.3298
 9334TIP3   OH249492   6.198   4.053   0.139  0.0303 -0.5566 -0.1991
 9334TIP3    H149493   6.128   4.082   0.081 -0.5946 -1.3514  0.1212
 9334TIP3    H249494   6.157   3.983   0.191  0.5377  0.2031  1.2585
 9335TIP3   OH249495   4.925   2.061  14.405 -1.1711  0.3094 -0.1222
 9335TIP3    H149496   4.908   2.080  14.497  0.8438 -0.7445  0.5245
 9335TIP3    H249497   4.998   2.117  14.382  1.5692 -2.7561  0.4071
 9336TIP3   OH249498   1.572   2.533   0.771  0.2745 -0.1688 -0.8640
 9336TIP3    H149499   1.578   2.629   0.766  0.9544 -0.1543 -0.0964
 9336TIP3    H249500   1.601   2.512   0.860 -1.2535 -0.9936 -0.5228
 9337TIP3   OH249501   1.056   5.840   3.322 -0.2888 -0.2767 -0.6885
 9337TIP3    H149502   1.059   5.907   3.390 -0.4213 -1.1291  0.1657
 9337TIP3    H249503   0.963   5.823   3.309 -0.2626 -0.1645 -1.0470
 9338TIP3   OH249504   5.094   4.671   3.471 -0.9574  0.3892 -0.1183
 9338TIP3    H149505   5.096   4.759   3.510  1.1545  0.2574  0.2228
 9338TIP3    H249506   5.069   4.613   3.543 -2.3108  0.6740 -0.3324
 9339TIP3   OH249507   1.876   3.211   5.511  0.2182  0.2558 -0.3593
 9339TIP3    H149508   1.867   3.116   5.515  1.4998  0.1439  0.9722
 9339TIP3    H249509   1.856   3.234   5.420 -0.7243 -1.1942 -0.5504
 9340TIP3   OH249510   5.028   0.094  14.670 -0.2263  0.0746 -0.3394
 9340TIP3    H149511   5.118   0.122  14.685  0.1757 -2.0751  1.9561
 9340TIP3    H249512   5.034  -0.001  14.659 -2.0305  0.1238 -2.1882
 9341TIP3   OH249513   0.155   2.798   3.651 -0.1347 -0.6480 -0.3313
 9341TIP3    H149514   0.230   2.789   3.592 -0.0254 -1.4153 -0.0828
 9341TIP3    H249515   0.080   2.808   3.594 -0.0315 -1.3991 -0.6075
 9342TIP3   OH249516   1.580   1.813   4.135 -0.0150 -0.1659 -0.3704
 9342TIP3    H149517   1.538   1.861   4.064  0.8805  0.5633 -0.4429
 9342TIP3    H249518   1.588   1.878   4.206  0.3415 -0.4812 -0.1150
 9343TIP3   OH249519   5.862   5.921   6.469 -0.4736 -0.2660  0.1641
 9343TIP3    H149520   5.942   5.968   6.445  0.7648 -1.9709  0.7702
 9343TIP3    H249521   5.803   5.936   6.395  0.2754  1.2677 -0.1748
 9344TIP3   OH249522   2.080   1.662   0.420 -0.2212  0.3497 -0.1696
 9344TIP3    H149523   2.009   1.660   0.483  0.8019 -0.5750  0.9852
 9344TIP3    H249524   2.158   1.679   0.472  0.7574 -1.2133 -1.0676
 9345TIP3   OH249525   3.869   4.721  15.539 -0.5080  0.4116 -0.0993
 9345TIP3    H149526   3.803   4.776  15.582  0.2800 -0.0988  1.9051
 9345TIP3    H249527   3.832   4.633  15.542  0.4528  0.0119  1.6354
 9346TIP3   OH249528   3.009   3.203  12.514 -0.4621 -0.5253  0.7154
 9346TIP3    H149529   3.019   3.289  12.554 -0.3161 -0.6096  0.8594
 9346TIP3    H249530   3.073   3.147  12.558  1.5861 -0.0356 -1.4067
 9347TIP3   OH249531   5.110   3.564  15.694  0.0607  0.7656 -0.0536
 9347TIP3    H149532   5.103   3.610  15.778 -2.6382 -0.9603  0.8004
 9347TIP3    H249533   5.201   3.533  15.691 -0.2579 -0.9554  3.3327
 9348TIP3   OH249534   4.034   5.430  11.933 -0.2801  0.7305  0.2271
 9348TIP3    H149535   3.969   5.492  11.966 -2.4801 -0.8492 -0.9016
 9348TIP3    H249536   3.985   5.349  11.919  2.3232 -1.0770  0.9295
 9349TIP3   OH249537   5.904   6.320   2.664  0.0553  0.2322  0.1198
 9349TIP3    H149538   5.932   6.229   2.669 -0.3998  0.1511  1.7985
 9349TIP3    H249539   5.812   6.318   2.692  0.1890  1.2664  0.6693
 9350TIP3   OH249540   5.343   5.635   3.641  0.5295  0.2781  0.9321
 9350TIP3    H149541   5.418   5.695   3.653  0.6063  0.1556  1.0688
 9350TIP3    H249542   5.268   5.693   3.632  0.8787  0.5069 -1.2440
 9351TIP3   OH249543   0.725   0.028   0.583  0.3392  0.1402 -0.0340
 9351TIP3    H149544   0.661  -0.041   0.600 -1.2048  0.8464 -2.4322
 9351TIP3    H249545   0.696   0.102   0.636  0.6204 -0.2832  0.7281
 9352TIP3   OH249546   4.276   0.587  15.046 -0.2100  0.0372 -0.8135
 9352TIP3    H149547   4.259   0.680  15.063  0.0728  0.0222 -0.4270
 9352TIP3    H249548   4.367   0.575  15.072 -0.0085 -0.1739 -1.6220
 9353TIP3   OH249549   3.760   6.469   4.112 -0.0571  0.4389  0.8541
 9353TIP3    H149550   3.816   6.525   4.167  0.6611 -0.7642  1.4065
 9353TIP3    H249551   3.809   6.461   4.030  0.5220 -0.4420  1.2621
 9354TIP3   OH249552   1.691   4.169   6.474  0.3588  0.2849  0.0101
 9354TIP3    H149553   1.689   4.244   6.413 -1.3867  0.6514  0.4541
 9354TIP3    H249554   1.744   4.103   6.429  2.2943  1.9065 -0.2253
 9355TIP3   OH249555   4.805   0.068   3.077  0.6316  0.3755 -0.4126
 9355TIP3    H149556   4.790   0.032   2.990  0.5771  2.1377 -1.1737
 9355TIP3    H249557   4.845   0.154   3.061  1.5777  0.3060  1.3297
 9356TIP3   OH249558   2.349   6.272  15.723 -0.0338 -0.2320  0.2375
 9356TIP3    H149559   2.288   6.199  15.733 -2.9322  2.0906  0.7239
 9356TIP3    H249560   2.320   6.316  15.643  0.6330  1.2852  0.7982
 9357TIP3   OH249561   6.075   4.708  17.034 -0.2389 -0.5625 -0.3943
 9357TIP3    H149562   6.116   4.632  16.992  0.7081 -0.7725  0.8365
 9357TIP3    H249563   6.143   4.776  17.031 -0.3035 -0.4539  0.4017
 9358TIP3   OH249564   5.053   3.617   0.083 -0.4770  0.0534 -0.1757
 9358TIP3    H149565   5.019   3.694   0.037  0.0012 -0.6174 -1.7074
 9358TIP3    H249566   4.988   3.548   0.067 -0.7568  0.0299  0.9391
 9359TIP3   OH249567   5.370   6.393  11.980  0.2141 -0.3818  0.8094
 9359TIP3    H149568   5.293   6.346  11.948 -1.4447  2.3311  0.5760
 9359TIP3    H249569   5.379   6.365  12.071 -0.6320 -1.2228  0.6514
 9360TIP3   OH249570   3.503   6.539   0.771 -0.1975 -0.3377  0.1624
 9360TIP3    H149571   3.439   6.532   0.700  1.3614 -2.3260 -1.1748
 9360TIP3    H249572   3.459   6.499   0.847 -0.6103 -1.5402 -0.6864
 9361TIP3   OH249573   0.774   0.505  17.213 -0.3297 -0.2184 -0.3333
 9361TIP3    H149574   0.726   0.568  17.268 -1.1835  0.8615 -2.1861
 9361TIP3    H249575   0.715   0.490  17.139  1.7508  0.3351 -2.1880
 9362TIP3   OH249576   3.413   5.811  12.441  0.4395 -0.2639  0.7308
 9362TIP3    H149577   3.457   5.766  12.369  0.5672  1.7064 -0.4989
 9362TIP3    H249578   3.329   5.839  12.405  0.0588 -0.1564  1.6767
 9363TIP3   OH249579   2.410   0.475   3.301  0.3030  0.0244 -0.2290
 9363TIP3    H149580   2.388   0.522   3.221  1.2915 -0.5396 -0.8482
 9363TIP3    H249581   2.417   0.384   3.274  0.5728 -0.1806  0.5123
 9364TIP3   OH249582   5.349   4.166  13.131 -0.3287  0.5207  0.3961
 9364TIP3    H149583   5.391   4.121  13.204  1.4962 -0.3899 -1.1401
 9364TIP3    H249584   5.400   4.246  13.118  0.3815 -0.1108 -0.8672
 9365TIP3   OH249585   4.454   2.399   0.953 -0.0525  0.3427 -0.1696
 9365TIP3    H149586   4.422   2.310   0.967 -1.1283  0.6782 -0.3683
 9365TIP3    H249587   4.422   2.448   1.029 -1.3731  1.0173 -1.1152
 9366TIP3   OH249588   1.911   6.703   4.287  0.3223 -0.5727  0.3513
 9366TIP3    H149589   1.944   6.627   4.336 -0.0271 -1.7729 -1.1824
 9366TIP3    H249590   1.983   6.728   4.230 -0.4400 -1.5480 -1.1250
 9367TIP3   OH249591   1.089   0.461   0.338  0.0232  0.6694  0.7859
 9367TIP3    H149592   1.013   0.519   0.337  0.4191  1.1934  0.7462
 9367TIP3    H249593   1.160   0.515   0.374  0.2641  0.0464  1.2654
 9368TIP3   OH249594   6.398   0.328   0.856  0.1928 -0.7536 -0.0609
 9368TIP3    H149595   6.313   0.312   0.896 -0.0234 -1.1682 -0.6741
 9368TIP3    H249596   6.461   0.312   0.926 -0.2843  1.2788  0.9205
 9369TIP3   OH249597   0.603   5.013   6.250  0.3201 -0.8507  0.4682
 9369TIP3    H149598   0.602   5.093   6.303 -1.0315 -0.6191  0.1308
 9369TIP3    H249599   0.648   5.037   6.170 -1.4775  0.0850 -0.3287
 9370TIP3   OH249600   2.625   0.983   1.382  0.0246 -0.3596  0.6881
 9370TIP3    H149601   2.557   1.018   1.440 -1.1376 -2.4876  0.7116
 9370TIP3    H249602   2.592   0.997   1.294 -1.4870 -3.0435  0.7027
 9371TIP3   OH249603   2.382   2.423  15.737 -0.5244  0.2836  0.2088
 9371TIP3    H149604   2.345   2.509  15.759  0.7331  0.8233  0.3033
 9371TIP3    H249605   2.314   2.361  15.762 -0.9843  1.1797  1.2839
 9372TIP3   OH249606   5.896   0.720   6.231 -0.8127  0.3935  0.1203
 9372TIP3    H149607   5.964   0.677   6.283 -1.8828  0.0634  1.3099
 9372TIP3    H249608   5.828   0.742   6.295 -1.1854  2.0408 -0.7966
 9373TIP3   OH249609   5.736   0.451   0.705 -0.1100  0.0804 -0.0147
 9373TIP3    H149610   5.830   0.436   0.696  0.1262  1.5051 -0.1480
 9373TIP3    H249611   5.713   0.506   0.630 -1.0667 -0.3081 -0.0167
 9374TIP3   OH249612   0.093   0.758   5.297  0.1907  0.1258 -0.2415
 9374TIP3    H149613   0.173   0.713   5.323  1.4220  2.2525 -0.0968
 9374TIP3    H249614   0.022   0.702   5.327  1.6059 -1.8222 -0.3621
 9375TIP3   OH249615   0.498   0.651  14.606 -0.0015 -0.2532 -0.8040
 9375TIP3    H149616   0.477   0.566  14.569 -2.2125 -0.5788  1.0073
 9375TIP3    H249617   0.490   0.712  14.533  0.3612 -1.3940 -1.8385
 9376TIP3   OH249618   4.882   5.119   6.279 -0.0096  0.4686 -0.3900
 9376TIP3    H149619   4.807   5.178   6.276 -1.0443 -0.4633  2.9613
 9376TIP3    H249620   4.858   5.046   6.222 -1.3603  0.5172  0.0925
 9377TIP3   OH249621   1.709   3.375  10.449 -0.5703 -0.3155  0.3778
 9377TIP3    H149622   1.677   3.286  10.457 -1.5110 -0.2122 -1.7330
 9377TIP3    H249623   1.791   3.367  10.400 -0.4776 -0.0330  0.4803
 9378TIP3   OH249624   2.280   2.306   0.671 -0.4346 -0.4869 -0.4077
 9378TIP3    H149625   2.266   2.225   0.721 -0.1876 -0.2258  0.0952
 9378TIP3    H249626   2.367   2.295   0.633  0.1732  0.0811  0.7428
 9379TIP3   OH249627   3.282   0.325  15.615  0.0095 -0.1864  0.0209
 9379TIP3    H149628   3.193   0.304  15.644  0.2860 -1.2164  0.1565
 9379TIP3    H249629   3.326   0.241  15.609  0.5750  0.1801 -1.3855
 9380TIP3   OH249630   4.591   5.343   3.159 -0.2372  0.6453  0.3565
 9380TIP3    H149631   4.498   5.343   3.137 -0.1268 -1.9832 -0.5197
 9380TIP3    H249632   4.598   5.396   3.238 -2.1320  2.6109 -0.7098
 9381TIP3   OH249633   3.516   5.204  15.268 -0.3912  0.1819  0.2404
 9381TIP3    H149634   3.602   5.201  15.225 -0.9040 -0.3627 -0.7846
 9381TIP3    H249635   3.462   5.144  15.217 -1.4324  0.6471  0.7730
 9382TIP3   OH249636   5.748   3.037   4.408 -0.0649 -0.1157 -0.0521
 9382TIP3    H149637   5.753   2.942   4.409 -0.3887 -0.1386  1.2648
 9382TIP3    H249638   5.670   3.058   4.460  0.1551  0.8629 -0.0936
 9383TIP3   OH249639   0.198   5.810  13.794 -1.0032  0.4002 -0.1624
 9383TIP3    H149640   0.145   5.848  13.725  1.7528  3.1590 -1.0086
 9383TIP3    H249641   0.153   5.834  13.875 -2.1535  0.7416 -0.8809
 9384TIP3   OH249642   3.252   5.037  12.694  0.2632 -0.5614 -0.3577
 9384TIP3    H149643   3.241   5.002  12.605  2.3044 -1.4104 -0.3339
 9384TIP3    H249644   3.303   4.970  12.739  1.0744  0.8165  0.8316
 9385TIP3   OH249645   3.007   3.600   4.431  0.1613 -0.3444  0.3071
 9385TIP3    H149646   2.932   3.566   4.381  1.6997 -3.4912 -0.0981
 9385TIP3    H249647   3.055   3.654   4.369  0.8057 -2.3331 -1.0191
 9386TIP3   OH249648   2.180   3.062   2.219  0.3383 -0.4409  0.3795
 9386TIP3    H149649   2.130   2.982   2.238 -0.3163 -0.2036 -0.3163
 9386TIP3    H249650   2.234   3.075   2.297  1.0370 -1.9916  0.1947
 9387TIP3   OH249651   4.278   1.342  12.666 -0.2681 -0.2346  0.1141
 9387TIP3    H149652   4.349   1.324  12.604 -1.2843  0.6079 -1.3751
 9387TIP3    H249653   4.322   1.373  12.745  1.1035 -1.9182  0.0581
 9388TIP3   OH249654   4.332   6.718  13.819 -0.8969 -0.3318 -0.9447
 9388TIP3    H149655   4.250   6.766  13.828 -0.7012 -0.0351 -0.6864
 9388TIP3    H249656   4.392   6.763  13.879 -0.9436 -1.4163 -0.0395
 9389TIP3   OH249657   0.469   1.058   3.769 -0.3008  0.1218 -0.1083
 9389TIP3    H149658   0.512   1.135   3.733  0.6445 -1.2854 -2.2277
 9389TIP3    H249659   0.479   0.991   3.701 -3.1170 -1.2309  0.6333
 9390TIP3   OH249660   0.326   6.595  15.631  0.1370 -0.5074 -0.1772
 9390TIP3    H149661   0.327   6.501  15.614 -2.0386 -0.6429  0.0969
 9390TIP3    H249662   0.233   6.618  15.634  0.6034  1.8965 -1.4302
 9391TIP3   OH249663   3.643   4.775   3.712 -0.1500  0.1206 -0.4121
 9391TIP3    H149664   3.633   4.698   3.768  0.5160  2.0964  2.6323
 9391TIP3    H249665   3.553   4.802   3.692 -0.3867 -0.9576 -0.8786
 9392TIP3   OH249666   4.252   2.392  12.409 -0.8715  0.1003 -0.7045
 9392TIP3    H149667   4.316   2.380  12.479 -1.5108  1.5195  0.1733
 9392TIP3    H249668   4.236   2.304  12.375  1.1772 -0.3444 -0.6390
 9393TIP3   OH249669   2.136   4.784  11.860  0.0509 -0.2005  0.4543
 9393TIP3    H149670   2.117   4.729  11.936  1.1648  0.3862  1.1973
 9393TIP3    H249671   2.217   4.829  11.883  0.4243 -0.0112 -1.1035
 9394TIP3   OH249672   1.227   4.922  14.909  0.6290  0.3035  0.2480
 9394TIP3    H149673   1.177   4.853  14.868 -0.8333  1.0740  0.6761
 9394TIP3    H249674   1.278   4.961  14.838  0.2452 -0.1634 -0.2870
 9395TIP3   OH249675   3.608   0.654  10.600  0.0833 -0.0085 -0.2831
 9395TIP3    H149676   3.554   0.723  10.639 -0.1116  0.5339 -1.4624
 9395TIP3    H249677   3.569   0.573  10.631  0.3546  0.3938  1.1829
 9396TIP3   OH249678   4.492   2.771  16.543 -1.4238  0.3032  0.1125
 9396TIP3    H149679   4.498   2.817  16.627 -0.2569  0.0258  0.1896
 9396TIP3    H249680   4.578   2.782  16.503 -1.9337  0.3371 -1.0094
 9397TIP3   OH249681   2.219   0.251  12.493 -0.0337  0.4964 -0.0554
 9397TIP3    H149682   2.163   0.207  12.429  1.0526 -0.9397 -0.0559
 9397TIP3    H249683   2.272   0.312  12.440  1.0606 -0.8829 -0.6150
 9398TIP3   OH249684   4.442   5.289   3.538 -0.3697  0.0405  0.4733
 9398TIP3    H149685   4.421   5.268   3.629 -1.0123  0.2958  0.3914
 9398TIP3    H249686   4.359   5.277   3.491 -0.8588  2.8225  0.4398
 9399TIP3   OH249687   0.932   1.249   2.591  0.4013  0.0454  0.5857
 9399TIP3    H149688   0.930   1.154   2.579  1.4598  0.1964 -1.0378
 9399TIP3    H249689   0.988   1.262   2.669  0.4404 -0.6464  0.6766
 9400TIP3   OH249690   1.724   1.295  14.145  0.7382 -0.1181 -0.3257
 9400TIP3    H149691   1.816   1.308  14.122  1.4251 -3.2941  0.1791
 9400TIP3    H249692   1.676   1.325  14.068  2.4395 -1.4921 -2.0156
 9401TIP3   OH249693   6.652   3.995  15.749 -0.0413 -0.0313 -0.0653
 9401TIP3    H149694   6.726   4.037  15.704 -1.2379  1.6923 -0.5087
 9401TIP3    H249695   6.642   3.911  15.705  1.3966 -0.1404 -0.2467
 9402TIP3   OH249696   4.342   4.101  14.627  0.0771  0.4231  0.8075
 9402TIP3    H149697   4.423   4.065  14.591 -1.0055 -1.2214 -0.0774
 9402TIP3    H249698   4.295   4.025  14.662 -2.0296  0.9947 -0.5757
 9403TIP3   OH249699   2.603   5.599   1.044 -0.1971  0.4892  0.6314
 9403TIP3    H149700   2.690   5.559   1.041 -0.5421 -0.2329  0.2031
 9403TIP3    H249701   2.619   5.691   1.021  0.1883 -0.0900 -1.7191
 9404TIP3   OH249702   2.561   3.615   3.994  0.0594 -0.3608  1.0696
 9404TIP3    H149703   2.596   3.526   3.994  0.3780 -0.2553 -0.1857
 9404TIP3    H249704   2.469   3.605   3.968  0.8466 -0.1255 -2.2372
 9405TIP3   OH249705   2.096   2.728  16.706 -0.1546  0.3451 -0.5520
 9405TIP3    H149706   2.071   2.684  16.787  1.0762  0.3999 -0.1069
 9405TIP3    H249707   2.150   2.802  16.736  0.0431  0.5559 -1.4046
 9406TIP3   OH249708   4.452   0.146   4.067 -0.5895  0.0317 -0.5275
 9406TIP3    H149709   4.513   0.072   4.064 -0.5875  0.0574 -1.4082
 9406TIP3    H249710   4.473   0.192   4.148  1.4009  0.7489 -1.3953
 9407TIP3   OH249711   3.895   4.666   6.331  0.0731  0.3810  0.0711
 9407TIP3    H149712   3.972   4.721   6.320 -0.1198  1.1723  2.2935
 9407TIP3    H249713   3.828   4.725   6.367 -1.0609 -0.6631 -0.2471
 9408TIP3   OH249714   4.237   2.291  14.371 -0.2818 -0.3817 -0.2483
 9408TIP3    H149715   4.306   2.226  14.384 -0.3407 -0.1329  1.5641
 9408TIP3    H249716   4.256   2.328  14.285  0.0457 -2.4077 -1.1073
 9409TIP3   OH249717   5.372   1.267  14.475 -0.1336  0.3218  0.3108
 9409TIP3    H149718   5.323   1.218  14.542 -1.6362 -1.5221 -1.9420
 9409TIP3    H249719   5.444   1.209  14.451  1.5750  1.8151  1.6161
 9410TIP3   OH249720   1.905   3.572   0.588 -0.2939  0.1065 -0.2215
 9410TIP3    H149721   1.864   3.613   0.512 -0.0912  1.0264  0.1525
 9410TIP3    H249722   1.867   3.617   0.663  2.5556  2.2541  0.1276
 9411TIP3   OH249723   1.863   1.466  12.068  0.2059 -0.4053 -0.3533
 9411TIP3    H149724   1.866   1.515  12.150  0.1534 -1.7392  0.4736
 9411TIP3    H249725   1.860   1.533  12.000  0.4862  0.7300  0.7195
 9412TIP3   OH249726   5.194   1.991  13.488 -0.0631 -0.0096 -0.1324
 9412TIP3    H149727   5.141   1.942  13.425  0.7190 -0.1983 -0.6597
 9412TIP3    H249728   5.192   1.938  13.568  0.0906 -0.4830 -0.4376
 9413TIP3   OH249729   4.866   6.108  14.440 -0.1065 -0.2966 -0.1899
 9413TIP3    H149730   4.832   6.177  14.383 -0.1036 -1.5750 -1.7991
 9413TIP3    H249731   4.951   6.087  14.404 -0.8903 -2.4416 -0.9217
 9414TIP3   OH249732   0.800   3.966   2.003  0.3205  0.2090  0.7621
 9414TIP3    H149733   0.760   4.044   2.043  1.4623  1.5682 -0.6325
 9414TIP3    H249734   0.808   3.988   1.911  1.7650 -1.1132  0.5460
 9415TIP3   OH249735   6.509   3.804  16.793 -0.1725 -0.3191 -0.3167
 9415TIP3    H149736   6.481   3.882  16.745 -0.1533 -0.2694 -0.2477
 9415TIP3    H249737   6.461   3.732  16.753  0.1311 -0.3302 -0.6626
 9416TIP3   OH249738   0.922   5.153  11.454 -0.5710 -0.1233 -0.7616
 9416TIP3    H149739   0.833   5.166  11.418 -0.3697 -0.2541 -1.3203
 9416TIP3    H249740   0.961   5.088  11.397  0.6372  1.4760 -1.8629
 9417TIP3   OH249741   5.654   2.909  15.156  0.2168  0.6849  0.0741
 9417TIP3    H149742   5.588   2.941  15.217 -0.0792 -2.1164  1.4057
 9417TIP3    H249743   5.734   2.902  15.210  0.6661  0.7147 -0.5788
 9418TIP3   OH249744   2.351   1.133  15.309  0.2919  0.0114 -0.3822
 9418TIP3    H149745   2.305   1.079  15.245 -1.3600  1.8768 -0.8372
 9418TIP3    H249746   2.444   1.113  15.295 -0.1114 -0.5794 -2.4678
 9419TIP3   OH249747   6.226   4.023  14.963 -0.5247  0.3123  0.1594
 9419TIP3    H149748   6.254   4.023  15.055 -0.7244 -1.0056  0.2412
 9419TIP3    H249749   6.204   4.114  14.944 -0.5479  0.5868  1.4409
 9420TIP3   OH249750   4.764   6.214  16.051  0.2130 -0.2199  0.1095
 9420TIP3    H149751   4.767   6.162  16.131 -0.9326  0.4989  0.6557
 9420TIP3    H249752   4.718   6.294  16.077 -0.2440 -0.0094 -1.2872
 9421TIP3   OH249753   1.051   0.544   1.698 -0.0247  0.2694 -0.0480
 9421TIP3    H149754   1.065   0.465   1.646 -2.3725 -0.8723  0.9019
 9421TIP3    H249755   0.988   0.595   1.647  0.3415  0.8352  0.0554
 9422TIP3   OH249756   1.465   1.224  15.671  0.1512  0.6338  0.6625
 9422TIP3    H149757   1.500   1.274  15.744  0.7320 -0.5239  1.1981
 9422TIP3    H249758   1.484   1.278  15.594  0.2192  1.4988  1.2680
 9423TIP3   OH249759   4.146   3.587   4.332  0.5308 -0.3659  0.0629
 9423TIP3    H149760   4.220   3.528   4.345  0.2068 -0.5672  1.1182
 9423TIP3    H249761   4.166   3.663   4.387  0.9931  0.5809 -1.3539
 9424TIP3   OH249762   5.223   1.316  16.277  0.1981 -0.0611 -0.1438
 9424TIP3    H149763   5.235   1.223  16.299 -1.4918 -0.3558 -0.3399
 9424TIP3    H249764   5.157   1.347  16.338 -2.2556 -0.0718 -2.6130
 9425TIP3   OH249765   1.921   2.431   5.564  0.3868 -0.4889 -0.4684
 9425TIP3    H149766   1.975   2.386   5.629  0.5669 -0.9792 -0.9535
 9425TIP3    H249767   1.834   2.392   5.574  0.8434 -1.9150 -1.7883
 9426TIP3   OH249768   2.400   6.488  16.191  0.1013  0.0874 -0.0202
 9426TIP3    H149769   2.411   6.394  16.177 -1.2129  0.0214 -0.7411
 9426TIP3    H249770   2.483   6.527  16.163  0.0837 -0.7185 -1.2516
 9427TIP3   OH249771   2.388   0.306  11.916 -0.0134 -0.4212 -0.0058
 9427TIP3    H149772   2.409   0.270  12.002 -1.2251  1.7715  1.2885
 9427TIP3    H249773   2.453   0.267  11.857 -0.6482 -3.9445  1.3412
 9428TIP3   OH249774   3.806   4.098   5.174  0.4316 -0.5983 -0.0648
 9428TIP3    H149775   3.766   4.175   5.214  0.3033 -0.4997 -0.3850
 9428TIP3    H249776   3.834   4.044   5.249 -2.2118 -1.6984  0.2354
 9429TIP3   OH249777   5.987   2.825   1.986 -0.4068  0.1142 -0.0897
 9429TIP3    H149778   5.925   2.898   1.990 -0.8298 -0.2043 -0.6570
 9429TIP3    H249779   5.934   2.748   2.006 -0.0651 -0.0958  0.0201
 9430TIP3   OH249780   4.391   4.753  10.574  0.0841 -0.8663 -0.0315
 9430TIP3    H149781   4.394   4.694  10.650 -1.0982 -1.4143 -0.3850
 9430TIP3    H249782   4.345   4.831  10.606 -0.7954 -1.2677 -0.2637
 9431TIP3   OH249783   4.940   2.012  10.966  0.8319  0.2116 -0.0033
 9431TIP3    H149784   4.969   2.057  10.887  1.2149  2.6377  1.4167
 9431TIP3    H249785   4.855   2.050  10.987  1.0695  0.1653  1.1400
 9432TIP3   OH249786   5.497   3.801   2.532  0.7854 -0.4925  0.3649
 9432TIP3    H149787   5.458   3.862   2.594  2.2152 -0.8428  1.6496
 9432TIP3    H249788   5.591   3.803   2.551  1.1098 -1.5226 -0.9785
 9433TIP3   OH249789   4.285   4.199   0.265  0.0123 -0.3249  0.3299
 9433TIP3    H149790   4.361   4.239   0.306 -1.1535  0.0305  2.2811
 9433TIP3    H249791   4.230   4.272   0.237 -0.8209 -0.5334  1.3571
 9434TIP3   OH249792   0.041   3.995  16.269 -0.2654 -0.1158  0.1760
 9434TIP3    H149793   0.077   4.069  16.220  0.9565 -0.2224  0.8832
 9434TIP3    H249794   0.003   3.938  16.202  0.2555  0.3470 -0.5239
 9435TIP3   OH249795   4.864   3.572   5.202  0.0764  0.1823 -0.1052
 9435TIP3    H149796   4.855   3.502   5.138 -0.6554  0.1425  0.0319
 9435TIP3    H249797   4.829   3.649   5.157 -2.1836 -0.2146  0.8530
 9436TIP3   OH249798   3.227   0.960   0.279  0.2336  0.8396 -0.1852
 9436TIP3    H149799   3.253   1.029   0.341  1.1557  1.1077 -0.8481
 9436TIP3    H249800   3.208   0.884   0.334  0.7552  1.1591  0.4515
 9437TIP3   OH249801   4.925   0.888  16.893  0.6079  0.1558 -0.1590
 9437TIP3    H149802   4.839   0.878  16.852  0.4253 -0.2843  0.3250
 9437TIP3    H249803   4.914   0.853  16.981  0.7258  1.9749  0.6292
 9438TIP3   OH249804   0.060   6.108   6.266 -0.5487  0.0682 -0.2673
 9438TIP3    H149805   0.010   6.037   6.225 -1.7945 -0.5174  2.0620
 9438TIP3    H249806   0.146   6.069   6.284 -0.9366 -0.6149  0.1967
 9439TIP3   OH249807   3.797   2.692   3.929 -0.1398 -0.0267  0.1287
 9439TIP3    H149808   3.837   2.642   3.858 -1.8200 -0.5473 -0.5072
 9439TIP3    H249809   3.705   2.699   3.904 -0.2191  2.2538  0.8782
 9440TIP3   OH249810   3.172   2.344   4.776  0.4347  0.0648  0.1091
 9440TIP3    H149811   3.222   2.282   4.828  0.6596  0.5407  0.4670
 9440TIP3    H249812   3.232   2.372   4.707  0.2171 -0.3806 -0.2640
 9441TIP3   OH249813   4.597   3.496  10.840  0.3646 -0.2123  0.6768
 9441TIP3    H149814   4.674   3.540  10.876 -0.1008 -0.7297  2.4030
 9441TIP3    H249815   4.631   3.436  10.774  1.1640  1.4646 -0.4928
 9442TIP3   OH249816   1.476   0.890   0.101 -0.3740  0.3357 -0.7645
 9442TIP3    H149817   1.484   0.838   0.021 -1.6768  2.9739 -2.7925
 9442TIP3    H249818   1.538   0.962   0.089  1.1357 -0.4193  1.7854
 9443TIP3   OH249819   5.169   2.185   4.032 -0.1494 -0.9013 -0.2632
 9443TIP3    H149820   5.195   2.140   4.112  2.4655  1.0759  0.1097
 9443TIP3    H249821   5.249   2.195   3.982 -0.8482  1.9119 -1.0127
 9444TIP3   OH249822   3.729   0.453   3.973 -0.5531  0.0861  0.5690
 9444TIP3    H149823   3.676   0.448   3.894 -1.5776 -0.4528  1.2628
 9444TIP3    H249824   3.793   0.383   3.964 -0.3212  0.3706 -0.0200
 9445TIP3   OH249825   4.625   5.021  11.771  0.3542 -0.2118 -0.9926
 9445TIP3    H149826   4.638   4.947  11.711 -0.6479 -0.4018 -0.9986
 9445TIP3    H249827   4.705   5.072  11.764  0.2734 -0.2341 -2.4953
 9446TIP3   OH249828   4.162   6.749   4.396 -0.2782  0.1749 -0.6116
 9446TIP3    H149829   4.115   6.790   4.323 -0.6516  1.3623  0.2790
 9446TIP3    H249830   4.218   6.819   4.431  2.0089 -1.1021 -1.4674
 9447TIP3   OH249831   5.877   1.103   1.841 -0.2956 -0.7671 -0.0608
 9447TIP3    H149832   5.830   1.022   1.864  0.3718 -1.1874 -0.1414
 9447TIP3    H249833   5.808   1.166   1.821 -1.0049 -0.2713  3.2889
 9448TIP3   OH249834   0.037   5.870  14.012  0.9047  0.1964 -1.0066
 9448TIP3    H149835  -0.057   5.852  14.009  0.8320  0.4518 -0.3791
 9448TIP3    H249836   0.044   5.965  14.014  1.2312  0.2300 -2.4139
 9449TIP3   OH249837   2.143   4.408  12.501 -0.0568  0.5325  0.1847
 9449TIP3    H149838   2.161   4.470  12.572  0.2108 -0.0719  0.6514
 9449TIP3    H249839   2.048   4.405  12.495 -0.1231 -0.3262  1.3461
 9450TIP3   OH249840   0.241   0.826   6.537 -0.1061 -0.6611 -0.1944
 9450TIP3    H149841   0.207   0.799   6.622 -0.8874 -1.9823 -0.8736
 9450TIP3    H249842   0.174   0.796   6.475  0.1732  0.7798 -1.2275
 9451TIP3   OH249843   0.859   0.717  15.535  0.4760  0.1927 -0.0847
 9451TIP3    H149844   0.804   0.738  15.460  0.0865 -0.4364  0.0225
 9451TIP3    H249845   0.878   0.624  15.525  0.0654  0.0072  0.8264
 9452TIP3   OH249846   1.931   0.675  16.858  0.0079 -0.4787 -0.5997
 9452TIP3    H149847   1.907   0.718  16.776 -1.3104  1.4418  0.6812
 9452TIP3    H249848   1.951   0.747  16.918  1.0000 -1.8174  0.7650
 9453TIP3   OH249849   5.771   3.963   1.019  0.0965 -0.9742 -0.3993
 9453TIP3    H149850   5.709   3.893   1.038  0.0045 -0.7854  0.0266
 9453TIP3    H249851   5.768   3.974   0.924 -1.7132  0.0921 -0.2722
 9454TIP3   OH249852   1.054   4.475   1.758  0.4367  0.2240  0.4053
 9454TIP3    H149853   0.969   4.514   1.776  0.0233 -0.1796 -0.5680
 9454TIP3    H249854   1.064   4.481   1.663  2.7434  2.7599  0.6668
 9455TIP3   OH249855   5.774   0.083   4.069  0.2686  0.4621  0.0200
 9455TIP3    H149856   5.686   0.073   4.106  0.2298 -3.3736 -0.7653
 9455TIP3    H249857   5.832   0.089   4.145 -0.3632 -1.1199  0.6660
 9456TIP3   OH249858   3.608   4.518  15.835  0.0042  0.3441 -0.2732
 9456TIP3    H149859   3.525   4.564  15.823  0.3268  1.0137 -0.0104
 9456TIP3    H249860   3.591   4.458  15.907 -0.0711  0.9649  0.2427
 9457TIP3   OH249861   0.639   0.886  12.204  0.5250 -0.4858 -0.1284
 9457TIP3    H149862   0.559   0.848  12.166  0.5077 -0.7844  0.1949
 9457TIP3    H249863   0.673   0.944  12.136  0.2482 -0.6626 -0.4219
 9458TIP3   OH249864   1.168   6.102  10.506  0.1323 -0.6846 -0.2565
 9458TIP3    H149865   1.215   6.031  10.548  2.3005  0.9873  0.3447
 9458TIP3    H249866   1.103   6.130  10.571  0.4210 -1.0187  0.1786
 9459TIP3   OH249867   3.388   4.801   0.428  0.2394 -0.0728 -0.3830
 9459TIP3    H149868   3.443   4.759   0.362 -1.4720 -1.8474 -0.8013
 9459TIP3    H249869   3.309   4.827   0.380 -0.0992  0.6329  0.5377
 9460TIP3   OH249870   5.270   0.180  16.442  0.0591 -0.2959 -0.3251
 9460TIP3    H149871   5.271   0.091  16.407 -2.2149 -0.5015 -0.0582
 9460TIP3    H249872   5.330   0.177  16.517 -1.6941 -2.3504  1.1586
 9461TIP3   OH249873   0.025   4.000   2.871 -0.3272  0.1968 -0.3326
 9461TIP3    H149874  -0.055   4.052   2.871  0.0605  0.8062 -0.8374
 9461TIP3    H249875   0.002   3.920   2.824 -0.6832  0.2972 -0.3314
 9462TIP3   OH249876   2.818   6.719   0.718  0.2872  0.0628  0.2461
 9462TIP3    H149877   2.820   6.660   0.794  1.0192 -0.7634 -0.3913
 9462TIP3    H249878   2.749   6.684   0.663  0.2691  0.2098  0.1760
 9463TIP3   OH249879   4.545   5.801   0.628  0.3353 -0.1865 -0.5161
 9463TIP3    H149880   4.575   5.754   0.706 -0.4409  0.5646  0.2553
 9463TIP3    H249881   4.463   5.758   0.604  1.2038 -1.2323 -1.6906
 9464TIP3   OH249882   0.144   2.210  13.945  0.1762  0.1106 -0.3339
 9464TIP3    H149883   0.156   2.205  13.851  0.5832 -0.7517 -0.2533
 9464TIP3    H249884   0.055   2.242  13.957  1.0536  3.1200 -0.9940
 9465TIP3   OH249885   1.326   6.439   5.818 -0.2834  0.2698  0.1611
 9465TIP3    H149886   1.274   6.361   5.836 -2.6228  1.2154 -1.8123
 9465TIP3    H249887   1.382   6.415   5.745  1.7017 -0.5437  1.8528
 9466TIP3   OH249888   6.213   1.811   0.378 -0.0793 -0.4822 -0.6805
 9466TIP3    H149889   6.247   1.742   0.435 -0.5123 -0.4397 -0.3646
 9466TIP3    H249890   6.268   1.887   0.397 -0.3114 -0.4281 -0.2122
 9467TIP3   OH249891   3.255   5.884   2.973  0.0007  0.5359 -0.1769
 9467TIP3    H149892   3.345   5.873   2.943  0.4244 -2.6275  1.7573
 9467TIP3    H249893   3.262   5.903   3.066 -1.3544  1.2360 -0.1867
 9468TIP3   OH249894   6.635   3.210  10.680 -0.3372 -0.0547  0.4296
 9468TIP3    H149895   6.551   3.222  10.636  0.0701  2.3802  0.1905
 9468TIP3    H249896   6.688   3.159  10.618 -0.6871  0.9282 -0.6983
 9469TIP3   OH249897   5.934   1.844   3.142  0.0291  0.2890  0.1841
 9469TIP3    H149898   5.867   1.835   3.074 -0.6424 -0.6479  0.9320
 9469TIP3    H249899   5.967   1.933   3.133  0.3951 -0.0061 -1.7574
 9470TIP3   OH249900   6.797   6.324   1.915 -0.0315 -0.1606 -0.0805
 9470TIP3    H149901   6.831   6.269   1.985 -1.7982 -0.9338  0.2363
 9470TIP3    H249902   6.772   6.406   1.959  2.3299  0.8644 -0.5035
 9471TIP3   OH249903   5.316   6.714  15.048  0.1106 -0.2916 -0.0538
 9471TIP3    H149904   5.292   6.804  15.070 -0.0192 -0.4496  0.4916
 9471TIP3    H249905   5.234   6.665  15.056 -0.1350 -0.2127 -1.8249
 9472TIP3   OH249906   4.641   2.986  12.170  0.1780  0.1633  0.1141
 9472TIP3    H149907   4.700   2.926  12.216  0.6339 -0.7473 -1.6116
 9472TIP3    H249908   4.681   3.073  12.185 -2.2007  0.7679  5.4033
 9473TIP3   OH249909   6.203   2.867   3.810 -0.5004 -0.0476 -0.7251
 9473TIP3    H149910   6.149   2.790   3.829 -0.1297 -0.3654 -0.9455
 9473TIP3    H249911   6.256   2.880   3.889 -0.0876 -0.4205 -0.9380
 9474TIP3   OH249912   2.161   0.331   3.944 -0.4455  0.0281 -0.0696
 9474TIP3    H149913   2.176   0.398   4.011  1.9333 -0.6827  0.1930
 9474TIP3    H249914   2.237   0.274   3.950 -1.2641 -1.3427 -1.9071
 9475TIP3   OH249915   1.774   1.418  14.524  0.5285 -0.1058 -0.8542
 9475TIP3    H149916   1.792   1.375  14.608  2.5161  1.0373 -0.6261
 9475TIP3    H249917   1.858   1.414  14.477  0.0322  1.1422 -1.8992
 9476TIP3   OH249918   5.825   4.441   6.778  0.7741 -0.0989  0.6015
 9476TIP3    H149919   5.915   4.438   6.812 -0.1310 -1.0437  3.1762
 9476TIP3    H249920   5.807   4.351   6.752  0.3461 -0.0817  0.8320
 9477TIP3   OH249921   4.792   5.904   4.640  0.2980 -0.2418 -0.7738
 9477TIP3    H149922   4.795   5.898   4.544 -3.2504  0.4927 -1.0638
 9477TIP3    H249923   4.802   5.998   4.658  0.3266 -0.3040 -0.4623
 9478TIP3   OH249924   1.521   0.587   4.056 -0.2913  0.6625 -0.5350
 9478TIP3    H149925   1.451   0.621   4.001  0.2446  2.4914 -0.1724
 9478TIP3    H249926   1.571   0.529   3.999 -1.8453 -0.3625 -0.9059
 9479TIP3   OH249927   5.257   4.214   2.829 -0.1956 -0.0480 -0.5034
 9479TIP3    H149928   5.316   4.238   2.901  0.9933  0.1217 -1.4923
 9479TIP3    H249929   5.227   4.298   2.793  0.5914 -0.0807 -1.2779
 9480TIP3   OH249930   1.009   2.306   0.420  0.2617  0.0882  0.4495
 9480TIP3    H149931   0.978   2.357   0.345 -0.3258 -1.2753 -0.2587
 9480TIP3    H249932   1.103   2.300   0.408  0.4419  1.5629  0.9154
 9481TIP3   OH249933   2.013   2.803  15.528 -0.1965 -0.0578 -0.5145
 9481TIP3    H149934   1.932   2.781  15.575  1.6520 -1.0100  2.5495
 9481TIP3    H249935   2.028   2.727  15.471  0.0916 -1.4275  1.2783
 9482TIP3   OH249936   6.396   3.628  12.490  0.1213 -0.3906 -0.1195
 9482TIP3    H149937   6.442   3.680  12.556 -0.8102  0.1539  0.1099
 9482TIP3    H249938   6.353   3.559  12.540  1.9941 -1.9072 -0.4957
 9483TIP3   OH249939   2.883   2.635   2.756  0.2607 -0.3773 -0.1031
 9483TIP3    H149940   2.872   2.698   2.828 -0.4045  1.9000 -2.0768
 9483TIP3    H249941   2.802   2.584   2.755  0.2508 -0.3921  0.6888
 9484TIP3   OH249942   3.396   4.257  14.437  0.0616  0.0630  0.5066
 9484TIP3    H149943   3.406   4.171  14.395  0.4330  0.0609  0.5949
 9484TIP3    H249944   3.393   4.239  14.530  0.2201  0.1546  0.5294
 9485TIP3   OH249945   4.245   1.054  12.675 -0.4346 -0.0664 -0.4361
 9485TIP3    H149946   4.167   1.010  12.709  0.5603 -1.0245  0.7015
 9485TIP3    H249947   4.227   1.147  12.684 -1.9714 -0.2410 -1.4395
 9486TIP3   OH249948   4.086   2.818  12.368  0.0774  0.3091  0.2912
 9486TIP3    H149949   4.155   2.867  12.323  1.3017  0.4451  2.2200
 9486TIP3    H249950   4.107   2.826  12.461 -3.2536  1.4428  1.1089
 9487TIP3   OH249951   2.612   2.205   0.946  1.1276  0.0767  0.7186
 9487TIP3    H149952   2.583   2.122   0.984 -0.5183 -0.2117 -1.0003
 9487TIP3    H249953   2.566   2.210   0.862  0.0567  3.3773  1.3453
 9488TIP3   OH249954   0.615   1.215  15.239 -0.5502 -0.3515  0.8220
 9488TIP3    H149955   0.591   1.300  15.276  0.8853 -0.4611  2.1441
 9488TIP3    H249956   0.660   1.170  15.311  0.1219 -1.6017 -0.3323
 9489TIP3   OH249957   6.336   3.972  15.267  0.4901  0.1469  0.1013
 9489TIP3    H149958   6.374   3.905  15.211 -0.6315 -0.3058 -0.1342
 9489TIP3    H249959   6.261   3.930  15.309 -1.1380  1.6235 -1.1615
 9490TIP3   OH249960   0.636   1.354  10.365 -0.3702  0.3037  0.6334
 9490TIP3    H149961   0.724   1.352  10.327 -0.2423 -0.0214  0.9489
 9490TIP3    H249962   0.645   1.312  10.450 -0.8946 -0.0216  0.5344
 9491TIP3   OH249963   0.985   2.741   2.028  0.0834  0.1307  0.0839
 9491TIP3    H149964   0.910   2.684   2.039 -0.2071  0.5722  0.4496
 9491TIP3    H249965   1.046   2.714   2.096 -0.2250  0.5217  0.5196
 9492TIP3   OH249966   4.693   4.776  15.812  0.1817 -0.1264  1.0136
 9492TIP3    H149967   4.738   4.760  15.729 -2.1777  1.6232 -0.7500
 9492TIP3    H249968   4.712   4.867  15.832 -0.8532  0.0209  1.3562
 9493TIP3   OH249969   3.586   1.739   5.149  0.7090 -0.2673  0.4020
 9493TIP3    H149970   3.548   1.669   5.095  0.6641 -0.4444  0.6599
 9493TIP3    H249971   3.510   1.783   5.187  0.7549 -0.6463  0.9498
 9494TIP3   OH249972   1.802   5.272   4.178 -0.7703 -0.0465  0.2148
 9494TIP3    H149973   1.764   5.212   4.243 -2.6140 -0.7633 -1.4332
 9494TIP3    H249974   1.747   5.350   4.183  0.6243  0.9116  1.2102
 9495TIP3   OH249975   0.115   2.400   6.026 -0.0413 -0.0954  0.1807
 9495TIP3    H149976   0.101   2.495   6.035  2.4514  0.3538  0.0874
 9495TIP3    H249977   0.075   2.362   6.104 -1.6236  0.9297 -0.0743
 9496TIP3   OH249978   1.970   0.498   4.977 -0.5624  0.0642 -0.0606
 9496TIP3    H149979   2.038   0.506   4.909  1.1670  1.0686  1.6856
 9496TIP3    H249980   1.892   0.536   4.937  0.8168  2.1440 -0.9786
 9497TIP3   OH249981   5.199   2.920  15.040 -0.0363  0.4718  0.6832
 9497TIP3    H149982   5.178   3.012  15.053 -0.1341  0.6229 -0.4358
 9497TIP3    H249983   5.243   2.917  14.955  0.5224 -0.4372  0.9839
 9498TIP3   OH249984   5.728   3.470   3.011 -0.0064 -0.0511  0.0935
 9498TIP3    H149985   5.694   3.555   3.040  0.6624  0.4117 -0.4369
 9498TIP3    H249986   5.683   3.454   2.928 -0.7508 -0.6259  0.5923
 9499TIP3   OH249987   0.915   4.967   1.849 -0.1758 -0.0117 -0.0341
 9499TIP3    H149988   1.003   4.949   1.882  0.2779  0.2513 -1.0530
 9499TIP3    H249989   0.856   4.922   1.910  0.6188  0.4439  1.1007
 9500TIP3   OH249990   6.676   0.562   0.040 -0.1537  0.4115  0.4530
 9500TIP3    H149991   6.744   0.498   0.019  1.8627  2.7835 -0.7703
 9500TIP3    H249992   6.624   0.568  -0.040 -1.1776 -0.6200  1.0228
 9501TIP3   OH249993   2.343   3.478   6.601 -0.4986 -0.2274 -0.2696
 9501TIP3    H149994   2.268   3.528   6.571 -0.6078 -0.3511 -0.2049
 9501TIP3    H249995   2.386   3.449   6.521 -0.8845 -0.7009 -0.3124
 9502TIP3   OH249996   5.174   3.002  10.433 -0.1802 -0.0273  0.0152
 9502TIP3    H149997   5.106   2.944  10.468 -0.4457  0.1067 -0.2741
 9502TIP3    H249998   5.144   3.023  10.344 -0.0391  0.4805  0.0888
 9503TIP3   OH249999   6.613   1.448   2.175  0.4643 -0.3278 -0.0156
 9503TIP3    H150000   6.666   1.474   2.251  1.7788 -2.2562 -0.1892
 9503TIP3    H250001   6.632   1.355   2.164 -0.3095 -0.2754 -2.2423
 9504TIP3   OH250002   4.803   3.889  10.405 -0.1873 -0.8660 -0.7496
 9504TIP3    H150003   4.773   3.978  10.417 -1.1306 -1.0958 -1.3500
 9504TIP3    H250004   4.854   3.870  10.484  0.0956  0.2211 -0.6585
 9505TIP3   OH250005   4.235   4.554  14.096 -0.3426 -0.7106  0.6925
 9505TIP3    H150006   4.274   4.616  14.034  1.3792 -1.7557  0.6469
 9505TIP3    H250007   4.176   4.607  14.150  0.5968  0.8439  0.2629
 9506TIP3   OH250008   6.670   5.723   2.718  0.4159 -0.1859  0.2397
 9506TIP3    H150009   6.763   5.701   2.716  0.8513  1.3533  1.2461
 9506TIP3    H250010   6.649   5.746   2.627  1.4768  1.0930  0.2860
 9507TIP3   OH250011   1.940   0.753  11.383  0.3964 -0.5472 -0.5004
 9507TIP3    H150012   1.861   0.805  11.393  0.7220 -0.3489  1.5154
 9507TIP3    H250013   2.005   0.798  11.437  2.0052 -0.5380 -2.3124
 9508TIP3   OH250014   4.699   6.814   2.832  0.5564 -0.4595  0.4462
 9508TIP3    H150015   4.603   6.812   2.834  0.5550 -1.1888 -0.0522
 9508TIP3    H250016   4.720   6.874   2.760  0.4646 -0.9888 -0.0288
 9509TIP3   OH250017   5.898   0.632  13.391  0.2386  0.2657 -0.6008
 9509TIP3    H150018   5.843   0.692  13.341 -0.1579  0.0752 -0.3918
 9509TIP3    H250019   5.930   0.685  13.464 -1.7157 -0.2837  0.7258
 9510TIP3   OH250020   2.679   4.928  16.923  0.6292 -0.2531  0.4574
 9510TIP3    H150021   2.734   5.005  16.936  1.0827 -0.6287  0.8037
 9510TIP3    H250022   2.647   4.907  17.011  0.7367 -0.6245  0.4074
 9511TIP3   OH250023   4.308   4.058  11.277 -0.0742  0.0466 -0.2677
 9511TIP3    H150024   4.323   4.108  11.357 -1.1283  1.5101 -0.9464
 9511TIP3    H250025   4.385   4.000  11.271  0.0233 -0.1150  1.7731
 9512TIP3   OH250026   5.342   6.498   1.928 -0.4112  0.5246  0.0065
 9512TIP3    H150027   5.407   6.463   1.989 -0.6844  0.5899  0.3332
 9512TIP3    H250028   5.342   6.435   1.856  0.1741  0.6376 -0.1051
 9513TIP3   OH250029   1.805   1.919   6.248 -0.1933 -0.0643  0.2436
 9513TIP3    H150030   1.738   1.974   6.289 -0.6262  0.1504 -0.7116
 9513TIP3    H250031   1.818   1.847   6.309 -0.3969  0.5450  1.0162
 9514TIP3   OH250032   3.170   5.329  11.175 -0.2404 -0.3093 -0.1943
 9514TIP3    H150033   3.133   5.404  11.130 -2.0788 -0.2084  1.3857
 9514TIP3    H250034   3.106   5.259  11.163  1.3425 -1.6110 -1.4665
 9515TIP3   OH250035   6.801   1.484   4.563 -0.1639 -0.3322  0.0168
 9515TIP3    H150036   6.741   1.496   4.490 -0.1455 -1.2929 -0.1768
 9515TIP3    H250037   6.760   1.416   4.616  0.4222 -0.5189  0.2386
 9516TIP3   OH250038   6.773   1.993  16.101 -0.1326  0.1348  0.7806
 9516TIP3    H150039   6.692   1.968  16.145 -0.3317 -0.0576  0.3171
 9516TIP3    H250040   6.756   2.080  16.066 -1.0115 -0.8099 -1.3505
 9517TIP3   OH250041   2.143   4.960  13.266  0.0967 -0.0918 -0.2204
 9517TIP3    H150042   2.065   4.919  13.303 -0.4363 -0.1098 -1.2949
 9517TIP3    H250043   2.172   5.022  13.332  0.8111 -2.0321  1.3863
 9518TIP3   OH250044   3.096   2.371  15.014 -0.6577 -0.3872 -0.0676
 9518TIP3    H150045   3.057   2.414  15.090  1.1303 -0.4672  0.9487
 9518TIP3    H250046   3.187   2.354  15.040 -0.4855 -2.0250 -1.5749
 9519TIP3   OH250047   4.400   2.567  11.580  0.7175 -0.0380 -0.5765
 9519TIP3    H150048   4.323   2.589  11.633  0.1361 -0.9462 -1.0119
 9519TIP3    H250049   4.473   2.607  11.626  0.2089 -0.6479  0.8264
 9520TIP3   OH250050   1.188   4.102   0.065  0.0500 -0.1599  0.5719
 9520TIP3    H150051   1.165   4.188   0.100 -0.9702 -0.2420  0.1265
 9520TIP3    H250052   1.281   4.109   0.044 -0.3441  1.3355 -0.8666
 9521TIP3   OH250053   2.813   5.542   4.858 -0.6815 -0.1018 -0.4818
 9521TIP3    H150054   2.718   5.544   4.865 -0.6803  1.3934 -0.5502
 9521TIP3    H250055   2.844   5.511   4.943 -1.1562  2.7132  0.8291
 9522TIP3   OH250056   0.180   0.697   1.187  0.1475 -0.1145  0.0360
 9522TIP3    H150057   0.127   0.643   1.128 -1.3116 -0.5814  1.6784
 9522TIP3    H250058   0.205   0.637   1.258  3.2360  0.0109 -0.8327
 9523TIP3   OH250059   2.268   3.777  11.401  0.0310  0.2358  0.0784
 9523TIP3    H150060   2.302   3.689  11.383  0.0965 -0.1032  1.7397
 9523TIP3    H250061   2.225   3.803  11.319 -0.7431 -1.6852 -0.1801
 9524TIP3   OH250062   3.748   2.692   1.335 -0.6806 -0.5564 -0.1438
 9524TIP3    H150063   3.794   2.610   1.318 -1.1236 -1.0262  0.8407
 9524TIP3    H250064   3.718   2.684   1.425 -0.8917  0.6197 -0.1009
 9525TIP3   OH250065   5.855   3.060   2.568 -0.6733  0.8826 -0.0950
 9525TIP3    H150066   5.898   3.072   2.653 -1.3772 -1.7632  0.7244
 9525TIP3    H250067   5.761   3.061   2.588 -0.8570  0.4957 -0.8899
 9526TIP3   OH250068   3.897   5.445  11.045  0.1647 -0.0519 -0.1800
 9526TIP3    H150069   3.945   5.512  10.995 -0.6568  1.3739  0.8773
 9526TIP3    H250070   3.961   5.412  11.108  0.7366 -0.6916 -1.0703
 9527TIP3   OH250071   4.905   1.846  11.834  0.6237 -0.1038  0.0506
 9527TIP3    H150072   4.862   1.782  11.891 -1.5037  0.6404 -0.6220
 9527TIP3    H250073   4.899   1.928  11.882  0.4831  0.1730 -0.4356
 9528TIP3   OH250074   4.988   4.267   4.893 -0.2556  0.2145 -0.1625
 9528TIP3    H150075   4.929   4.308   4.956  0.3431  1.0405 -0.1205
 9528TIP3    H250076   4.962   4.175   4.892 -3.1922  0.9355 -1.9662
 9529TIP3   OH250077   4.569   4.053   6.114 -0.8540  0.4929 -0.0184
 9529TIP3    H150078   4.532   4.122   6.058  1.0135  1.1310 -0.5492
 9529TIP3    H250079   4.621   4.101   6.178 -1.4155 -0.3390  1.0858
 9530TIP3   OH250080   1.068   2.401   0.674 -0.4197 -0.3799  0.0087
 9530TIP3    H150081   1.009   2.363   0.609 -0.1332 -0.6803 -0.0815
 9530TIP3    H250082   1.142   2.434   0.623  0.6344 -2.1670  0.3120
 9531TIP3   OH250083   2.582   0.806   4.685 -0.1222 -0.3372  0.4310
 9531TIP3    H150084   2.642   0.880   4.687  0.4160 -0.7557  0.0083
 9531TIP3    H250085   2.615   0.747   4.753  0.1430 -0.7170 -0.0221
 9532TIP3   OH250086   6.073   0.887  12.905 -0.2699  0.0320 -0.2870
 9532TIP3    H150087   6.060   0.830  12.829 -1.2425 -1.0066  0.6224
 9532TIP3    H250088   6.036   0.838  12.979  2.1456  0.2517  1.1888
 9533TIP3   OH250089   0.410   3.476  13.615 -0.5069  0.5467 -0.6595
 9533TIP3    H150090   0.409   3.497  13.522  0.4842 -0.7108 -0.9811
 9533TIP3    H250091   0.317   3.472  13.640 -0.7900  0.4321 -1.6905
 9534TIP3   OH250092   3.840   5.029   2.282  0.1622 -0.2713  0.0461
 9534TIP3    H150093   3.774   5.027   2.213 -1.1938  0.4975  1.2542
 9534TIP3    H250094   3.876   4.941   2.284 -1.5654 -1.0268 -0.0075
 9535TIP3   OH250095   6.016   4.222   5.733 -0.3523  0.1249 -0.6893
 9535TIP3    H150096   6.062   4.266   5.804 -2.0308  0.7549  0.0641
 9535TIP3    H250097   6.085   4.196   5.672  0.9442  1.3648  0.1822
 9536TIP3   OH250098   3.085   3.944   1.187  0.2614  0.2570  0.1997
 9536TIP3    H150099   3.139   3.888   1.242  1.0338 -1.4973 -2.1656
 9536TIP3    H250100   3.147   3.999   1.140 -0.3639  1.5675  0.8573
 9537TIP3   OH250101   4.298   3.283   0.728 -0.0039 -0.3078  0.4076
 9537TIP3    H150102   4.268   3.227   0.656  1.4106 -1.3762  0.6124
 9537TIP3    H250103   4.218   3.326   0.759 -0.5637  1.0555 -2.4785
 9538TIP3   OH250104   4.472   4.527  10.737 -0.2086 -0.1412 -0.4943
 9538TIP3    H150105   4.564   4.502  10.745 -0.0040  0.6301 -0.4213
 9538TIP3    H250106   4.437   4.468  10.670  0.2401 -0.6990 -0.2448
 9539TIP3   OH250107   5.657   4.710  15.507 -0.4559  0.0820  0.1603
 9539TIP3    H150108   5.676   4.651  15.434 -0.4283  0.8354 -0.4502
 9539TIP3    H250109   5.626   4.652  15.577 -1.4988 -0.5600 -0.7917
 9540TIP3   OH250110   6.177   4.167   4.756  0.4185 -0.3786 -0.0156
 9540TIP3    H150111   6.271   4.156   4.770  0.9060  1.0003 -1.8475
 9540TIP3    H250112   6.167   4.257   4.724 -1.5147 -0.5260  0.0137
 9541TIP3   OH250113   5.030   5.347  16.928  0.1378 -0.3484  0.2962
 9541TIP3    H150114   5.084   5.388  16.861 -1.7063  0.7722 -0.5611
 9541TIP3    H250115   4.998   5.420  16.981 -2.7870 -0.5995 -0.9436
 9542TIP3   OH250116   6.749   1.543   2.417  0.0091  0.4351  0.1040
 9542TIP3    H150117   6.789   1.609   2.474 -1.1583  1.9909 -0.7918
 9542TIP3    H250118   6.694   1.491   2.475 -0.5219  1.4643  0.5384
 9543TIP3   OH250119   3.622   2.612   1.585 -0.1794 -0.1102  0.0047
 9543TIP3    H150120   3.596   2.526   1.617  0.3534 -0.4908 -0.5595
 9543TIP3    H250121   3.663   2.654   1.660 -1.0074 -0.0947  0.4610
 9544TIP3   OH250122   0.425   4.504   0.617  0.6491  0.5820  0.1029
 9544TIP3    H150123   0.494   4.463   0.669  0.2705  0.4319  0.4913
 9544TIP3    H250124   0.471   4.545   0.544  1.3161  1.8897  1.2253
 9545TIP3   OH250125   5.387   4.571   3.691 -0.9277 -0.7350  0.2969
 9545TIP3    H150126   5.336   4.498   3.727 -0.2591 -2.5083 -2.1217
 9545TIP3    H250127   5.454   4.587   3.757 -1.2836 -2.1085  1.0421
 9546TIP3   OH250128   1.734   4.673   5.934  0.1707  0.0956  0.2930
 9546TIP3    H150129   1.707   4.715   5.852 -0.4063  0.5648  0.7130
 9546TIP3    H250130   1.766   4.587   5.907  1.4246  0.8099 -0.5880
 9547TIP3   OH250131   3.602   4.996  14.456  0.4183 -0.6472  0.3252
 9547TIP3    H150132   3.586   5.090  14.457 -1.5446 -0.9354  0.3544
 9547TIP3    H250133   3.582   4.969  14.366  0.3129 -1.1163  0.4856
 9548TIP3   OH250134   0.541   0.113  15.453 -0.0841 -0.2020 -0.6610
 9548TIP3    H150135   0.635   0.100  15.444 -0.3853 -1.7796 -2.0007
 9548TIP3    H250136   0.502   0.034  15.415 -1.9840  1.2445 -1.9451
 9549TIP3   OH250137   5.885   2.320  15.692  0.6999  0.4651  0.3277
 9549TIP3    H150138   5.870   2.414  15.682 -1.5944  0.2208  0.8730
 9549TIP3    H250139   5.828   2.295  15.764  0.2429 -1.5782 -0.6828
 9550TIP3   OH250140   3.585   2.685   4.394  0.1716  0.1917 -0.2721
 9550TIP3    H150141   3.642   2.664   4.321  0.6524 -1.5930  0.5593
 9550TIP3    H250142   3.644   2.702   4.467 -0.3053  1.8000 -0.2230
 9551TIP3   OH250143   0.607   2.577  14.084 -0.3203  0.3728 -0.5822
 9551TIP3    H150144   0.522   2.535  14.069 -0.7524  1.8377 -2.5859
 9551TIP3    H250145   0.642   2.592  13.996  1.5613  0.7479  0.1867
 9552TIP3   OH250146   4.855   4.379   0.891  0.1508  0.0969 -0.5817
 9552TIP3    H150147   4.845   4.363   0.797  0.9546  1.0666 -0.8453
 9552TIP3    H250148   4.781   4.437   0.913 -1.3762 -1.9097 -0.1097
 9553TIP3   OH250149   6.802   6.563  12.448  0.5738  0.5495  0.0670
 9553TIP3    H150150   6.732   6.582  12.510  0.7535 -0.1973  0.5046
 9553TIP3    H250151   6.877   6.615  12.480  0.3180  1.1158 -0.2331
 9554TIP3   OH250152   4.030   3.679   0.963  0.3340  0.1144 -0.0123
 9554TIP3    H150153   3.984   3.740   0.904  2.4521  1.7936 -0.0299
 9554TIP3    H250154   3.959   3.627   1.003 -1.3449  0.5708 -2.1769
 9555TIP3   OH250155   1.677   6.775  15.570  0.2311 -0.7023 -0.1738
 9555TIP3    H150156   1.675   6.744  15.480  0.8585 -0.0729 -0.4101
 9555TIP3    H250157   1.602   6.834  15.577  1.5786  1.2151 -1.0293
 9556TIP3   OH250158   2.991   1.837   0.358 -0.1135 -0.8664 -0.9015
 9556TIP3    H150159   2.900   1.860   0.381 -0.0876  0.3128 -1.8713
 9556TIP3    H250160   3.044   1.905   0.400  0.2368 -0.9692 -1.1777
 9557TIP3   OH250161   5.452   2.885   2.925 -0.0555  0.2780 -0.1993
 9557TIP3    H150162   5.488   2.949   2.864 -0.7582  1.0367  0.1794
 9557TIP3    H250163   5.530   2.843   2.963  0.4064  0.8081 -0.5370
 9558TIP3   OH250164   1.167   4.804   0.815 -0.2424  0.5036 -0.7829
 9558TIP3    H150165   1.211   4.744   0.875 -1.5020  0.0829 -0.2386
 9558TIP3    H250166   1.122   4.747   0.753 -2.4166  0.7714  0.4226
 9559TIP3   OH250167   2.775   1.870  16.248 -0.1761 -0.0629  0.7151
 9559TIP3    H150168   2.817   1.802  16.196  0.7995  0.0462  1.3281
 9559TIP3    H250169   2.683   1.866  16.224  0.5658  1.9194 -3.2556
 9560TIP3   OH250170   0.854   4.876   3.112 -0.3927 -0.4527 -0.2636
 9560TIP3    H150171   0.782   4.937   3.098 -0.2263  0.1752  1.3789
 9560TIP3    H250172   0.819   4.790   3.087 -1.3433 -0.0058 -0.5022
 9561TIP3   OH250173   0.833   6.687   1.278 -0.5736  0.0043  0.1716
 9561TIP3    H150174   0.782   6.658   1.203 -1.8640  0.2801  0.9162
 9561TIP3    H250175   0.840   6.609   1.334 -0.0911 -0.0561  0.0316
 9562TIP3   OH250176   6.654   5.005   4.536  0.3078 -0.5463 -0.0139
 9562TIP3    H150177   6.568   4.974   4.505  0.0198  0.9066 -0.7414
 9562TIP3    H250178   6.633   5.057   4.614  0.4168  0.4528 -0.6321
 9563TIP3   OH250179   2.467   5.227  16.240  0.1876 -0.0396 -0.3445
 9563TIP3    H150180   2.428   5.288  16.302  0.8776 -0.4050  0.4731
 9563TIP3    H250181   2.426   5.248  16.156 -1.6240 -0.2693  0.4175
 9564TIP3   OH250182   6.313   2.906  15.766 -0.2107  0.1363 -0.0594
 9564TIP3    H150183   6.260   2.969  15.718 -1.7568 -0.4659  0.7832
 9564TIP3    H250184   6.287   2.917  15.858 -1.0601 -2.1659  0.0386
 9565TIP3   OH250185   3.063   6.167   2.742  0.2217  0.2082  0.4835
 9565TIP3    H150186   3.099   6.100   2.683 -0.1196  1.8598 -1.7284
 9565TIP3    H250187   2.970   6.145   2.750  0.3388 -0.2178  0.7153
 9566TIP3   OH250188   1.794   2.619  16.205 -0.0227 -0.3230  0.4410
 9566TIP3    H150189   1.763   2.608  16.115  0.3720 -0.7765  0.3564
 9566TIP3    H250190   1.716   2.602  16.259 -0.0621 -0.8791  0.2099
 9567TIP3   OH250191   3.236   3.698   6.205  0.4053 -0.6798 -0.1495
 9567TIP3    H150192   3.269   3.783   6.177 -1.6999 -0.2959 -1.7517
 9567TIP3    H250193   3.257   3.639   6.133 -0.5853 -0.8663 -0.2967
 9568TIP3   OH250194   5.864   2.961  15.629  0.0157  0.1235 -0.5628
 9568TIP3    H150195   5.856   3.038  15.685  1.1031  1.1569 -1.7537
 9568TIP3    H250196   5.793   2.969  15.566 -2.4281 -2.0408  1.6605
 9569TIP3   OH250197   3.294   0.024   3.136  0.2775 -0.4297  0.3819
 9569TIP3    H150198   3.216  -0.026   3.161  0.3482  0.1695  1.9415
 9569TIP3    H250199   3.332  -0.025   3.064 -1.5488 -0.7297 -0.4362
 9570TIP3   OH250200   6.271   1.727   4.875  0.0389  0.3346 -0.2380
 9570TIP3    H150201   6.278   1.810   4.922  0.1031  0.9789 -1.3503
 9570TIP3    H250202   6.191   1.735   4.823 -0.2369 -0.5118  0.0439
 9571TIP3   OH250203   3.093   5.374  14.320  0.2625 -0.4108  0.1464
 9571TIP3    H150204   3.094   5.435  14.394  3.6043 -0.0638 -0.0274
 9571TIP3    H250205   3.049   5.296  14.354  1.6769 -0.2568  2.5526
 9572TIP3   OH250206   6.230   4.587  14.114  0.9399  0.5777  0.1385
 9572TIP3    H150207   6.149   4.588  14.063  1.2048 -0.2495 -0.3255
 9572TIP3    H250208   6.202   4.566  14.203  0.6348  0.4153  0.0051
 9573TIP3   OH250209   3.955   2.210  13.798  0.2198 -0.0089  0.6712
 9573TIP3    H150210   3.940   2.290  13.748 -1.0474 -0.4274  0.3647
 9573TIP3    H250211   3.904   2.222  13.878 -0.1794 -0.6093  0.5134
 9574TIP3   OH250212   4.315   2.686   4.688  0.0811  0.1515 -0.8284
 9574TIP3    H150213   4.272   2.743   4.625 -0.2882 -2.2574 -2.9386
 9574TIP3    H250214   4.392   2.652   4.641  0.5407 -0.7137  0.4962
 9575TIP3   OH250215   3.579   4.699   5.870  0.7790  0.2118 -0.0013
 9575TIP3    H150216   3.562   4.690   5.964  0.0158 -0.9368 -0.2300
 9575TIP3    H250217   3.673   4.719   5.865  0.7494  0.6651  1.0179
 9576TIP3   OH250218   5.635   2.773   4.777 -0.1830  0.5865  0.2361
 9576TIP3    H150219   5.716   2.823   4.768 -0.2958  0.8193  0.4843
 9576TIP3    H250220   5.610   2.785   4.869  0.1350 -0.4523  0.4723
 9577TIP3   OH250221   0.681   1.630   6.139  0.0819 -0.0922  0.2035
 9577TIP3    H150222   0.659   1.539   6.156 -1.7092  0.1950 -0.3501
 9577TIP3    H250223   0.625   1.680   6.200  0.6887  0.6470  0.1724
 9578TIP3   OH250224   0.897   4.097   1.789  0.1198  0.3225 -0.0890
 9578TIP3    H150225   0.821   4.087   1.731 -1.0400  1.0074  1.2626
 9578TIP3    H250226   0.963   4.038   1.751 -1.3217 -0.8651 -0.8902
 9579TIP3   OH250227   4.330   1.028  16.565 -0.2419 -0.0575  0.4041
 9579TIP3    H150228   4.335   1.113  16.521 -2.1462 -0.6612 -1.1279
 9579TIP3    H250229   4.361   0.966  16.499 -1.5588 -0.8079  0.4600
 9580TIP3   OH250230   0.549   0.414  13.154  0.4035  0.1641 -0.0946
 9580TIP3    H150231   0.559   0.503  13.120 -0.1173  0.2639  0.0121
 9580TIP3    H250232   0.572   0.421  13.247  1.2882 -0.0020 -0.2902
 9581TIP3   OH250233   5.155   1.071   3.045  0.1945  0.5877 -0.3147
 9581TIP3    H150234   5.078   1.020   3.070  1.8871 -0.9627  2.1945
 9581TIP3    H250235   5.127   1.163   3.052 -1.1953  0.0751  1.4251
 9582TIP3   OH250236   2.916   6.022  16.303 -0.1905 -0.1767  0.2927
 9582TIP3    H150237   2.985   5.970  16.344  1.4917  0.4420 -1.6070
 9582TIP3    H250238   2.917   5.996  16.211 -2.1403  0.2820  0.0791
 9583TIP3   OH250239   0.187   5.783   3.313  0.2931 -0.0492 -0.5103
 9583TIP3    H150240   0.240   5.858   3.341 -0.1390 -0.1629  0.6813
 9583TIP3    H250241   0.250   5.722   3.275  0.4120  1.7590 -3.5124
 9584TIP3   OH250242   2.705   0.797  11.118  0.1514 -0.3028 -0.0155
 9584TIP3    H150243   2.782   0.741  11.129  0.1115 -0.2676  0.4240
 9584TIP3    H250244   2.652   0.781  11.196  1.1631  2.0005  1.2257
 9585TIP3   OH250245   3.161   5.770  15.596  0.2866 -0.1132  0.6754
 9585TIP3    H150246   3.155   5.821  15.515  1.2692  1.3131  1.4531
 9585TIP3    H250247   3.163   5.679  15.568 -2.3688  0.1785 -0.7363
 9586TIP3   OH250248   3.138   2.403  16.948 -0.5335 -0.2585  0.7105
 9586TIP3    H150249   3.099   2.319  16.975 -0.1502 -0.3602  0.9612
 9586TIP3    H250250   3.212   2.415  17.007 -0.5961  0.2712  0.6870
 9587TIP3   OH250251   0.303   0.720   0.350 -0.1502 -0.3984  0.0313
 9587TIP3    H150252   0.272   0.690   0.264  0.1969 -0.7954  0.0443
 9587TIP3    H250253   0.298   0.816   0.344 -0.6741 -0.4365 -0.2256
 9588TIP3   OH250254   2.906   4.234   0.677  0.0304  0.2974  0.2393
 9588TIP3    H150255   2.862   4.160   0.636 -0.9853  0.8309  0.3144
 9588TIP3    H250256   2.835   4.296   0.696  0.8440  1.2688  0.2077
 9589TIP3   OH250257   1.861   0.945  13.395  0.3991  0.3915  0.0339
 9589TIP3    H150258   1.866   0.853  13.369 -0.7449  0.8339 -1.9709
 9589TIP3    H250259   1.770   0.959  13.419  0.4143  1.1299 -0.2851
 9590TIP3   OH250260   0.929   5.478  16.954  0.0043 -0.2184  0.1809
 9590TIP3    H150261   1.005   5.434  16.915  1.7352  0.9934  2.0154
 9590TIP3    H250262   0.869   5.407  16.978  0.2568 -1.1663 -1.7703
 9591TIP3   OH250263   6.403   4.561  12.937 -0.1342 -0.0960  0.0005
 9591TIP3    H150264   6.347   4.493  12.901  0.7890 -1.1571  0.5306
 9591TIP3    H250265   6.364   4.643  12.906 -1.8527 -0.8051  0.1897
 9592TIP3   OH250266   1.828   2.565  13.599  0.2418 -0.6853  0.2681
 9592TIP3    H150267   1.810   2.535  13.511  0.0493 -1.5824  0.6075
 9592TIP3    H250268   1.848   2.658  13.589 -2.1281 -0.1949 -0.4207
 9593TIP3   OH250269   1.693   5.818  12.967  0.2928  0.2514 -0.8522
 9593TIP3    H150270   1.728   5.862  12.890  2.3674  2.0807  0.9949
 9593TIP3    H250271   1.770   5.786  13.013 -0.7074  0.9773  1.4576
 9594TIP3   OH250272   5.845   0.435   2.460 -0.5046  0.0831  0.1359
 9594TIP3    H150273   5.934   0.456   2.488 -0.7447  0.5270  0.5659
 9594TIP3    H250274   5.851   0.431   2.364 -0.5501  2.7312 -0.0479
 9595TIP3   OH250275   6.061   0.071   0.106 -0.4471 -0.4536 -0.2876
 9595TIP3    H150276   6.017   0.156   0.096  0.6890  0.1161 -0.5750
 9595TIP3    H250277   6.007   0.010   0.056 -0.5735  0.3476 -1.1484
 9596TIP3   OH250278   2.431   2.629  11.783 -0.2066 -0.1267  0.0022
 9596TIP3    H150279   2.339   2.647  11.763 -0.1575 -0.3048 -0.4085
 9596TIP3    H250280   2.456   2.563  11.719  0.0521 -0.4954  0.4798
 9597TIP3   OH250281   3.397   0.448   3.186 -0.2357  0.3862 -0.2463
 9597TIP3    H150282   3.330   0.382   3.198 -0.6662  0.6638 -1.0587
 9597TIP3    H250283   3.446   0.448   3.269  0.1092 -1.2987 -0.4146
 9598TIP3   OH250284   4.287   2.316   3.796 -0.0892  0.3363  0.2811
 9598TIP3    H150285   4.277   2.254   3.868 -0.9129  1.3216  1.0471
 9598TIP3    H250286   4.262   2.267   3.718  4.0350 -1.8501  0.0164
 9599TIP3   OH250287   0.339   1.072  11.974 -0.0624  0.6896 -0.1688
 9599TIP3    H150288   0.272   1.121  12.021  0.4650  1.7313 -0.4641
 9599TIP3    H250289   0.405   1.138  11.951  0.1574  0.0416 -1.5015
 9600TIP3   OH250290   4.312   5.674   0.564  0.5808 -0.0061 -0.3145
 9600TIP3    H150291   4.283   5.602   0.507  0.2502  1.3803 -1.9499
 9600TIP3    H250292   4.233   5.726   0.578  1.1915  1.0289 -0.6344
 9601TIP3   OH250293   2.399   4.789  11.945  0.6841  0.5308 -0.2088
 9601TIP3    H150294   2.438   4.705  11.921 -2.0653 -0.5037 -1.4255
 9601TIP3    H250295   2.383   4.782  12.039  3.3616  1.0441  0.3654
 9602TIP3   OH250296   2.408   3.619  15.968  0.6564 -0.5745  0.1688
 9602TIP3    H150297   2.472   3.628  16.039  0.2268 -0.9937  0.6200
 9602TIP3    H250298   2.367   3.534  15.984  0.4773 -0.6258 -0.5235
 9603TIP3   OH250299   4.639   2.632   0.816  0.0868  0.0951  0.5550
 9603TIP3    H150300   4.567   2.571   0.830 -0.9601  0.1598 -3.4159
 9603TIP3    H250301   4.704   2.582   0.767 -0.5797  1.8609 -2.3538
 9604TIP3   OH250302   1.577   6.102  11.644 -0.3653 -0.5168  0.0513
 9604TIP3    H150303   1.605   6.054  11.566  1.7644  0.4563  0.1410
 9604TIP3    H250304   1.510   6.163  11.613 -0.1801 -0.7527 -0.8380
 9605TIP3   OH250305   1.502   6.331  10.338  0.6486  0.1547  0.5960
 9605TIP3    H150306   1.511   6.400  10.272  0.4486 -0.8403 -0.5276
 9605TIP3    H250307   1.540   6.254  10.296  1.6259 -0.2429  2.1443
 9606TIP3   OH250308   0.622   4.488   1.576  0.7160 -0.4399 -0.2632
 9606TIP3    H150309   0.575   4.408   1.549  2.1366 -0.4793 -2.9047
 9606TIP3    H250310   0.712   4.474   1.546  0.7497  2.6450 -2.0273
 9607TIP3   OH250311   6.808   6.678  13.055 -0.0419 -0.9547  0.1654
 9607TIP3    H150312   6.736   6.672  12.992  1.4427 -0.4759 -1.6837
 9607TIP3    H250313   6.786   6.752  13.110 -0.9912 -0.8473 -0.3274
 9608TIP3   OH250314   0.608   5.706  13.453 -0.6439  0.3435  0.9414
 9608TIP3    H150315   0.667   5.646  13.499 -0.0782  0.0097 -0.1786
 9608TIP3    H250316   0.540   5.650  13.417 -0.1186  0.3625 -0.1027
 9609TIP3   OH250317   0.966   5.829  17.247  0.1653 -0.4428  0.5015
 9609TIP3    H150318   0.937   5.738  17.239  0.5560 -0.4911 -0.4967
 9609TIP3    H250319   1.053   5.823  17.287  0.0509 -0.4823  0.7476
 9610TIP3   OH250320   6.423   2.745  12.700 -0.3213  0.5910  0.0793
 9610TIP3    H150321   6.442   2.748  12.606  0.3740  0.2495  0.1938
 9610TIP3    H250322   6.329   2.728  12.705 -0.1242 -0.8836 -0.5795
 9611TIP3   OH250323   6.665   5.302  10.739  0.3706  0.0894  0.7086
 9611TIP3    H150324   6.605   5.373  10.715 -1.1198 -1.1675  0.5948
 9611TIP3    H250325   6.707   5.334  10.819 -1.0931  0.6730  1.2954
 9612TIP3   OH250326   0.821   1.658  17.212 -0.1708  0.0399  0.0178
 9612TIP3    H150327   0.822   1.599  17.136  1.3535 -0.3316  0.3018
 9612TIP3    H250328   0.853   1.605  17.284  0.4135  0.9779  0.4697
 9613TIP3   OH250329   3.359   3.510   1.639  0.1661 -0.2653  0.3451
 9613TIP3    H150330   3.437   3.463   1.608  0.3843 -1.0683  2.0070
 9613TIP3    H250331   3.335   3.466   1.720  0.3665  2.4564  2.0143
 9614TIP3   OH250332   4.561   4.616  14.605  0.2278 -0.4276  0.2207
 9614TIP3    H150333   4.594   4.532  14.574 -0.0195  0.1337 -1.6712
 9614TIP3    H250334   4.466   4.607  14.604  0.2100 -0.3108  0.5938
 9615TIP3   OH250335   2.351   0.851   5.267 -0.6899 -0.0551  0.0428
 9615TIP3    H150336   2.360   0.932   5.217  0.2129  0.7653  1.4676
 9615TIP3    H250337   2.261   0.824   5.252 -0.8175  0.8671 -0.9785
 9616TIP3   OH250338   6.777   2.278   3.447 -0.2532 -0.3985  0.1407
 9616TIP3    H150339   6.841   2.214   3.414 -0.5900 -0.1376 -1.0677
 9616TIP3    H250340   6.711   2.224   3.490  0.7293 -0.6788  1.3717
 9617TIP3   OH250341   3.323   0.778  16.377  0.5310  0.3848  0.2293
 9617TIP3    H150342   3.297   0.755  16.466  1.1284 -0.4457  0.1982
 9617TIP3    H250343   3.370   0.861  16.386 -0.5348  0.9755  0.5065
 9618TIP3   OH250344   6.557   0.227   1.060  0.6111 -0.6372  0.0002
 9618TIP3    H150345   6.643   0.215   1.099 -0.2238 -1.1193  1.7896
 9618TIP3    H250346   6.497   0.230   1.135 -0.7874  1.1434 -1.0979
 9619TIP3   OH250347   1.326   5.246   1.292  0.3734  0.7274 -0.0825
 9619TIP3    H150348   1.405   5.245   1.238  0.1924  0.3940 -0.3424
 9619TIP3    H250349   1.267   5.306   1.246  0.7936  1.6616  0.5735
 9620TIP3   OH250350   3.423   5.153   5.506  0.2004  0.1126  0.7107
 9620TIP3    H150351   3.349   5.177   5.450  0.0527  2.6646  1.8879
 9620TIP3    H250352   3.391   5.079   5.558 -0.3249 -0.9972 -1.0956
 9621TIP3   OH250353   5.766   0.863   3.353 -0.1980 -0.4745  0.1449
 9621TIP3    H150354   5.769   0.956   3.330  1.6573 -0.1964  1.2647
 9621TIP3    H250355   5.676   0.848   3.383 -0.7848  0.7062 -0.9586
 9622TIP3   OH250356   1.184   0.020   4.989  0.2112  0.4737  0.6074
 9622TIP3    H150357   1.275   0.001   4.967  0.4483  1.6832  0.4737
 9622TIP3    H250358   1.134  -0.011   4.913  0.4445 -0.6703  0.9056
 9623TIP3   OH250359   6.566   5.021  11.469  0.4946 -0.5643  0.2310
 9623TIP3    H150360   6.584   4.974  11.387 -0.3756  1.4111 -1.1788
 9623TIP3    H250361   6.566   5.113  11.444 -0.1802  0.0844  2.4099
 9624TIP3   OH250362   2.597   1.450  16.290  0.3032  0.1670 -0.1787
 9624TIP3    H150363   2.519   1.504  16.275  1.3245  1.1431 -2.3846
 9624TIP3    H250364   2.622   1.418  16.204  1.8025 -0.9249  0.6122
 9625TIP3   OH250365   3.232   3.268  15.223 -0.0216  0.1266  0.2790
 9625TIP3    H150366   3.263   3.188  15.265 -0.6475 -0.1762  0.1681
 9625TIP3    H250367   3.192   3.238  15.141  0.6586  0.6502 -0.2541
 9626TIP3   OH250368   6.572   3.031   3.031 -0.4575  0.4218  0.4512
 9626TIP3    H150369   6.643   3.092   3.049  1.5181 -1.1362 -1.4897
 9626TIP3    H250370   6.550   3.046   2.939  1.2241 -2.7159 -0.6075
 9627TIP3   OH250371   4.530   0.347   2.281 -0.0906  0.0047 -0.3461
 9627TIP3    H150372   4.438   0.368   2.265  0.4528  1.8910 -1.4198
 9627TIP3    H250373   4.565   0.424   2.325  0.7022 -1.2407  1.2897
 9628TIP3   OH250374   0.577   1.071   4.407  0.3948  0.5318 -0.9769
 9628TIP3    H150375   0.494   1.023   4.411  0.5732  0.3196  0.7060
 9628TIP3    H250376   0.563   1.139   4.341 -0.8241 -0.0335 -1.3168
 9629TIP3   OH250377   6.002   6.670  12.714 -0.1037  0.3143 -0.3135
 9629TIP3    H150378   6.091   6.643  12.694  0.1822  0.6873  0.4186
 9629TIP3    H250379   5.966   6.699  12.630  0.5535  0.4280 -0.5595
 9630TIP3   OH250380   5.084   0.060   0.512  0.6898 -1.1177 -0.1234
 9630TIP3    H150381   5.020   0.090   0.448  0.0234  0.4125  1.2017
 9630TIP3    H250382   5.119  -0.021   0.475 -1.2524 -1.4412 -1.3651
 9631TIP3   OH250383   3.625   1.784  14.832 -0.0549  0.2197  0.5054
 9631TIP3    H150384   3.531   1.797  14.842 -0.3390  1.5013 -2.5255
 9631TIP3    H250385   3.633   1.711  14.771  0.9747 -0.5627  1.5496
 9632TIP3   OH250386   2.648   2.847  12.831  0.2197 -0.1177  0.0203
 9632TIP3    H150387   2.690   2.795  12.900 -0.6923 -1.0040 -0.0657
 9632TIP3    H250388   2.555   2.849  12.856  0.4689  3.1967  1.1122
 9633TIP3   OH250389   3.747   4.950  14.682  0.3568  0.6681 -0.0037
 9633TIP3    H150390   3.819   4.886  14.680 -1.7797 -1.9041 -0.2955
 9633TIP3    H250391   3.713   4.951  14.592 -1.6980 -0.3921  0.6911
 9634TIP3   OH250392   1.897   4.293  16.893  0.6291  0.5580  0.6327
 9634TIP3    H150393   1.844   4.340  16.957 -0.6970 -0.2708  0.1847
 9634TIP3    H250394   1.921   4.359  16.829 -0.9214  0.7283  0.1913
 9635TIP3   OH250395   3.894   2.293  12.473  0.2081  0.1767 -0.9823
 9635TIP3    H150396   3.863   2.381  12.451  0.3750  0.4738 -0.0900
 9635TIP3    H250397   3.819   2.236  12.461 -0.7634  0.8895  1.2154
 9636TIP3   OH250398   1.022   6.432   0.238 -0.2132  0.4345 -0.3266
 9636TIP3    H150399   1.100   6.377   0.233  0.5868  1.3313  1.3658
 9636TIP3    H250400   0.951   6.371   0.256  0.8150 -0.0530  2.6453
 9637TIP3   OH250401   1.693   3.689  16.853  0.1064 -0.5996 -0.0081
 9637TIP3    H150402   1.674   3.599  16.882  2.5324 -0.8556  1.0334
 9637TIP3    H250403   1.719   3.735  16.933 -2.0480  1.3738 -0.3553
 9638TIP3   OH250404   4.239   5.752  10.863  0.3892  0.1846 -0.0312
 9638TIP3    H150405   4.176   5.682  10.844 -0.5199  1.0690 -0.3159
 9638TIP3    H250406   4.306   5.743  10.794 -0.6530  0.6868 -1.1505
 9639TIP3   OH250407   2.595   5.831  12.191  0.5750  0.4994  0.3115
 9639TIP3    H150408   2.680   5.810  12.230  1.1988  1.1207 -0.6541
 9639TIP3    H250409   2.617   5.879  12.111 -0.6929  0.6481  0.0310
 9640TIP3   OH250410   4.082   3.151   1.634  0.3492 -0.4716 -0.0908
 9640TIP3    H150411   4.163   3.103   1.617  1.3849  1.2906 -0.3422
 9640TIP3    H250412   4.029   3.139   1.556  2.0159  1.5117 -1.6330
 9641TIP3   OH250413   0.346   2.757  11.677 -0.3904 -0.4686 -0.1957
 9641TIP3    H150414   0.264   2.807  11.679  0.5925  1.4065 -2.2834
 9641TIP3    H250415   0.318   2.666  11.668 -2.3290  0.2280 -2.3362
 9642TIP3   OH250416   4.041   1.231  13.420 -0.2544 -0.3165  0.0385
 9642TIP3    H150417   4.016   1.317  13.388  0.6439 -0.3020 -0.6650
 9642TIP3    H250418   3.971   1.173  13.390 -0.8407  0.1453  0.4788
 9643TIP3   OH250419   4.050   2.573  12.618 -0.1423  0.3798 -0.5313
 9643TIP3    H150420   4.064   2.551  12.526 -1.7151  0.7585 -0.8882
 9643TIP3    H250421   3.989   2.647  12.616  1.8643  2.2162  0.7539
 9644TIP3   OH250422   3.271   3.864   2.503 -0.2600 -0.5671 -0.1732
 9644TIP3    H150423   3.277   3.876   2.598 -0.0468 -0.0461 -0.2485
 9644TIP3    H250424   3.215   3.936   2.474 -0.5183 -0.8625 -0.4174
 9645TIP3   OH250425   3.883   2.064   0.136 -0.3535  0.1506  0.3200
 9645TIP3    H150426   3.841   2.148   0.118  0.2783  0.3063 -0.4417
 9645TIP3    H250427   3.977   2.081   0.129 -0.1239 -0.2172  1.9213
 9646TIP3   OH250428   5.722   0.705   2.063  0.2075  0.3512  0.1939
 9646TIP3    H150429   5.813   0.676   2.062  0.1386  0.1475 -0.4560
 9646TIP3    H250430   5.674   0.631   2.101  0.6104  1.4156  2.9957
 9647TIP3   OH250431   1.048   1.607  11.570  0.2813 -0.7287 -0.1175
 9647TIP3    H150432   1.053   1.700  11.592  0.1244 -0.5556 -0.7832
 9647TIP3    H250433   1.137   1.575  11.583  0.0376 -0.8233  1.5033
 9648TIP3   OH250434   1.482   6.690  14.832  0.7241 -0.0137  0.3852
 9648TIP3    H150435   1.463   6.646  14.750  2.2895  2.3530 -1.3956
 9648TIP3    H250436   1.552   6.638  14.872  1.6050  0.0828 -0.9834
 9649TIP3   OH250437   2.187   3.496   0.194 -0.0268  0.1980 -0.0396
 9649TIP3    H150438   2.124   3.460   0.132 -0.5383  0.8033  0.1117
 9649TIP3    H250439   2.181   3.439   0.270 -1.9314  1.3931  0.7967
 9650TIP3   OH250440   6.812   4.908   4.935  0.2457 -0.4854 -0.1315
 9650TIP3    H150441   6.759   4.837   4.971  0.1599 -0.6035 -0.4890
 9650TIP3    H250442   6.886   4.865   4.893  0.4244 -0.3405  0.0346
 9651TIP3   OH250443   4.672   2.531  15.506 -0.2012 -0.2231 -0.4563
 9651TIP3    H150444   4.737   2.467  15.533 -1.1895 -1.5608 -1.1328
 9651TIP3    H250445   4.606   2.529  15.576  0.4702  1.1628  0.2565
 9652TIP3   OH250446   0.829   4.492  17.149  0.0607 -0.2860 -0.4371
 9652TIP3    H150447   0.902   4.501  17.088  0.2234 -0.8851 -0.3368
 9652TIP3    H250448   0.851   4.414  17.201  0.3534  0.6715  0.9562
 9653TIP3   OH250449   2.135   1.615  11.105  0.0886 -0.0769  0.2356
 9653TIP3    H150450   2.091   1.619  11.190  0.5689  0.3113  0.4776
 9653TIP3    H250451   2.082   1.556  11.053 -1.2159  1.0586  0.2170
 9654TIP3   OH250452   4.967   2.504  12.504 -0.3348 -0.3937  0.1058
 9654TIP3    H150453   4.966   2.480  12.597 -1.0286 -0.7117  0.0216
 9654TIP3    H250454   4.891   2.560  12.492  0.3929  0.5858 -0.0411
 9655TIP3   OH250455   4.243   2.870   4.484  0.0810  0.7704  0.1836
 9655TIP3    H150456   4.225   2.846   4.393  1.9989 -0.7382  0.1404
 9655TIP3    H250457   4.333   2.903   4.484 -0.5220  2.5785  1.2640
 9656TIP3   OH250458   5.394   5.165   4.227  0.2417  0.2815  0.3931
 9656TIP3    H150459   5.446   5.208   4.159 -0.0260 -1.4636 -1.0174
 9656TIP3    H250460   5.458   5.130   4.289  0.6667 -0.2098 -0.3064
 9657TIP3   OH250461   5.034   0.169   1.774  0.1727  0.2858 -0.0413
 9657TIP3    H150462   5.070   0.082   1.793  0.6701  0.3647 -0.6257
 9657TIP3    H250463   4.992   0.195   1.856 -1.2768 -1.1313 -0.2853
 9658TIP3   OH250464   4.748   1.536   0.810 -0.0489 -1.0234  0.3588
 9658TIP3    H150465   4.749   1.463   0.747 -1.3984  1.1111 -2.3113
 9658TIP3    H250466   4.812   1.598   0.776 -0.2367 -0.1159  1.5763
 9659TIP3   OH250467   3.936   0.674  11.981  0.0222  0.2466 -0.0264
 9659TIP3    H150468   3.879   0.751  11.988  0.6014  0.9882 -2.6177
 9659TIP3    H250469   3.877   0.600  11.998 -1.1983  1.1069 -0.3746
 9660TIP3   OH250470   0.215   0.547   0.536 -0.6532  0.5838 -0.1698
 9660TIP3    H150471   0.248   0.612   0.474 -1.0766  0.4007 -0.5951
 9660TIP3    H250472   0.140   0.507   0.491 -0.6292  0.0690  0.2402
 9661TIP3   OH250473   3.562   1.521  16.108 -0.1271 -0.1926 -0.7607
 9661TIP3    H150474   3.635   1.581  16.126  0.4762 -1.8585  3.5638
 9661TIP3    H250475   3.598   1.434  16.125 -2.5321 -1.2523 -0.6709
 9662TIP3   OH250476   5.876   1.580  14.994  0.2483 -0.2088  0.1930
 9662TIP3    H150477   5.947   1.644  15.003 -1.1641  1.6993 -1.2473
 9662TIP3    H250478   5.920   1.495  14.990  2.3505  0.8057  0.4720
 9663TIP3   OH250479   1.052   3.016   2.112  0.1013  0.3369  0.6768
 9663TIP3    H150480   1.127   3.038   2.057  0.5160 -0.6166  0.8376
 9663TIP3    H250481   1.034   2.925   2.092 -0.1784  0.1822  1.6045
 9664TIP3   OH250482   0.042   0.524  10.545 -0.6458  0.8094  0.3363
 9664TIP3    H150483   0.039   0.578  10.466 -0.6237  0.8188  0.3420
 9664TIP3    H250484   0.052   0.587  10.616 -0.3644  0.7802  0.3216
 9665TIP3   OH250485   6.038   4.244  13.108  0.2484  0.4343  0.8825
 9665TIP3    H150486   6.046   4.330  13.065  1.8627 -0.2860 -0.3772
 9665TIP3    H250487   6.033   4.265  13.202 -0.1934  1.9243  0.5598
 9666TIP3   OH250488   4.530   0.369   1.447 -0.3820 -0.0678 -0.3833
 9666TIP3    H150489   4.538   0.463   1.460  0.1626 -0.0294 -0.9441
 9666TIP3    H250490   4.527   0.357   1.352 -0.0083 -0.6406 -0.3332
 9667TIP3   OH250491   1.959   1.300   0.154 -0.4175  0.5085  0.3991
 9667TIP3    H150492   1.920   1.263   0.233 -0.3764  2.8390  1.5942
 9667TIP3    H250493   2.017   1.369   0.186 -0.3205  1.4519 -1.6630
 9668TIP3   OH250494   0.897   6.798  11.642  0.7436  0.0818  0.5161
 9668TIP3    H150495   0.837   6.805  11.716 -0.2624 -2.2101  0.0017
 9668TIP3    H250496   0.853   6.738  11.581  3.2760 -1.2060 -0.1795
 9669TIP3   OH250497   0.467   4.239  16.608 -0.1721 -0.2958  0.3749
 9669TIP3    H150498   0.380   4.201  16.595  0.2570 -1.0526 -0.3673
 9669TIP3    H250499   0.527   4.165  16.597  0.7374  0.6728 -1.8202
 9670TIP3   OH250500   6.637   6.091  12.050 -0.2643  0.0867 -0.2320
 9670TIP3    H150501   6.712   6.118  12.103 -1.8118 -0.1227  2.2250
 9670TIP3    H250502   6.584   6.170  12.041  0.1236  0.1981 -1.8262
 9671TIP3   OH250503   4.949   1.193   1.804  0.3558  0.3424 -0.3385
 9671TIP3    H150504   4.895   1.219   1.729 -0.9335 -2.3152 -0.4458
 9671TIP3    H250505   4.927   1.101   1.818  1.4832  0.4287  2.5585
 9672TIP3   OH250506   5.949   0.283   5.626  0.8689  0.1716 -0.2273
 9672TIP3    H150507   5.897   0.353   5.587  0.1618 -0.4727 -0.4659
 9672TIP3    H250508   6.024   0.274   5.567  1.4332  1.3103  0.2854
 9673TIP3   OH250509   6.398   0.035  15.078  0.4785  0.6055 -0.0800
 9673TIP3    H150510   6.395   0.049  14.983 -0.0095 -0.1577 -0.1854
 9673TIP3    H250511   6.430   0.118  15.113 -1.6229  1.7691 -0.7210
 9674TIP3   OH250512   1.831   0.037  11.062  0.4848  0.3373 -0.0269
 9674TIP3    H150513   1.916   0.075  11.080  1.9895 -2.2972 -0.9935
 9674TIP3    H250514   1.816   0.055  10.969  0.1133  0.5626  0.0757
 9675TIP3   OH250515   0.417   3.444   2.437  0.3225 -0.0448  0.0169
 9675TIP3    H150516   0.409   3.523   2.489 -0.3129 -0.0201 -0.1131
 9675TIP3    H250517   0.467   3.471   2.360  1.3757 -0.1123  0.6579
 9676TIP3   OH250518   0.538   4.858  16.837  0.0645 -0.0927 -0.0373
 9676TIP3    H150519   0.493   4.856  16.922 -0.9028 -2.8009 -0.4874
 9676TIP3    H250520   0.623   4.818  16.855  0.2281  0.2105 -0.1490
 9677TIP3   OH250521   0.471   3.901   1.090  0.0689  0.1268 -0.7526
 9677TIP3    H150522   0.422   3.885   1.171  1.2237 -0.8739 -0.2228
 9677TIP3    H250523   0.408   3.944   1.032 -0.1365  3.1960  1.5094
 9678TIP3   OH250524   4.183   1.427  13.882  0.0874  0.2356 -0.0466
 9678TIP3    H150525   4.174   1.499  13.944 -1.6824  1.2902 -1.4198
 9678TIP3    H250526   4.126   1.451  13.809 -1.2828 -2.9726 -0.2035
 9679TIP3   OH250527   0.392   5.028  10.305 -0.0708  0.0022 -0.2990
 9679TIP3    H150528   0.306   5.040  10.266  0.1301  3.3585 -0.0712
 9679TIP3    H250529   0.444   4.985  10.238 -0.8898  1.6816 -2.1174
 9680TIP3   OH250530   0.352   3.056   6.100 -0.1410 -0.1633 -0.3577
 9680TIP3    H150531   0.445   3.033   6.106 -0.0960  0.0478 -0.2580
 9680TIP3    H250532   0.345   3.141   6.144 -0.5927 -0.7493  0.7498
 9681TIP3   OH250533   0.526   3.481  11.542 -0.0196 -0.2372  0.1764
 9681TIP3    H150534   0.475   3.546  11.493 -0.6319 -1.7008 -1.2229
 9681TIP3    H250535   0.474   3.401  11.536  0.9758 -1.0150  1.3869
 9682TIP3   OH250536   3.301   0.802  14.539  0.7264  0.0698 -0.0503
 9682TIP3    H150537   3.333   0.712  14.527  0.3465 -0.5217  2.6412
 9682TIP3    H250538   3.206   0.795  14.528  0.8002  0.4329 -1.0637
 9683TIP3   OH250539   0.518   4.411  16.166  0.3570 -0.3440  0.6396
 9683TIP3    H150540   0.548   4.325  16.137  0.1110 -0.0790 -0.4433
 9683TIP3    H250541   0.481   4.452  16.088  0.2133  0.6425  1.1961
 9684TIP3   OH250542   1.200   6.414   1.992  0.3133 -0.2453  0.3288
 9684TIP3    H150543   1.150   6.458   1.923  0.7697  0.8078  0.6516
 9684TIP3    H250544   1.228   6.331   1.952 -3.7167 -2.1350  0.9072
 9685TIP3   OH250545   3.222   5.720  11.226 -0.4606  0.0922 -0.7073
 9685TIP3    H150546   3.249   5.765  11.306  0.1524 -0.6720 -0.4697
 9685TIP3    H250547   3.139   5.678  11.249 -0.7421  0.6125 -0.7550
 9686TIP3   OH250548   6.230   6.512  16.887 -0.3890  0.1541  0.4006
 9686TIP3    H150549   6.236   6.473  16.975  0.9107  1.1703  0.7992
 9686TIP3    H250550   6.305   6.571  16.882 -1.2679  1.2195 -0.8618
 9687TIP3   OH250551   2.847   2.227   5.217 -0.0140 -0.5911 -0.1130
 9687TIP3    H150552   2.904   2.242   5.141  0.7155 -2.3333  0.0314
 9687TIP3    H250553   2.881   2.146   5.256 -0.9689 -0.2407  1.5252
 9688TIP3   OH250554   5.929   6.475  13.228 -0.0124  0.0975  0.2392
 9688TIP3    H150555   5.887   6.546  13.277  0.3687  0.9733 -0.6690
 9688TIP3    H250556   5.881   6.397  13.254 -0.1081  0.5965  1.6715
 9689TIP3   OH250557   2.598   6.596  16.050  0.0357 -0.3278  0.1855
 9689TIP3    H150558   2.591   6.682  16.092  0.6201 -1.0850  1.9447
 9689TIP3    H250559   2.684   6.595  16.009 -0.1295  0.0603 -0.1703
 9690TIP3   OH250560   1.985   2.691   4.596 -0.8663 -0.2798 -0.0877
 9690TIP3    H150561   2.030   2.752   4.538 -0.1012 -1.0520 -0.3306
 9690TIP3    H250562   1.923   2.745   4.645 -1.5822  0.3841 -1.6604
 9691TIP3   OH250563   0.442   1.276   2.776  0.1043  0.7392 -0.3012
 9691TIP3    H150564   0.442   1.291   2.871 -0.7755  0.4169 -0.2445
 9691TIP3    H250565   0.402   1.355   2.740  2.1650  1.7237 -0.5735
 9692TIP3   OH250566   3.195   3.014   4.430 -0.0390  0.2424 -0.4518
 9692TIP3    H150567   3.260   3.066   4.477  0.6926  0.3779 -1.5758
 9692TIP3    H250568   3.222   2.923   4.444 -0.0798  0.2604 -0.2530
 9693TIP3   OH250569   3.625   5.634   1.126  0.3620  0.1545 -0.5955
 9693TIP3    H150570   3.676   5.652   1.205 -0.7076  2.8240 -0.4098
 9693TIP3    H250571   3.544   5.683   1.139 -0.2742 -0.2060 -2.9000
 9694TIP3   OH250572   3.064   4.481  13.051  0.6112 -0.2627 -0.4322
 9694TIP3    H150573   2.990   4.421  13.047 -1.0812  1.7563 -2.3369
 9694TIP3    H250574   3.045   4.537  13.127 -2.9790  3.6436 -3.6420
 9695TIP3   OH250575   0.682   4.847  11.159 -0.6784 -0.3303  0.0051
 9695TIP3    H150576   0.652   4.851  11.068 -0.8721  2.8695  0.0960
 9695TIP3    H250577   0.777   4.840  11.152 -0.7214 -0.5110 -0.4523
 9696TIP3   OH250578   4.421   5.122  12.267 -0.4482 -0.4941  0.5116
 9696TIP3    H150579   4.413   5.177  12.345  1.7673 -1.7558  1.7169
 9696TIP3    H250580   4.397   5.034  12.297  1.8288 -1.2801  0.1981
 9697TIP3   OH250581   3.861   1.124   0.610  0.9284  0.6025 -0.4045
 9697TIP3    H150582   3.799   1.060   0.575  0.0451  0.5948  1.0819
 9697TIP3    H250583   3.844   1.203   0.560  1.1749  0.0294 -1.4211
 9698TIP3   OH250584   0.941   3.690   1.631  0.3188 -0.3311 -0.4397
 9698TIP3    H150585   0.856   3.647   1.641  0.5128 -1.2350 -2.3041
 9698TIP3    H250586   1.000   3.620   1.606  1.5252  0.3743  0.3541
 9699TIP3   OH250587   3.336   1.627   2.112  0.1145 -0.6429 -0.5932
 9699TIP3    H150588   3.247   1.652   2.086  0.2424  1.3349  0.6711
 9699TIP3    H250589   3.350   1.674   2.195  1.9936 -1.6895 -0.2781
 9700TIP3   OH250590   2.571   0.509  11.096  0.1321  0.1618  0.1751
 9700TIP3    H150591   2.644   0.458  11.063 -0.0270 -0.0698  0.1743
 9700TIP3    H250592   2.521   0.533  11.018 -0.7447 -1.1545  0.2918
 9701TIP3   OH250593   5.790   3.131   1.246  0.3706 -0.0993  0.2796
 9701TIP3    H150594   5.837   3.208   1.213  1.6482 -1.0599 -0.2684
 9701TIP3    H250595   5.829   3.058   1.198 -1.7297 -0.9762 -0.2054
 9702TIP3   OH250596   2.481   2.466   3.968  0.1822 -0.1377 -0.1793
 9702TIP3    H150597   2.538   2.518   3.911  0.7603 -0.1095  0.4105
 9702TIP3    H250598   2.405   2.522   3.984 -1.1719 -1.0352 -2.8470
 9703TIP3   OH250599   4.256   2.236   6.566  0.4964  0.4134  0.1405
 9703TIP3    H150600   4.328   2.299   6.565  0.8014  0.0852 -1.2006
 9703TIP3    H250601   4.283   2.169   6.628 -0.3858  2.1682  2.5478
 9704TIP3   OH250602   5.613   4.790   1.528  0.5491 -0.2341 -0.2869
 9704TIP3    H150603   5.542   4.853   1.518  0.1336  0.1442  3.5619
 9704TIP3    H250604   5.570   4.705   1.537  0.7742 -0.3871 -0.6431
 9705TIP3   OH250605   4.822   4.118   2.869  0.4207  0.2150  0.3956
 9705TIP3    H150606   4.790   4.039   2.912  0.6882  0.7268  1.5759
 9705TIP3    H250607   4.873   4.086   2.795 -1.6981 -0.6419 -0.7656
 9706TIP3   OH250608   0.138   1.441  12.250  0.0394  0.3026 -0.1121
 9706TIP3    H150609   0.104   1.530  12.240  0.0956  0.2299 -0.9982
 9706TIP3    H250610   0.232   1.452  12.260 -0.0142  0.3739  0.3395
 9707TIP3   OH250611   5.909   4.831   5.370  0.5135 -0.0440  0.2983
 9707TIP3    H150612   5.975   4.762   5.379  0.5022 -0.0294  0.5013
 9707TIP3    H250613   5.835   4.800   5.422  0.1543 -0.3115 -0.3599
 9708TIP3   OH250614   2.764   2.630  13.953  0.3289  0.3624  0.2886
 9708TIP3    H150615   2.835   2.573  13.923 -1.2164 -0.5574 -1.8886
 9708TIP3    H250616   2.760   2.700  13.887 -1.4720 -0.2256 -0.2838
 9709TIP3   OH250617   2.632   4.400   0.417 -0.1316  0.5796  0.1272
 9709TIP3    H150618   2.653   4.319   0.464  1.2193  1.9967  2.1144
 9709TIP3    H250619   2.572   4.447   0.475 -1.4681  0.7704 -1.3216
 9710TIP3   OH250620   6.734   5.313  15.490 -0.3146  0.2633  0.1901
 9710TIP3    H150621   6.827   5.334  15.495 -0.4210  0.7440  0.1936
 9710TIP3    H250622   6.707   5.343  15.403 -0.3582 -0.3389 -0.0125
 9711TIP3   OH250623   1.264   4.945  10.399  0.5684 -0.0567  0.0912
 9711TIP3    H150624   1.178   4.986  10.392  0.1402 -0.3970  2.5574
 9711TIP3    H250625   1.254   4.879  10.467  2.8844  0.1982  0.7794
 9712TIP3   OH250626   1.195   5.104  14.551 -1.0720 -0.6115 -0.2903
 9712TIP3    H150627   1.215   5.186  14.596 -0.1216 -0.5494 -0.7990
 9712TIP3    H250628   1.102   5.090  14.566 -1.2680  0.6218 -0.2809
 9713TIP3   OH250629   4.851   6.651   3.996 -0.3679  0.1185 -0.1288
 9713TIP3    H150630   4.793   6.715   4.037  0.0586  0.9636 -0.8043
 9713TIP3    H250631   4.811   6.566   4.015 -0.7301  0.5498  1.1218
 9714TIP3   OH250632   2.189   1.790   4.649 -0.2673 -0.7863 -0.2354
 9714TIP3    H150633   2.256   1.797   4.717  1.0566 -0.3331 -1.5261
 9714TIP3    H250634   2.116   1.843   4.682 -0.0159 -1.2737  1.1927
 9715TIP3   OH250635   2.948   4.194   5.630  0.1322  0.0277 -0.3209
 9715TIP3    H150636   2.887   4.135   5.586 -2.1368  2.9166 -1.4153
 9715TIP3    H250637   2.932   4.179   5.723 -1.1762 -0.3661 -0.5841
 9716TIP3   OH250638   6.229   2.694  16.758  0.6743  0.7343 -0.2082
 9716TIP3    H150639   6.230   2.714  16.851  0.8928  1.4617 -0.3617
 9716TIP3    H250640   6.183   2.610  16.752 -0.6386  1.3820  0.4108
 9717TIP3   OH250641   0.871   5.921  16.112  0.0968 -0.0366  0.2903
 9717TIP3    H150642   0.793   5.954  16.068  0.4239 -1.4363 -1.4497
 9717TIP3    H250643   0.898   5.992  16.170 -0.4151  1.9131 -1.7337
 9718TIP3   OH250644   5.257   0.328   6.532  0.4640 -0.2200  0.1852
 9718TIP3    H150645   5.200   0.401   6.555 -1.3384 -0.6715 -2.4034
 9718TIP3    H250646   5.229   0.257   6.589  0.0619  0.2452  0.5783
 9719TIP3   OH250647   6.639   6.325  12.675 -0.5223 -0.8891  0.2772
 9719TIP3    H150648   6.681   6.380  12.741 -1.3763  0.6002 -0.3707
 9719TIP3    H250649   6.546   6.349  12.680 -0.8825 -2.1219 -0.1808
 9720TIP3   OH250650   0.027   0.414  17.141 -0.1023 -0.4598 -0.9082
 9720TIP3    H150651  -0.040   0.394  17.076 -1.1227  0.3799 -0.1765
 9720TIP3    H250652   0.099   0.452  17.091  0.0118 -1.7586 -1.7632
 9721TIP3   OH250653   1.785   6.168  16.649 -0.1875 -0.3762  0.1975
 9721TIP3    H150654   1.730   6.172  16.571  0.4261 -0.0018 -0.2335
 9721TIP3    H250655   1.872   6.145  16.615 -0.2854 -1.9627  0.9676
 9722TIP3   OH250656   2.900   4.021  15.641  0.1949 -0.1145 -0.4951
 9722TIP3    H150657   2.976   4.034  15.585  1.1373 -1.4780  0.4011
 9722TIP3    H250658   2.935   4.024  15.730 -0.8143 -0.6899 -0.0626
 9723TIP3   OH250659   6.064   5.237  11.805 -0.2002  0.4186  0.1545
 9723TIP3    H150660   6.013   5.268  11.730  1.7919  0.1855 -1.3833
 9723TIP3    H250661   6.038   5.146  11.816 -0.4501  0.4336 -0.2972
 9724TIP3   OH250662   3.281   6.070  13.660  0.1940 -0.0607  0.1616
 9724TIP3    H150663   3.275   6.144  13.600  1.2303  0.2128  0.3683
 9724TIP3    H250664   3.288   5.993  13.603 -0.6516  0.0155 -0.0546
 9725TIP3   OH250665   3.756   5.728   1.400  0.1755  0.3217  0.0526
 9725TIP3    H150666   3.843   5.764   1.420  0.3850 -0.1351  0.0023
 9725TIP3    H250667   3.712   5.723   1.485  1.2276 -2.0355  0.5416
 9726TIP3   OH250668   2.973   6.722  12.449  0.1843  0.2181 -0.2039
 9726TIP3    H150669   3.017   6.711  12.365  0.8702  0.9431  0.0525
 9726TIP3    H250670   3.043   6.738  12.512 -0.3186 -0.3425  0.5239
 9727TIP3   OH250671   3.662   1.664   1.798 -0.1382 -0.0461  0.1279
 9727TIP3    H150672   3.691   1.723   1.868 -0.0696  0.1099 -0.0316
 9727TIP3    H250673   3.741   1.645   1.748 -0.2066 -0.0746  0.0309
 9728TIP3   OH250674   3.695   2.935   1.658  0.1618  0.0273  0.5232
 9728TIP3    H150675   3.679   3.028   1.672 -0.5353  0.7170 -3.6738
 9728TIP3    H250676   3.611   2.900   1.628  0.7503 -1.6652  0.7579
 9729TIP3   OH250677   6.382   1.511   0.296 -0.1374  0.3399 -0.4263
 9729TIP3    H150678   6.399   1.525   0.203 -3.1255  2.4725 -0.8174
 9729TIP3    H250679   6.387   1.599   0.334  0.3769 -0.4108  1.3285
 9730TIP3   OH250680   2.628   5.817   3.484 -0.5523 -0.8736  0.2700
 9730TIP3    H150681   2.593   5.729   3.497 -1.7130 -0.6243 -1.0001
 9730TIP3    H250682   2.558   5.866   3.442  0.1361  0.6283  0.7788
 9731TIP3   OH250683   5.629   1.152  14.423 -0.3096  0.0065  0.7805
 9731TIP3    H150684   5.659   1.104  14.500 -0.3011  1.4903  1.7461
 9731TIP3    H250685   5.656   1.242  14.439 -0.0367  0.3015 -1.1189
 9732TIP3   OH250686   5.455   0.994  12.149 -0.2240  0.7250  0.1667
 9732TIP3    H150687   5.526   1.057  12.136  0.4165  0.4039  1.7807
 9732TIP3    H250688   5.476   0.921  12.091 -0.1803  1.3500 -0.6238
 9733TIP3   OH250689   3.512   6.172   0.385 -0.0518  0.4075  0.3354
 9733TIP3    H150690   3.474   6.100   0.334 -0.3645 -0.5420  1.8337
 9733TIP3    H250691   3.436   6.226   0.410  0.1511  1.1336 -0.5511
 9734TIP3   OH250692   5.779   4.418  15.012 -0.2601  0.1705  0.1835
 9734TIP3    H150693   5.859   4.407  14.960  0.2114 -0.1395  0.9581
 9734TIP3    H250694   5.740   4.331  15.012  0.1428 -0.0192  0.9774
 9735TIP3   OH250695   3.622   2.104   4.785 -0.3687 -0.3879 -0.4021
 9735TIP3    H150696   3.570   2.182   4.763  0.6861  0.7364  0.9081
 9735TIP3    H250697   3.578   2.067   4.862 -0.2441 -0.4450 -0.3578
 9736TIP3   OH250698   3.798   6.258   1.185 -0.3785  0.0081  0.4973
 9736TIP3    H150699   3.710   6.229   1.207 -0.8157 -0.7409 -1.9531
 9736TIP3    H250700   3.788   6.310   1.106  1.5833 -2.8420 -1.8874
 9737TIP3   OH250701   4.902   3.894  15.071  0.0677 -0.3350 -0.0327
 9737TIP3    H150702   4.969   3.881  15.139  0.0282 -0.1558  0.0412
 9737TIP3    H250703   4.951   3.926  14.996  0.1282 -0.6459 -0.1294
 9738TIP3   OH250704   0.998   4.949   5.717  0.2301  0.0717  0.4516
 9738TIP3    H150705   0.905   4.927   5.730 -0.5468  1.8879 -1.4368
 9738TIP3    H250706   1.028   4.883   5.654  0.8526 -1.7341  2.5161
 9739TIP3   OH250707   5.040   1.831  14.759  0.4476  0.1330  0.0950
 9739TIP3    H150708   5.130   1.836  14.729 -0.2822 -2.4699 -3.1084
 9739TIP3    H250709   4.998   1.910  14.724  0.9420  0.0959 -0.5939
 9740TIP3   OH250710   6.764   3.833   3.161  0.0146 -0.2768 -0.3586
 9740TIP3    H150711   6.717   3.915   3.146  0.3179  0.1927  1.1137
 9740TIP3    H250712   6.745   3.780   3.084 -0.6723  0.9495 -1.0598
 9741TIP3   OH250713   0.081   6.581  13.301  0.6785 -0.2228  0.2373
 9741TIP3    H150714   0.018   6.639  13.343  1.9418  0.7944  0.8092
 9741TIP3    H250715   0.039   6.554  13.219 -0.7348 -0.0953  0.8972
 9742TIP3   OH250716   3.668   4.251   3.471 -0.4151 -0.0479  0.3369
 9742TIP3    H150717   3.653   4.156   3.473  2.2570 -0.5807 -0.5125
 9742TIP3    H250718   3.760   4.261   3.496 -0.7354  2.3863  0.8047
 9743TIP3   OH250719   4.247   5.719  16.189  0.6938 -0.0453 -0.1108
 9743TIP3    H150720   4.222   5.797  16.139 -0.3681 -0.4973 -0.3126
 9743TIP3    H250721   4.261   5.750  16.278  0.7342  0.4551 -0.2931
 9744TIP3   OH250722   2.313   1.260   1.734  0.1246 -0.0570  0.5179
 9744TIP3    H150723   2.239   1.228   1.786 -0.6714  0.2832 -0.3709
 9744TIP3    H250724   2.276   1.278   1.648  1.0148  1.1140  0.3435
 9745TIP3   OH250725   0.995   0.837  13.770 -0.1792 -0.1445 -0.2809
 9745TIP3    H150726   0.995   0.933  13.779 -1.4051 -0.2607  1.4623
 9745TIP3    H250727   1.087   0.813  13.781  0.0224  0.7818  0.2638
 9746TIP3   OH250728   1.649   5.484  10.796  0.2675  0.0711 -0.3004
 9746TIP3    H150729   1.566   5.513  10.757 -0.2611  2.1605  2.1302
 9746TIP3    H250730   1.716   5.512  10.733 -0.7714 -1.7076 -2.3406
 9747TIP3   OH250731   4.357   1.287   2.421 -0.0462 -0.0602 -0.3201
 9747TIP3    H150732   4.305   1.214   2.390  0.3744 -0.3768 -0.2866
 9747TIP3    H250733   4.298   1.336   2.479 -0.0183 -0.9419  0.4758
 9748TIP3   OH250734   0.773   0.338  16.827 -0.0656 -0.0114 -0.3423
 9748TIP3    H150735   0.726   0.274  16.880 -0.5460 -1.8406 -2.7902
 9748TIP3    H250736   0.704   0.391  16.787  0.2553  0.9518  0.3573
 9749TIP3   OH250737   1.894   0.989  14.232  0.4583  0.2627 -0.7567
 9749TIP3    H150738   1.873   0.964  14.322  0.8740  1.6354 -0.2453
 9749TIP3    H250739   1.855   0.920  14.178  2.2895 -1.9588  0.5459
 9750TIP3   OH250740   4.085   2.882  14.637  0.5454  0.2782 -0.5346
 9750TIP3    H150741   4.062   2.815  14.701 -0.0912  0.3045 -0.7293
 9750TIP3    H250742   4.105   2.834  14.557 -0.5380  0.3324 -0.8622
 9751TIP3   OH250743   4.049   2.119  13.125 -0.0687 -0.2361  0.1653
 9751TIP3    H150744   3.992   2.169  13.066  0.9500 -0.3126 -0.9129
 9751TIP3    H250745   4.137   2.150  13.105  0.5856 -2.3584 -0.4490
 9752TIP3   OH250746   1.956   6.583   2.344  0.2695 -0.4446  0.0513
 9752TIP3    H150747   1.883   6.572   2.405 -0.7595 -0.6120 -1.1814
 9752TIP3    H250748   1.924   6.551   2.260  2.2273 -1.8379 -0.2442
 9753TIP3   OH250749   0.096   3.915  11.075  0.5343 -1.0002  0.1255
 9753TIP3    H150750   0.135   3.970  11.008  2.2832  2.4538  3.5421
 9753TIP3    H250751   0.014   3.958  11.097  0.5773 -1.3376  1.0121
 9754TIP3   OH250752   5.356   0.874  10.987  0.0608  0.3093  0.5215
 9754TIP3    H150753   5.390   0.793  10.950 -1.2543 -0.3236  0.6437
 9754TIP3    H250754   5.430   0.934  10.985  1.8224 -1.5991  2.7174
 9755TIP3   OH250755   6.477   1.930   1.743 -0.7734 -0.0327  0.4038
 9755TIP3    H150756   6.414   1.874   1.787 -1.4021  1.3574  1.3300
 9755TIP3    H250757   6.472   2.014   1.789  1.0518  0.4200 -0.1121
 9756TIP3   OH250758   0.113   3.520  11.517  0.0948  1.0256  0.4548
 9756TIP3    H150759   0.203   3.551  11.524  1.0089 -1.1593 -0.6818
 9756TIP3    H250760   0.080   3.522  11.607  1.3258  1.6539  0.9165
 9757TIP3   OH250761   4.681   4.070  12.190 -0.1809 -0.0909 -0.6273
 9757TIP3    H150762   4.706   3.980  12.212 -1.1316 -0.2793 -0.2448
 9757TIP3    H250763   4.682   4.116  12.274 -0.8493 -0.0561 -0.6270
 9758TIP3   OH250764   5.799   3.821   3.884  0.2604  0.9617  0.2388
 9758TIP3    H150765   5.861   3.770   3.833 -0.4956 -2.1928  2.2056
 9758TIP3    H250766   5.713   3.787   3.859 -0.3429  1.7488  1.1596
 9759TIP3   OH250767   0.206   3.732   3.170  0.2510 -0.0023 -0.8201
 9759TIP3    H150768   0.238   3.791   3.102  1.9000  1.0542  0.7929
 9759TIP3    H250769   0.110   3.739   3.165  0.2863 -0.4274 -3.3730
 9760TIP3   OH250770   1.686   5.514   5.571  0.1606  0.0274  0.3980
 9760TIP3    H150771   1.708   5.463   5.649 -0.9576  1.1521  1.4957
 9760TIP3    H250772   1.604   5.558   5.593  0.8358  1.9389 -0.6304
 9761TIP3   OH250773   3.564   5.717   3.901 -0.3346 -0.6289 -0.3386
 9761TIP3    H150774   3.603   5.630   3.901 -1.6250 -1.2391 -0.6070
 9761TIP3    H250775   3.604   5.762   3.976  2.6019 -0.3531 -1.9331
 9762TIP3   OH250776   3.577   5.556   4.971 -0.2958  0.9535 -0.4962
 9762TIP3    H150777   3.542   5.479   5.016  0.3338  0.8918 -0.1062
 9762TIP3    H250778   3.516   5.626   4.992  0.6671  1.2409  1.5530
 9763TIP3   OH250779   0.709   0.910  15.095  0.0479 -0.6803 -0.1348
 9763TIP3    H150780   0.668   0.889  15.179  0.2621 -1.3130 -0.1759
 9763TIP3    H250781   0.788   0.958  15.118 -1.1036  1.2819 -0.0880
 9764TIP3   OH250782   5.591   6.058  16.503  0.3412  0.5230 -0.3903
 9764TIP3    H150783   5.548   6.027  16.582  0.3296  3.0546  0.6813
 9764TIP3    H250784   5.523   6.057  16.436 -0.6446  1.6553  0.5477
 9765TIP3   OH250785   3.372   1.771   5.735 -0.4859 -0.0994 -0.5219
 9765TIP3    H150786   3.441   1.737   5.678  1.0504  0.9434  0.6003
 9765TIP3    H250787   3.347   1.855   5.696 -0.0376  0.2160 -0.1472
 9766TIP3   OH250788   0.798   5.910   3.080  0.1120 -0.0056  0.2494
 9766TIP3    H150789   0.725   5.966   3.054 -0.4399  0.3312  2.3721
 9766TIP3    H250790   0.758   5.841   3.133  1.1344 -0.8170 -0.0123
 9767TIP3   OH250791   0.557   1.791   1.261 -0.4005  0.1501  0.1239
 9767TIP3    H150792   0.511   1.775   1.344  0.8458  0.6452  0.9444
 9767TIP3    H250793   0.565   1.887   1.256  0.2427  0.0889 -0.1493
 9768TIP3   OH250794   2.710   1.062   3.487  0.6118  0.0117  0.0100
 9768TIP3    H150795   2.741   1.113   3.562 -2.7331  1.2224  0.7073
 9768TIP3    H250796   2.690   0.975   3.523  0.4156  0.1225  0.1615
 9769TIP3   OH250797   4.878   0.666  14.265 -0.2023 -0.7943 -0.1052
 9769TIP3    H150798   4.794   0.703  14.292  0.7984  1.4911  0.1059
 9769TIP3    H250799   4.924   0.650  14.348  1.3875  2.6457 -0.1235
 9770TIP3   OH250800   5.374   4.740  16.123 -0.9661 -0.1776 -0.2060
 9770TIP3    H150801   5.443   4.806  16.128  0.1518 -1.3241  0.2218
 9770TIP3    H250802   5.309   4.778  16.065 -1.5604  2.3220  1.8774
 9771TIP3   OH250803   6.273   4.417   6.791 -0.1398  0.2768 -0.2922
 9771TIP3    H150804   6.324   4.362   6.733  2.0685  2.3252 -0.4649
 9771TIP3    H250805   6.326   4.496   6.802 -1.2906  0.7555  3.0523
 9772TIP3   OH250806   6.325   5.850   5.242  0.1582 -0.2659 -0.2383
 9772TIP3    H150807   6.269   5.909   5.293 -1.2264 -1.0734 -0.7689
 9772TIP3    H250808   6.312   5.877   5.151  0.9647 -0.1992 -0.3393
 9773TIP3   OH250809   1.460   2.540  13.715  0.1463  0.0964  0.5352
 9773TIP3    H150810   1.509   2.607  13.764 -2.5676  2.8749 -0.2245
 9773TIP3    H250811   1.382   2.524  13.768 -1.4190  0.9831 -1.3818
 9774TIP3   OH250812   0.668   5.619   5.392 -0.7061 -0.1759  0.4889
 9774TIP3    H150813   0.711   5.547   5.438  2.6823  0.7759 -0.9000
 9774TIP3    H250814   0.637   5.677   5.461 -1.4736 -1.7932  1.5767
 9775TIP3   OH250815   2.489   3.099   2.184 -0.1105  0.0748 -0.1914
 9775TIP3    H150816   2.579   3.106   2.214 -0.4901  0.2488  0.9605
 9775TIP3    H250817   2.436   3.099   2.265 -1.1334 -0.0565 -0.8368
 9776TIP3   OH250818   5.247   2.005   4.244  0.2159  0.9758  0.0885
 9776TIP3    H150819   5.336   1.997   4.211 -0.5556  0.6402 -2.0740
 9776TIP3    H250820   5.249   1.960   4.329  2.0850  1.0061  0.0982
 9777TIP3   OH250821   1.208   5.468   4.565 -0.6269 -0.2161  0.2072
 9777TIP3    H150822   1.193   5.492   4.473 -2.1392  2.1264  0.9636
 9777TIP3    H250823   1.141   5.402   4.583 -0.3413 -0.6699 -0.3590
 9778TIP3   OH250824   4.724   5.270   1.552 -0.5700  0.2175  0.0125
 9778TIP3    H150825   4.754   5.301   1.638 -0.7612  0.6175 -0.0641
 9778TIP3    H250826   4.748   5.341   1.492  0.9065 -0.6777 -0.5199
 9779TIP3   OH250827   0.981   2.945  14.805  0.3788  0.0681  0.5614
 9779TIP3    H150828   1.034   2.889  14.862 -0.5160  2.9256  4.6526
 9779TIP3    H250829   1.028   3.028  14.801 -1.7091  1.3774  0.9872
 9780TIP3   OH250830   6.365   6.436  12.805 -0.2912 -0.3748  0.1258
 9780TIP3    H150831   6.322   6.390  12.876 -0.7878 -2.7928 -1.6254
 9780TIP3    H250832   6.399   6.516  12.845  0.6062 -2.2031  3.3475
 9781TIP3   OH250833   0.432   3.062  14.194  0.7705 -0.2294 -0.5346
 9781TIP3    H150834   0.518   3.073  14.234  1.3497 -0.3761 -1.7008
 9781TIP3    H250835   0.410   3.148  14.159 -0.0096  0.0523  0.6112
 9782TIP3   OH250836   6.008   2.485  16.703  0.8140 -0.1164 -0.4105
 9782TIP3    H150837   6.048   2.418  16.759  0.6792  0.0480 -0.1175
 9782TIP3    H250838   5.954   2.537  16.763  0.4099 -0.1441 -0.7483
 9783TIP3   OH250839   4.415   3.522   4.421 -0.1587  0.4883  0.3512
 9783TIP3    H150840   4.494   3.477   4.453 -0.2593  0.2244  0.2357
 9783TIP3    H250841   4.448   3.592   4.365  0.0725  1.8831  2.1698
 9784TIP3   OH250842   4.428   4.894   4.730  0.6396  0.6635 -0.1146
 9784TIP3    H150843   4.423   4.817   4.787 -0.0692  0.6463 -0.1875
 9784TIP3    H250844   4.456   4.859   4.645 -0.3183  0.3715 -0.3278
 9785TIP3   OH250845   1.634   1.947  17.225  0.7413 -0.0186 -0.5796
 9785TIP3    H150846   1.709   1.961  17.283  0.0319  1.0447  0.1285
 9785TIP3    H250847   1.673   1.926  17.140  1.8123 -0.6871  0.0515
 9786TIP3   OH250848   2.332   6.613  16.730 -0.1296  0.3305  0.1770
 9786TIP3    H150849   2.413   6.576  16.766 -0.5070 -0.7358 -0.0052
 9786TIP3    H250850   2.291   6.539  16.683 -1.3334  0.7652  0.4943
 9787TIP3   OH250851   5.047   3.136  14.111  0.4930 -0.0959  0.6144
 9787TIP3    H150852   5.056   3.044  14.088 -0.9862  0.0616 -0.7183
 9787TIP3    H250853   5.119   3.180  14.065  0.3562 -0.3991  0.1087
 9788TIP3   OH250854   4.452   1.882  15.877 -0.1024  0.5734  0.1236
 9788TIP3    H150855   4.381   1.845  15.930 -0.3438 -1.4894 -1.5100
 9788TIP3    H250856   4.532   1.856  15.922 -0.3427  1.4943  1.1008
 9789TIP3   OH250857   5.624   4.609   3.808  0.4739 -0.1748  0.3187
 9789TIP3    H150858   5.592   4.586   3.895 -1.8899  1.8088  0.0896
 9789TIP3    H250859   5.717   4.626   3.820  0.6502 -1.9228  1.9825
 9790TIP3   OH250860   2.820   4.749   4.987  0.0574 -0.1549 -0.5451
 9790TIP3    H150861   2.819   4.689   4.913 -2.4300 -1.6204  0.5519
 9790TIP3    H250862   2.818   4.692   5.064  1.0848  1.3385  0.6596
 9791TIP3   OH250863   3.823   6.462   0.474 -0.4347  0.3249  0.7128
 9791TIP3    H150864   3.746   6.519   0.477 -0.3103  0.7015 -1.5197
 9791TIP3    H250865   3.850   6.454   0.565 -0.4620  3.8937  1.1767
 9792TIP3   OH250866   1.210   3.361  13.208 -0.6512 -0.3468  0.0201
 9792TIP3    H150867   1.231   3.452  13.228 -1.7876  0.4700 -2.1933
 9792TIP3    H250868   1.121   3.363  13.173 -0.1429 -2.0661 -1.5515
 9793TIP3   OH250869   6.519   6.650  12.516 -0.1645  0.1255  0.7543
 9793TIP3    H150870   6.530   6.672  12.423 -1.3092  0.4832  0.6820
 9793TIP3    H250871   6.425   6.630  12.524  0.2708 -1.8321  1.4427
 9794TIP3   OH250872   5.376   0.394   0.526  0.7393 -0.1822  0.4647
 9794TIP3    H150873   5.346   0.413   0.437  1.4147  0.8513  0.4336
 9794TIP3    H250874   5.384   0.480   0.567  2.5541 -0.4851  0.8145
 9795TIP3   OH250875   4.867   2.599   2.582 -0.0526  0.1162  0.1696
 9795TIP3    H150876   4.822   2.523   2.618 -1.1211  1.1964  1.2082
 9795TIP3    H250877   4.938   2.617   2.645 -1.2426  1.3373  1.2426
 9796TIP3   OH250878   3.456   3.809  15.509  0.0954 -0.3432  0.0537
 9796TIP3    H150879   3.500   3.893  15.521 -1.3890  0.6256 -0.9153
 9796TIP3    H250880   3.482   3.782  15.421 -0.1197 -0.4649  0.0285
 9797TIP3   OH250881   5.178   2.201  13.169  0.5554 -0.6354  0.2866
 9797TIP3    H150882   5.150   2.269  13.230  1.8775 -0.6038  0.8956
 9797TIP3    H250883   5.194   2.247  13.087  1.2093 -0.2231  0.6297
 9798TIP3   OH250884   4.408   4.103  12.699  0.2989 -0.0285  0.2571
 9798TIP3    H150885   4.361   4.099  12.783  0.0967 -0.3688  0.1272
 9798TIP3    H250886   4.367   4.176  12.653  0.4515  0.1997  0.4799
 9799TIP3   OH250887   0.778   1.784  12.581  0.2148  0.0820  0.4496
 9799TIP3    H150888   0.810   1.727  12.511 -2.6422 -2.1990  0.8152
 9799TIP3    H250889   0.744   1.861  12.536  0.3175 -0.3955 -0.4671
 9800TIP3   OH250890   2.489   2.777  13.573 -0.6066 -0.0092 -0.2201
 9800TIP3    H150891   2.420   2.712  13.580 -0.6849  0.2039  1.2928
 9800TIP3    H250892   2.485   2.826  13.655  1.2637  0.0832 -0.1348
 9801TIP3   OH250893   6.812   2.946  16.773 -0.0083  0.2274 -0.1033
 9801TIP3    H150894   6.865   3.025  16.770 -0.5114  0.5497 -1.7570
 9801TIP3    H250895   6.730   2.970  16.729 -0.1581 -1.1935 -0.6710
 9802TIP3   OH250896   1.723   6.149   1.413  0.3785  0.0475 -0.0092
 9802TIP3    H150897   1.690   6.071   1.369 -0.8261  1.2116 -1.2544
 9802TIP3    H250898   1.714   6.219   1.349 -1.5020  1.8407  2.0467
 9803TIP3   OH250899   3.519   0.717  15.528  0.1921 -0.1290 -0.0492
 9803TIP3    H150900   3.532   0.807  15.559 -0.4478 -0.0244 -0.0721
 9803TIP3    H250901   3.513   0.665  15.608  0.8316 -0.1973 -0.0390
 9804TIP3   OH250902   2.607   0.267   5.607  0.2447 -0.8201 -0.4977
 9804TIP3    H150903   2.666   0.201   5.641 -1.6462 -1.6885  1.3148
 9804TIP3    H250904   2.549   0.288   5.680 -1.0689  0.7026 -1.8782
 9805TIP3   OH250905   3.917   3.106   5.797  0.4206  0.0743 -0.3769
 9805TIP3    H150906   3.931   3.016   5.768  2.8344  0.5007 -0.6935
 9805TIP3    H250907   3.969   3.115   5.876 -1.0438  0.7906  0.5660
 9806TIP3   OH250908   1.156   5.431  15.757 -0.1129 -0.4117  0.0808
 9806TIP3    H150909   1.071   5.469  15.781  0.1512 -0.3162  0.8952
 9806TIP3    H250910   1.218   5.471  15.817  0.4198 -0.9395 -0.1097
 9807TIP3   OH250911   1.755   2.978  12.833 -0.1474  0.0170 -0.5543
 9807TIP3    H150912   1.732   2.934  12.914 -2.0546  2.2936  0.2380
 9807TIP3    H250913   1.724   2.920  12.764 -1.4685 -0.4572  0.4174
 9808TIP3   OH250914   1.924   5.332  13.960 -0.0611 -0.3494  0.2914
 9808TIP3    H150915   1.905   5.324  14.053 -0.9147 -1.1194  0.0689
 9808TIP3    H250916   1.876   5.259  13.920 -0.9376  0.8513 -0.9275
 9809TIP3   OH250917   5.552   4.531   4.069  0.3704  0.0951  0.6225
 9809TIP3    H150918   5.623   4.559   4.127 -0.1339 -0.2056  1.3901
 9809TIP3    H250919   5.517   4.453   4.109  1.0042 -1.0376 -0.9075
 9810TIP3   OH250920   1.237   0.795  16.213 -0.8777  0.2113 -0.0397
 9810TIP3    H150921   1.300   0.724  16.200  1.2765  1.4051  2.7880
 9810TIP3    H250922   1.184   0.767  16.287  1.3026  2.1707  2.4498
 9811TIP3   OH250923   6.703   1.832   6.059 -0.0062  0.4767 -0.3487
 9811TIP3    H150924   6.653   1.796   6.132 -0.3902  0.9009 -0.3951
 9811TIP3    H250925   6.786   1.859   6.098  0.1763 -0.1877 -0.2605
 9812TIP3   OH250926   5.276   4.503   4.000  0.4463  0.1918  0.4129
 9812TIP3    H150927   5.256   4.592   3.974  0.3134 -0.6006 -2.5910
 9812TIP3    H250928   5.363   4.508   4.040  0.0057  1.7757  1.2114
 9813TIP3   OH250929   2.171   3.713  16.104 -0.3374 -0.4843  0.6586
 9813TIP3    H150930   2.237   3.707  16.035 -0.7141 -0.0416  0.2510
 9813TIP3    H250931   2.090   3.682  16.062 -0.8312  0.9136  0.5396
 9814TIP3   OH250932   6.389   2.368   1.503  0.1248 -0.3390  0.7952
 9814TIP3    H150933   6.434   2.446   1.472 -0.3906 -0.3934 -0.1273
 9814TIP3    H250934   6.309   2.400   1.545 -0.3271 -0.3909 -0.0157
 9815TIP3   OH250935   3.881   4.631  15.835 -0.1408 -0.4219  0.4763
 9815TIP3    H150936   3.936   4.552  15.837  0.8850  0.2765  0.6831
 9815TIP3    H250937   3.793   4.598  15.818  0.0486 -1.7392  1.8123
 9816TIP3   OH250938   6.052   4.887  14.347  0.1609  0.0045  0.1789
 9816TIP3    H150939   5.980   4.949  14.354 -0.1338 -0.2406 -0.5465
 9816TIP3    H250940   6.040   4.827  14.420  1.7197  2.0539  2.2762
 9817TIP3   OH250941   5.374   3.938   1.128  0.3276  0.2640  0.0121
 9817TIP3    H150942   5.444   3.882   1.096  0.5178 -0.1757  1.1401
 9817TIP3    H250943   5.413   4.025   1.134  0.4673  0.2263 -0.3538
 9818TIP3   OH250944   0.181   4.556   2.236 -0.5065 -0.2299  0.2420
 9818TIP3    H150945   0.089   4.550   2.209 -0.5742 -1.7387  0.7415
 9818TIP3    H250946   0.221   4.615   2.172 -1.6041 -0.3137 -0.5472
 9819TIP3   OH250947   4.674   2.216   5.800  0.0016  0.0850 -0.4063
 9819TIP3    H150948   4.579   2.210   5.810  0.2177 -1.3279  1.3210
 9819TIP3    H250949   4.694   2.310   5.806 -1.2421  0.3683 -0.5333
 9820TIP3   OH250950   3.760   1.075  13.164  0.2090  0.3314  0.5524
 9820TIP3    H150951   3.693   1.026  13.212 -0.0314  0.8340  0.7416
 9820TIP3    H250952   3.727   1.078  13.075  0.7594 -0.7880  0.2896
 9821TIP3   OH250953   0.682   1.807   1.993 -0.2086  0.4971 -0.4509
 9821TIP3    H150954   0.727   1.801   1.908  0.4643  1.2108 -0.1647
 9821TIP3    H250955   0.617   1.875   1.980  1.8871  2.8131  0.4079
 9822TIP3   OH250956   4.233   3.474   1.031  0.3814 -0.6958  0.4104
 9822TIP3    H150957   4.211   3.567   1.027 -0.1057 -0.7315  1.8246
 9822TIP3    H250958   4.155   3.432   1.066  0.5435 -1.6683 -0.3429
 9823TIP3   OH250959   2.993   5.973   4.548  0.0866 -0.2537  0.3901
 9823TIP3    H150960   2.974   5.995   4.457  1.0748  2.3397  0.7215
 9823TIP3    H250961   2.915   5.926   4.578  0.2055 -2.2207 -2.0583
 9824TIP3   OH250962   5.614   2.324  12.956 -0.3770 -0.0229 -0.6794
 9824TIP3    H150963   5.545   2.258  12.961 -1.3156  0.9434 -0.5078
 9824TIP3    H250964   5.688   2.285  13.001 -0.7185 -1.1895 -1.0970
 9825TIP3   OH250965   2.678   4.377  12.055 -0.0331 -0.6302 -0.6170
 9825TIP3    H150966   2.597   4.339  12.090 -0.4479  0.9898  0.2967
 9825TIP3    H250967   2.731   4.302  12.029 -1.7490 -1.7330 -1.0562
 9826TIP3   OH250968   1.076   1.707  16.293  0.1063  0.2470  0.1843
 9826TIP3    H150969   1.020   1.648  16.243  0.2920 -1.0385  1.4411
 9826TIP3    H250970   1.025   1.788  16.302 -0.7101 -0.1963 -0.4004
 9827TIP3   OH250971   5.930   3.732   2.149  0.0148  0.4225 -0.0748
 9827TIP3    H150972   5.876   3.809   2.132 -0.4532 -0.0292 -0.7193
 9827TIP3    H250973   5.986   3.725   2.071  1.1150  0.9721  0.6548
 9828TIP3   OH250974   5.544   0.645   0.618  0.5022 -0.5129 -0.1481
 9828TIP3    H150975   5.513   0.689   0.540 -0.2331 -1.1487 -0.2318
 9828TIP3    H250976   5.601   0.709   0.661 -0.1881  0.3508 -0.4823
 9829TIP3   OH250977   4.016   6.337  15.833  0.2748  0.2388  0.2653
 9829TIP3    H150978   4.106   6.368  15.835  0.7804 -0.9827 -1.1602
 9829TIP3    H250979   4.024   6.243  15.816 -1.2683  0.1404 -0.0531
 9830TIP3   OH250980   5.220   3.235  15.708  0.4289  0.0183  0.1787
 9830TIP3    H150981   5.302   3.260  15.667  0.1082  1.1378  0.2038
 9830TIP3    H250982   5.223   3.139  15.710 -0.0587 -0.2285 -3.6032
 9831TIP3   OH250983   2.905   4.428   0.058  0.3625  0.2734 -0.4593
 9831TIP3    H150984   2.811   4.443   0.073  0.7646  1.0420  1.5707
 9831TIP3    H250985   2.925   4.349   0.108  0.8392  0.2397 -0.7043
 9832TIP3   OH250986   6.666   4.392   4.007 -0.7870 -0.2295 -0.3966
 9832TIP3    H150987   6.599   4.373   3.942 -0.4911  2.6769 -1.7324
 9832TIP3    H250988   6.749   4.378   3.962 -0.5080 -1.1465  0.3730
 9833TIP3   OH250989   1.487   5.582  13.550 -0.0211 -0.3711 -0.0919
 9833TIP3    H150990   1.480   5.522  13.476 -1.2710 -0.6490  0.2286
 9833TIP3    H250991   1.561   5.639  13.528 -2.0521  1.4200 -2.9288
 9834TIP3   OH250992   6.674   3.732  16.373  0.3012  0.2967  0.2976
 9834TIP3    H150993   6.624   3.652  16.360  2.1228 -0.8921  0.2568
 9834TIP3    H250994   6.722   3.745  16.291  1.4334  0.3759  0.9516
 9835TIP3   OH250995   2.675   2.644  16.332 -0.3483  0.1175  0.2898
 9835TIP3    H150996   2.735   2.605  16.267 -0.2836 -0.3270  0.6111
 9835TIP3    H250997   2.589   2.641  16.290 -0.5213 -1.3067  0.6868
 9836TIP3   OH250998   5.498   2.059   6.469 -0.0701  0.3937 -0.4575
 9836TIP3    H150999   5.594   2.056   6.469 -0.0873 -0.3021 -0.4614
 9836TIP3    H251000   5.477   2.149   6.491  0.5861  0.3614  0.3851
 9837TIP3   OH251001   1.103   1.776   0.906 -1.0405  0.5120  0.3056
 9837TIP3    H151002   1.193   1.809   0.902 -0.7231 -0.3771 -0.1082
 9837TIP3    H251003   1.049   1.852   0.884 -0.2875  0.5887 -1.4389
 9838TIP3   OH251004   6.592   2.319   4.104  0.4961  0.8657  0.1312
 9838TIP3    H151005   6.636   2.341   4.186 -0.0036  2.1099  0.0831
 9838TIP3    H251006   6.596   2.399   4.052  1.2856 -0.0632 -1.3004
 9839TIP3   OH251007   6.369   2.312   2.417 -0.0299  0.1846  0.3563
 9839TIP3    H151008   6.446   2.296   2.361  0.3405  0.6825  0.7096
 9839TIP3    H251009   6.317   2.233   2.410  2.2540 -1.7493  2.9566
 9840TIP3   OH251010   2.276   4.453   4.371  0.2124 -0.3926 -0.4936
 9840TIP3    H151011   2.228   4.536   4.381  0.7577 -0.1493  0.1940
 9840TIP3    H251012   2.222   4.388   4.417  0.0905 -0.2943 -0.4982
 9841TIP3   OH251013   1.669   2.923  14.261 -0.2718  0.2626  0.4162
 9841TIP3    H151014   1.705   2.844  14.303  1.4852  0.6404 -0.2898
 9841TIP3    H251015   1.576   2.903  14.248 -0.0514 -1.3282  1.0676
 9842TIP3   OH251016   3.245   1.312   2.457  0.1354  0.7822 -0.2056
 9842TIP3    H151017   3.164   1.358   2.435  0.9386  1.8203 -1.0953
 9842TIP3    H251018   3.284   1.290   2.372  0.2952 -0.6334  0.2097
 9843TIP3   OH251019   6.624   3.027  12.007 -0.4398  0.5805  0.3676
 9843TIP3    H151020   6.542   3.051  11.963 -0.8626  0.6820  1.1962
 9843TIP3    H251021   6.640   2.937  11.980 -0.3291  0.8598 -0.5342
 9844TIP3   OH251022   3.706   3.145  15.886 -0.0711  0.1039 -0.6221
 9844TIP3    H151023   3.620   3.158  15.845 -0.3145 -0.1629 -0.1931
 9844TIP3    H251024   3.745   3.233  15.887 -0.3977  0.2512 -0.6791
 9845TIP3   OH251025   1.699   2.410  13.869  0.1178  0.0878  0.0208
 9845TIP3    H151026   1.701   2.388  13.962  1.3615  0.8787  0.2075
 9845TIP3    H251027   1.697   2.325  13.824 -1.7230 -0.2967  0.7454
 9846TIP3   OH251028   3.232   2.140  13.120 -0.3052 -0.0319 -0.2232
 9846TIP3    H151029   3.230   2.045  13.126  0.8981 -0.0351  0.3746
 9846TIP3    H251030   3.165   2.161  13.054 -0.7414 -1.2591 -0.1978
 9847TIP3   OH251031   2.109   0.782  16.269 -0.1619  0.6098  0.0742
 9847TIP3    H151032   2.201   0.776  16.246  0.1166 -1.7082  1.5356
 9847TIP3    H251033   2.106   0.849  16.337  0.2795  1.3367 -0.6027
 9848TIP3   OH251034   4.250   0.753   5.870 -0.2349  0.8156 -0.0906
 9848TIP3    H151035   4.175   0.693   5.880  0.4827 -0.3490 -1.3611
 9848TIP3    H251036   4.217   0.837   5.901 -0.8534 -0.4622  3.1691
 9849TIP3   OH251037   1.377   0.478   0.974 -0.1349 -0.2787  0.3812
 9849TIP3    H151038   1.441   0.427   0.926 -1.3779 -2.1846  0.6180
 9849TIP3    H251039   1.420   0.501   1.056  0.1972 -1.7224  0.6334
 9850TIP3   OH251040   4.867   3.347  14.115  0.1610  0.0409 -0.6383
 9850TIP3    H151041   4.872   3.357  14.020 -0.8579 -0.3769 -0.7525
 9850TIP3    H251042   4.927   3.275  14.135 -0.1890 -0.3701 -1.0581
 9851TIP3   OH251043   1.393   0.462  12.107 -0.3760  0.3610 -0.5355
 9851TIP3    H151044   1.402   0.392  12.172  1.5961  1.3367  0.3257
 9851TIP3    H251045   1.449   0.434  12.034 -0.7559  0.3762 -0.8408
 9852TIP3   OH251046   0.137   2.687   6.879 -0.2775  0.2061  0.3120
 9852TIP3    H151047   0.182   2.738   6.812  0.8153 -0.3008  0.6412
 9852TIP3    H251048   0.093   2.617   6.831 -0.9563  0.8566 -0.0371
 9853TIP3   OH251049   5.305   2.861  16.585 -0.2540 -0.4961 -0.0764
 9853TIP3    H151050   5.370   2.792  16.596 -0.3608 -0.9931 -2.1966
 9853TIP3    H251051   5.354   2.934  16.546 -0.3230  0.3600  1.3535
 9854TIP3   OH251052   3.636   1.413   0.138  0.5139 -0.2283 -0.0669
 9854TIP3    H151053   3.610   1.505   0.136  0.9237 -0.1117 -0.2322
 9854TIP3    H251054   3.567   1.367   0.090  0.1766 -0.0412  0.2430
 9855TIP3   OH251055   4.106   3.330   2.952  0.3175 -0.2303 -0.4161
 9855TIP3    H151056   4.025   3.351   2.998  1.3303 -0.7849  1.7346
 9855TIP3    H251057   4.163   3.405   2.968  0.3998 -0.0082 -1.6102
 9856TIP3   OH251058   2.905   5.282  16.021 -0.1549 -0.1868 -0.0716
 9856TIP3    H151059   2.868   5.360  16.061 -0.2593 -0.4913  0.4381
 9856TIP3    H251060   3.000   5.292  16.032 -0.1429  0.1053 -0.4553
 9857TIP3   OH251061   6.377   2.116   2.105 -0.2975  0.1855 -0.5910
 9857TIP3    H151062   6.462   2.144   2.140 -0.7696  1.5872 -0.5024
 9857TIP3    H251063   6.322   2.106   2.183 -0.5304  0.4063 -0.7279
 9858TIP3   OH251064   0.859   5.097  13.021  0.3874  0.2452  0.0807
 9858TIP3    H151065   0.916   5.172  13.001  0.6370  0.5591  1.7989
 9858TIP3    H251066   0.915   5.037  13.070 -0.0712 -0.6761 -0.4935
 9859TIP3   OH251067   2.214   5.273   2.323 -0.7005 -0.3619  0.2518
 9859TIP3    H151068   2.272   5.346   2.300 -0.8373 -0.5323 -0.6568
 9859TIP3    H251069   2.142   5.313   2.371 -1.4227  0.3026 -1.3149
 9860TIP3   OH251070   6.031   3.741  16.352  0.4258  0.5160  0.1874
 9860TIP3    H151071   5.979   3.764  16.429 -1.1571  1.8344 -1.1964
 9860TIP3    H251072   6.103   3.804  16.353  2.3475 -1.5503  2.3178
 9861TIP3   OH251073   0.147   4.454  16.070 -0.3276 -0.5171 -0.3022
 9861TIP3    H151074   0.111   4.475  15.984  0.7389  1.0491 -0.3912
 9861TIP3    H251075   0.148   4.537  16.117  0.0145 -1.1716  0.9004
 9862TIP3   OH251076   4.033   0.426   3.535 -0.1377 -0.1740 -0.2656
 9862TIP3    H151077   4.107   0.466   3.581  0.2962  1.6110 -2.3832
 9862TIP3    H251078   4.068   0.344   3.500  0.5361  0.1611 -0.3856
 9863TIP3   OH251079   6.308   0.464  11.749 -0.1581  0.5699  0.2021
 9863TIP3    H151080   6.229   0.435  11.703  0.4928 -1.1547  0.1115
 9863TIP3    H251081   6.380   0.430  11.696  0.6091 -0.7190  2.0109
 9864TIP3   OH251082   3.612   3.909   0.105 -0.0009 -0.1176  0.3023
 9864TIP3    H151083   3.580   3.983   0.054  0.2120  0.7874  1.4449
 9864TIP3    H251084   3.551   3.838   0.086 -0.7463  0.6203 -0.0927
 9865TIP3   OH251085   4.732   0.101   4.950  0.1009  0.0535  0.3464
 9865TIP3    H151086   4.711   0.083   4.859 -2.4065  2.2249  0.3498
 9865TIP3    H251087   4.826   0.086   4.957  0.2966 -0.5964 -2.4600
 9866TIP3   OH251088   2.698   3.110   1.591 -0.4447  0.0798 -0.3309
 9866TIP3    H151089   2.791   3.130   1.607 -0.5274  1.3279 -1.2692
 9866TIP3    H251090   2.698   3.024   1.550  0.2140 -0.3602  0.5498
 9867TIP3   OH251091   6.030   3.720  11.437 -0.2323 -0.3973 -0.0681
 9867TIP3    H151092   5.954   3.777  11.447  0.5947  0.7821 -0.2998
 9867TIP3    H251093   6.092   3.771  11.385  0.9874 -1.0542  0.6827
 9868TIP3   OH251094   2.068   0.863   3.593 -0.5969 -0.1319  0.0573
 9868TIP3    H151095   2.065   0.869   3.688 -1.3396  0.3128  0.0099
 9868TIP3    H251096   2.159   0.883   3.570 -0.5431  0.3017  0.6351
 9869TIP3   OH251097   5.374   4.484  13.670 -0.1199  0.9453 -0.1834
 9869TIP3    H151098   5.436   4.416  13.645  0.9799  2.3293 -1.3790
 9869TIP3    H251099   5.290   4.455  13.634  0.2708  0.0926 -0.4114
 9870TIP3   OH251100   2.235   5.717  15.111  0.5283 -0.6544 -0.0217
 9870TIP3    H151101   2.260   5.797  15.065 -1.0989 -0.1996 -0.1639
 9870TIP3    H251102   2.291   5.715  15.189  0.4999  0.6876  0.0481
 9871TIP3   OH251103   3.731   5.260  11.410 -0.1425 -0.0528 -0.6418
 9871TIP3    H151104   3.692   5.178  11.441 -0.9237 -0.0250 -1.5202
 9871TIP3    H251105   3.742   5.248  11.316  2.0023 -0.0576 -0.4451
 9872TIP3   OH251106   4.754   4.768  13.428 -0.0730  0.1276  0.2686
 9872TIP3    H151107   4.842   4.791  13.457 -0.4433  0.3937  1.2118
 9872TIP3    H251108   4.720   4.849  13.389  0.5532 -0.3245 -1.3038
 9873TIP3   OH251109   6.411   0.068   4.594  0.5528  0.3454  0.3540
 9873TIP3    H151110   6.439   0.006   4.526  2.8960  0.8510  0.7717
 9873TIP3    H251111   6.487   0.124   4.607 -0.6815  1.7603  1.7399
 9874TIP3   OH251112   0.462   6.400  17.099  0.1845  0.0689 -0.1343
 9874TIP3    H151113   0.471   6.306  17.118 -0.3957 -0.4977 -2.3479
 9874TIP3    H251114   0.408   6.403  17.020 -0.8137  2.3468  0.5562
 9875TIP3   OH251115   6.729   2.075   5.667 -0.1710 -0.3070 -0.2590
 9875TIP3    H151116   6.649   2.027   5.689 -1.5124  2.4027  1.3263
 9875TIP3    H251117   6.764   2.103   5.751  0.4554  1.5339 -1.0748
 9876TIP3   OH251118   5.303   3.279  13.661  0.1757  0.0935  0.2393
 9876TIP3    H151119   5.328   3.187  13.651 -0.8591 -0.2515  0.7319
 9876TIP3    H251120   5.383   3.322  13.691  0.1714 -1.0195  1.9887
 9877TIP3   OH251121   3.100   1.860  17.090 -0.1234  0.2581 -0.2399
 9877TIP3    H151122   3.186   1.899  17.107 -0.1325  1.0299 -1.8105
 9877TIP3    H251123   3.051   1.875  17.171  1.2757 -0.4272  0.7804
 9878TIP3   OH251124   4.286   6.790   1.419 -0.3192 -0.1187 -0.1515
 9878TIP3    H151125   4.194   6.769   1.431 -0.2651 -0.0106  0.5447
 9878TIP3    H251126   4.286   6.877   1.379 -0.5270  0.2117  0.5383
 9879TIP3   OH251127   5.053   2.255  15.049  0.3484 -0.2173  0.6314
 9879TIP3    H151128   5.115   2.182  15.036  0.5954 -0.4039  2.5792
 9879TIP3    H251129   5.080   2.320  14.985  1.2712 -1.1287  0.0598
 9880TIP3   OH251130   4.470   4.900  11.537 -0.1053  0.1386  0.6372
 9880TIP3    H151131   4.464   4.942  11.451 -0.7958 -0.6511  0.2868
 9880TIP3    H251132   4.564   4.892  11.553  0.0627 -0.8961 -0.6587
 9881TIP3   OH251133   4.820   1.458   5.318  0.2096  0.0415  0.1174
 9881TIP3    H151134   4.734   1.424   5.342  0.5532 -0.3121  0.8673
 9881TIP3    H251135   4.809   1.554   5.322 -0.4265  0.0211 -0.8261
 9882TIP3   OH251136   0.234   6.609   3.557 -0.5007 -0.2533  0.1597
 9882TIP3    H151137   0.268   6.547   3.621  0.7783 -0.0470 -0.2833
 9882TIP3    H251138   0.227   6.558   3.476 -1.8598 -0.4483  0.3893
 9883TIP3   OH251139   5.104   4.358   2.504  0.6667 -0.1730 -0.2157
 9883TIP3    H151140   5.135   4.448   2.509  0.5941 -0.1373 -0.4024
 9883TIP3    H251141   5.016   4.365   2.467  0.3263 -0.2486  0.5634
 9884TIP3   OH251142   1.925   1.483  10.690  0.7576  0.2944  0.7742
 9884TIP3    H151143   2.010   1.475  10.647  0.7041  0.2773  0.6710
 9884TIP3    H251144   1.880   1.402  10.668 -0.1203  1.1871 -1.0038
 9885TIP3   OH251145   6.192   5.265   5.315  0.0824  0.0703 -0.4643
 9885TIP3    H151146   6.154   5.185   5.351 -1.7052  0.3552 -1.5729
 9885TIP3    H251147   6.229   5.238   5.231  2.5364 -0.2131  0.6150
 9886TIP3   OH251148   0.696   1.550   4.855 -0.0332 -0.1625  0.9785
 9886TIP3    H151149   0.790   1.565   4.856  0.1632 -0.4408 -2.4650
 9886TIP3    H251150   0.660   1.625   4.807 -1.8070  0.5561  3.2177
 9887TIP3   OH251151   3.319   5.511   4.835  0.1729 -0.3824 -0.6114
 9887TIP3    H151152   3.333   5.604   4.850  0.0869 -0.0773 -2.2240
 9887TIP3    H251153   3.223   5.500   4.837  0.2288 -0.7467  1.1394
 9888TIP3   OH251154   0.138   3.283  11.697 -0.1501  0.6017  0.2415
 9888TIP3    H151155   0.090   3.362  11.722 -1.7128  1.2068 -3.9551
 9888TIP3    H251156   0.071   3.224  11.662  1.5044 -0.7757 -0.7404
 9889TIP3   OH251157   1.489   2.691  14.367  0.3871 -0.0824 -0.2562
 9889TIP3    H151158   1.418   2.628  14.374  1.1785 -0.8986  0.7890
 9889TIP3    H251159   1.521   2.682  14.278 -0.4910 -0.0532 -0.5814
 9890TIP3   OH251160   0.192   3.723  15.415 -0.1446 -0.0106  0.0008
 9890TIP3    H151161   0.188   3.695  15.324  0.0091 -0.9019  0.2601
 9890TIP3    H251162   0.258   3.793  15.416 -0.6550  0.4980 -0.6825
 9891TIP3   OH251163   2.471   3.443   5.288  0.0371  0.1778  0.4433
 9891TIP3    H151164   2.496   3.509   5.353 -2.6274  1.2036  0.5823
 9891TIP3    H251165   2.408   3.388   5.334  1.1599 -1.6390 -0.1091
 9892TIP3   OH251166   1.599   2.352   2.712 -0.3591 -0.2802 -0.4529
 9892TIP3    H151167   1.526   2.370   2.771 -0.5227 -0.7086 -0.5243
 9892TIP3    H251168   1.590   2.259   2.690  0.6081 -0.5101  0.0823
 9893TIP3   OH251169   0.468   0.416  10.964 -0.1000 -0.2978  0.3630
 9893TIP3    H151170   0.426   0.478  11.023  0.2634  2.1165 -1.7374
 9893TIP3    H251171   0.407   0.408  10.891 -0.4623 -3.0616  0.8394
 9894TIP3   OH251172   2.718   5.089  15.704 -0.4011 -0.6749 -0.2158
 9894TIP3    H151173   2.669   5.123  15.779  0.6041 -1.1504  0.7000
 9894TIP3    H251174   2.783   5.157  15.685  0.4641 -1.2622  0.4889
 9895TIP3   OH251175   6.560   2.381   6.453 -0.5496 -0.3476  0.5590
 9895TIP3    H151176   6.464   2.378   6.455 -0.6059  0.6254 -0.1025
 9895TIP3    H251177   6.587   2.289   6.451 -1.4631 -0.6320  1.0063
 9896TIP3   OH251178   1.228   0.320   3.804 -0.6820  0.8214  0.0322
 9896TIP3    H151179   1.311   0.315   3.757 -1.4416  1.2511 -1.3923
 9896TIP3    H251180   1.166   0.355   3.741 -2.5887 -1.9062  0.2078
 9897TIP3   OH251181   3.052   4.797  13.482 -0.3359  0.6717 -0.0280
 9897TIP3    H151182   3.023   4.749  13.404  0.0740  1.1544 -0.4808
 9897TIP3    H251183   3.038   4.889  13.460 -1.4590  0.7704  0.9720
 9898TIP3   OH251184   6.075   0.743  14.403  0.0339 -0.1847 -0.0246
 9898TIP3    H151185   6.083   0.757  14.309 -0.0217 -1.0912 -0.1659
 9898TIP3    H251186   5.986   0.772  14.424  0.1609  0.3367 -0.1860
 9899TIP3   OH251187   6.547   2.646   3.996  0.0078  0.0496  0.4906
 9899TIP3    H151188   6.566   2.714   4.060 -1.1912  2.1003 -1.2397
 9899TIP3    H251189   6.455   2.624   4.011 -0.1046  0.0981 -0.1242
 9900TIP3   OH251190   6.730   1.495   0.630 -0.0294 -0.0372 -0.0823
 9900TIP3    H151191   6.667   1.449   0.574 -0.7395  0.2923  0.4256
 9900TIP3    H251192   6.740   1.438   0.706 -0.1435  0.1718  0.0908
 9901TIP3   OH251193   2.849   0.279  16.974 -0.0152  0.3566  0.1239
 9901TIP3    H151194   2.784   0.209  16.969 -0.0534  0.3187  1.0902
 9901TIP3    H251195   2.811   0.342  17.035  0.7355  0.4707  0.4755
 9902TIP3   OH251196   2.483   2.140   5.019 -0.0141 -0.0635 -0.1115
 9902TIP3    H151197   2.553   2.078   5.038 -0.0290 -1.3240 -3.5122
 9902TIP3    H251198   2.523   2.204   4.961 -1.1424  0.4852 -0.3083
 9903TIP3   OH251199   3.444   2.543   5.474 -0.3971 -0.1647  0.0787
 9903TIP3    H151200   3.480   2.463   5.436  1.0378 -0.5588  2.1205
 9903TIP3    H251201   3.486   2.614   5.424 -0.6842 -0.6421 -0.8728
 9904TIP3   OH251202   3.184   3.417   2.981  0.3009  0.0043  0.2498
 9904TIP3    H151203   3.141   3.497   3.010  1.7042  2.1141 -2.9580
 9904TIP3    H251204   3.137   3.392   2.901  1.2452 -1.1433  0.0213
 9905TIP3   OH251205   0.732   3.510   1.557 -0.1678 -0.2809 -0.3938
 9905TIP3    H151206   0.736   3.460   1.475  0.0691  0.2135 -0.6921
 9905TIP3    H251207   0.642   3.500   1.588  0.2196 -2.0415  0.2867
 9906TIP3   OH251208   0.187   5.178   0.246 -0.6043  0.3165  0.1831
 9906TIP3    H151209   0.236   5.121   0.305 -0.4587 -0.3282 -0.5546
 9906TIP3    H251210   0.098   5.178   0.281 -0.5880 -0.2978  0.2292
 9907TIP3   OH251211   0.283   1.697  16.747  0.1639  0.8445 -0.2485
 9907TIP3    H151212   0.214   1.701  16.814  1.2316 -1.2577  1.0930
 9907TIP3    H251213   0.346   1.764  16.774  0.6029 -0.0048  0.9376
 9908TIP3   OH251214   0.469   6.722   0.611  0.5300 -0.1275  0.2259
 9908TIP3    H151215   0.373   6.715   0.610  0.4436  0.7358 -2.0041
 9908TIP3    H251216   0.487   6.790   0.676 -0.4620  0.5916 -0.2209
 9909TIP3   OH251217   1.059   2.570  13.640 -0.4102  0.1609 -0.7049
 9909TIP3    H151218   0.970   2.542  13.658 -0.2652  0.4627  0.6384
 9909TIP3    H251219   1.061   2.588  13.546 -0.9898 -2.5004 -1.3183
 9910TIP3   OH251220   2.642   6.414  16.803 -0.5144 -0.2714  0.1482
 9910TIP3    H151221   2.605   6.390  16.718  0.9382 -2.0635 -0.0634
 9910TIP3    H251222   2.684   6.333  16.834 -0.2545  0.5824  2.1691
 9911TIP3   OH251223   1.433   4.004   2.129  0.2795  0.7706 -0.2111
 9911TIP3    H151224   1.392   4.090   2.128 -0.0762  0.6110 -1.6240
 9911TIP3    H251225   1.478   3.997   2.045 -0.3147 -0.6875 -0.4536
 9912TIP3   OH251226   3.535   0.461  12.638  0.3109  0.4077 -0.4885
 9912TIP3    H151227   3.460   0.434  12.692 -0.2409 -1.1441 -1.9169
 9912TIP3    H251228   3.610   0.415  12.676 -0.1149 -0.8703 -1.1143
 9913TIP3   OH251229   3.760   2.491  11.695  0.2554 -0.1871 -0.5609
 9913TIP3    H151230   3.826   2.450  11.639  0.1773 -0.2155 -0.6332
 9913TIP3    H251231   3.703   2.537  11.634  0.7155  0.5707 -0.4283
 9914TIP3   OH251232   5.378   6.737   3.867 -0.2933  0.0421 -0.3163
 9914TIP3    H151233   5.334   6.655   3.890  0.1562 -0.2986 -0.6527
 9914TIP3    H251234   5.306   6.797   3.845 -0.5686 -0.8474 -1.9939
 9915TIP3   OH251235   4.257   6.456   3.192 -0.2413 -0.2098  0.2957
 9915TIP3    H151236   4.163   6.452   3.211 -0.2078 -1.8460  0.2754
 9915TIP3    H251237   4.288   6.367   3.208  2.0532  1.0409  4.0853
 9916TIP3   OH251238   4.957   4.176   3.420  0.6455 -0.1175 -0.6400
 9916TIP3    H151239   4.958   4.107   3.486  0.4830  0.7923  0.3307
 9916TIP3    H251240   5.049   4.183   3.392  0.7321 -0.4269 -0.4460
 9917TIP3   OH251241   3.041   4.129   0.901  0.0333  0.4295 -0.0777
 9917TIP3    H151242   2.991   4.147   0.821  0.9414 -1.9857 -1.2725
 9917TIP3    H251243   3.098   4.056   0.878  2.7876  1.8009  1.7901
 9918TIP3   OH251244   4.748   3.679  12.481  0.1537 -0.2343 -0.1883
 9918TIP3    H151245   4.675   3.638  12.436  1.0210 -0.7082 -1.2115
 9918TIP3    H251246   4.764   3.623  12.557 -0.8075  0.1189  0.2877
 9919TIP3   OH251247   2.722   1.868  10.908  0.0017 -0.1527  0.3979
 9919TIP3    H151248   2.656   1.931  10.937 -0.6584 -0.4087 -0.4806
 9919TIP3    H251249   2.741   1.893  10.818 -0.1368 -1.0830  0.0927
 9920TIP3   OH251250   3.112   0.305  17.195 -0.0628 -0.6461  0.1957
 9920TIP3    H151251   3.101   0.398  17.176  0.6341 -0.2720  1.5006
 9920TIP3    H251252   3.040   0.284  17.254  0.2618 -0.7210  0.5688
 9921TIP3   OH251253   6.756   0.640   1.522 -0.6414  1.0002  0.3894
 9921TIP3    H151254   6.761   0.705   1.592 -1.9690  2.2903 -0.6465
 9921TIP3    H251255   6.664   0.638   1.497 -0.2521  0.3885 -1.1489
 9922TIP3   OH251256   4.137   2.741  15.418 -0.1763 -0.9615  0.3301
 9922TIP3    H151257   4.076   2.815  15.413 -0.4977 -1.2617 -0.3965
 9922TIP3    H251258   4.207   2.772  15.475  0.2779  0.3367 -0.8568
 9923TIP3   OH251259   4.751   1.339   6.614  0.0294  0.6877  0.6429
 9923TIP3    H151260   4.804   1.286   6.555 -0.7273  0.7948 -0.1454
 9923TIP3    H251261   4.665   1.297   6.614  0.1721  0.3284  2.1573
 9924TIP3   OH251262   2.630   1.909   2.768 -0.1006 -0.0836 -0.2718
 9924TIP3    H151263   2.688   1.834   2.756 -1.2439 -1.0369 -0.0199
 9924TIP3    H251264   2.561   1.877   2.826 -0.6788  1.1341 -0.2481
 9925TIP3   OH251265   5.318   1.218  14.984 -0.4387  0.1439  0.1128
 9925TIP3    H151266   5.307   1.307  14.952  0.1878  0.0875 -0.2795
 9925TIP3    H251267   5.232   1.177  14.973  0.0619 -0.3232 -2.9378
 9926TIP3   OH251268   3.494   6.257   6.292  0.1207  0.5034  0.4671
 9926TIP3    H151269   3.424   6.258   6.357 -0.6207 -0.1567 -0.3098
 9926TIP3    H251270   3.536   6.172   6.303 -0.0188  0.3826  0.0675
 9927TIP3   OH251271   6.540   4.286   0.139  0.1924 -0.1100 -0.8656
 9927TIP3    H151272   6.454   4.327   0.148 -0.1903 -0.8547 -1.0111
 9927TIP3    H251273   6.599   4.344   0.187 -0.3890  0.4142 -0.7614
 9928TIP3   OH251274   6.298   4.920   0.417  0.7798 -0.4101 -0.3582
 9928TIP3    H151275   6.340   4.880   0.493 -0.6682  0.8927  1.1842
 9928TIP3    H251276   6.217   4.957   0.450 -1.0542 -1.7480 -3.0046
 9929TIP3   OH251277   2.481   5.209   4.834 -0.2323  0.2560 -0.1557
 9929TIP3    H151278   2.405   5.266   4.841  0.3465  1.1059 -0.6975
 9929TIP3    H251279   2.470   5.165   4.749 -0.4189 -0.0728  0.0353
 9930TIP3   OH251280   1.855   1.051   1.211 -0.0544  0.2909  0.0753
 9930TIP3    H151281   1.814   0.966   1.193  1.7057 -0.7188  0.5807
 9930TIP3    H251282   1.811   1.083   1.290 -2.7566  1.3050 -1.6918
 9931TIP3   OH251283   2.852   0.934  16.844 -0.1290 -0.3275 -0.4091
 9931TIP3    H151284   2.906   0.861  16.812  0.0729  0.4387 -1.8857
 9931TIP3    H251285   2.903   1.012  16.824  0.2471  0.2257  2.2929
 9932TIP3   OH251286   4.992   5.225  11.580 -0.4958  0.3085  0.3057
 9932TIP3    H151287   5.045   5.303  11.595  0.1769  0.2510 -1.5330
 9932TIP3    H251288   5.043   5.173  11.517 -1.1354 -1.3977  1.1221
 9933TIP3   OH251289   1.115   3.813   3.894 -0.3783  0.2009 -0.7262
 9933TIP3    H151290   1.055   3.841   3.963 -1.5815 -0.5730 -1.4164
 9933TIP3    H251291   1.202   3.833   3.929 -0.9517  0.0152  0.9286
 9934TIP3   OH251292   2.660   3.463  15.529  0.2257 -0.2764 -0.1392
 9934TIP3    H151293   2.698   3.388  15.484  2.0864  0.4184  0.1984
 9934TIP3    H251294   2.631   3.428  15.614 -0.6506 -0.9696 -0.6987
 9935TIP3   OH251295   5.712   2.995  16.006 -0.0478 -0.2167  0.5797
 9935TIP3    H151296   5.649   2.994  15.934 -0.1637  0.7776  0.6637
 9935TIP3    H251297   5.672   2.940  16.073 -2.1336  2.4375  1.7028
 9936TIP3   OH251298   0.799   4.254   0.110  0.4026  0.7063  0.3431
 9936TIP3    H151299   0.838   4.177   0.152  0.6157 -0.0780 -1.2298
 9936TIP3    H251300   0.749   4.296   0.180  0.6220 -0.6195  1.3429
 9937TIP3   OH251301   4.579   2.796   1.256  0.0092  0.0791  0.2584
 9937TIP3    H151302   4.622   2.722   1.212 -0.1575 -0.4522  0.9768
 9937TIP3    H251303   4.614   2.873   1.212  1.0959 -0.3717  0.2903
 9938TIP3   OH251304   6.769   3.560  15.221 -0.0358  0.3227  0.1204
 9938TIP3    H151305   6.755   3.497  15.150  1.5135 -1.3275  1.1949
 9938TIP3    H251306   6.849   3.606  15.197 -0.2641  0.7295  0.1369
 9939TIP3   OH251307   3.917   5.928  16.984 -0.1460  0.5834 -0.1773
 9939TIP3    H151308   3.920   5.961  17.074  0.4105 -0.0214  0.0309
 9939TIP3    H251309   3.840   5.971  16.946 -0.2880  0.9822  0.5305
 9940TIP3   OH251310   3.182   2.648   5.434 -0.3119  0.1238 -0.0575
 9940TIP3    H151311   3.143   2.601   5.361 -0.2336  0.2248 -0.1645
 9940TIP3    H251312   3.262   2.599   5.454  1.2185  1.7133 -1.9174
 9941TIP3   OH251313   2.041   1.820   5.670 -0.4970 -0.5075  0.2057
 9941TIP3    H151314   2.083   1.781   5.593 -1.4945 -1.7739  0.2625
 9941TIP3    H251315   1.947   1.808   5.655 -0.7937  1.0646  0.6871
 9942TIP3   OH251316   0.779   0.791   2.093  0.0760  0.1004 -0.4906
 9942TIP3    H151317   0.696   0.744   2.089 -0.4149  0.8303  0.5935
 9942TIP3    H251318   0.836   0.745   2.032 -0.5999 -1.4490 -0.0022
 9943TIP3   OH251319   1.489   2.806   2.896  0.1835  0.1664 -0.1831
 9943TIP3    H151320   1.504   2.894   2.928 -0.6784 -0.3991  1.9769
 9943TIP3    H251321   1.528   2.749   2.962  2.5975 -1.1587 -2.5287
 9944TIP3   OH251322   0.362   1.933  13.990  0.5056  0.2564  0.1200
 9944TIP3    H151323   0.411   1.863  14.033 -2.0800 -1.7703  0.0046
 9944TIP3    H251324   0.317   1.889  13.918  0.1209  2.4238 -1.0399
 9945TIP3   OH251325   0.815   1.143  12.626  0.3228  0.3767 -0.0221
 9945TIP3    H151326   0.738   1.193  12.653 -1.2298 -1.9606  0.2000
 9945TIP3    H251327   0.805   1.133  12.531 -0.1753 -0.6645  0.1203
 9946TIP3   OH251328   5.054   5.214  14.838 -0.1654 -0.5292 -0.3738
 9946TIP3    H151329   4.985   5.228  14.903  0.0475  0.8971 -0.4168
 9946TIP3    H251330   5.049   5.121  14.817 -3.0537 -0.2423 -1.4408
 9947TIP3   OH251331   4.468   3.283  15.819 -0.3009 -0.1639  0.1706
 9947TIP3    H151332   4.413   3.318  15.749 -1.6386 -2.9470 -0.2881
 9947TIP3    H251333   4.438   3.328  15.898 -1.6365  0.0515 -0.4397
 9948TIP3   OH251334   3.140   4.561   4.790  0.3126  0.5575 -0.0623
 9948TIP3    H151335   3.062   4.615   4.778  0.1276  0.5087  0.8514
 9948TIP3    H251336   3.115   4.495   4.855  1.2612  0.8656  0.6509
 9949TIP3   OH251337   1.025   6.196  10.930 -0.3434 -0.7063 -0.0479
 9949TIP3    H151338   1.086   6.135  10.888  1.6219  1.3978 -0.4051
 9949TIP3    H251339   0.973   6.231  10.858  0.1611 -0.2043 -0.1716
 9950TIP3   OH251340   3.807   4.247   0.677  0.1275 -0.2807 -0.2321
 9950TIP3    H151341   3.775   4.269   0.590 -2.5099  0.4911  0.8272
 9950TIP3    H251342   3.902   4.257   0.671 -0.1651  2.6491 -2.2614
 9951TIP3   OH251343   1.451   1.169  12.400 -0.0998 -0.0529  0.1832
 9951TIP3    H151344   1.396   1.237  12.361 -1.0800 -1.3814 -0.8488
 9951TIP3    H251345   1.416   1.157  12.488 -0.2249  0.4515  0.2055
 9952TIP3   OH251346   6.283   2.752  11.488 -0.3542  0.2154 -0.2235
 9952TIP3    H151347   6.275   2.847  11.490 -2.5711  0.0702  0.2744
 9952TIP3    H251348   6.318   2.733  11.400  0.0454  1.4631 -0.3562
 9953TIP3   OH251349   0.623   2.836   0.308  0.7921 -0.0619  0.0089
 9953TIP3    H151350   0.691   2.777   0.340 -0.5169 -1.5052  0.2883
 9953TIP3    H251351   0.654   2.924   0.329  1.7542 -0.7670  1.7207
 9954TIP3   OH251352   2.059   3.722  11.930  0.3454 -0.0766 -0.1106
 9954TIP3    H151353   2.009   3.799  11.901 -1.7055 -1.0922  0.5504
 9954TIP3    H251354   2.095   3.686  11.849  0.7516  1.1555 -0.5122
 9955TIP3   OH251355   6.457   4.630  13.201 -0.8032 -0.0935  0.0324
 9955TIP3    H151356   6.542   4.673  13.212 -0.3755 -1.3702  2.1987
 9955TIP3    H251357   6.454   4.607  13.108  2.0856 -1.7259  0.2264
 9956TIP3   OH251358   0.090   1.223   4.035 -0.2176 -0.1095 -0.7275
 9956TIP3    H151359   0.181   1.192   4.028 -0.6602 -1.8045  0.5336
 9956TIP3    H251360   0.097   1.306   4.082  0.6548 -0.4390 -0.2492
 9957TIP3   OH251361   3.707   1.103  13.838  0.1516  0.3876  0.1744
 9957TIP3    H151362   3.782   1.123  13.782 -0.7952  2.7159 -0.3775
 9957TIP3    H251363   3.734   1.133  13.925 -0.4651  2.1879 -0.2242
 9958TIP3   OH251364   1.497   6.012   0.069 -0.2215 -0.5327  0.0610
 9958TIP3    H151365   1.566   6.073   0.094 -1.1578  1.0518 -1.0301
 9958TIP3    H251366   1.481   5.960   0.148  1.5971 -0.3746  0.5811
 9959TIP3   OH251367   3.510   3.906   5.418  0.0467 -0.0583  0.9175
 9959TIP3    H151368   3.430   3.855   5.407 -0.4578  0.7271  0.9109
 9959TIP3    H251369   3.502   3.945   5.505  2.6017 -3.7706  3.1321
 9960TIP3   OH251370   2.038   0.799  17.091  0.2434 -0.1172 -0.0838
 9960TIP3    H151371   1.991   0.778  17.171 -2.4894  0.5800 -1.3775
 9960TIP3    H251372   2.028   0.894  17.081 -1.2540 -0.4128 -2.1855
 9961TIP3   OH251373   1.292   2.488  14.480  0.0803  0.2933  0.2115
 9961TIP3    H151374   1.202   2.484  14.450  0.2193 -0.1716 -0.1492
 9961TIP3    H251375   1.285   2.499  14.575 -0.3541 -0.0392  0.2191
 9962TIP3   OH251376   2.926   2.939   4.488 -0.3922 -0.0532  0.3257
 9962TIP3    H151377   3.019   2.956   4.470 -0.1364 -0.1047  1.5056
 9962TIP3    H251378   2.900   3.011   4.547 -0.9002 -0.4409  0.5791
 9963TIP3   OH251379   0.576   5.271  13.647 -0.1748  0.7492  0.2773
 9963TIP3    H151380   0.570   5.317  13.731 -0.5300 -0.3189  0.8552
 9963TIP3    H251381   0.659   5.225  13.651 -0.2153  0.6582  0.0654
 9964TIP3   OH251382   0.331   6.190  12.993  0.1636 -0.2282  0.0611
 9964TIP3    H151383   0.317   6.166  13.084  0.5586 -0.3961  0.0760
 9964TIP3    H251384   0.405   6.251  12.994  0.6005 -0.7479 -0.2142
 9965TIP3   OH251385   3.670   2.172  15.720  0.4293 -0.2752 -0.1479
 9965TIP3    H151386   3.588   2.210  15.753 -0.2034 -0.7099 -1.1539
 9965TIP3    H251387   3.737   2.201  15.782 -0.5213 -0.0904  0.8227
 9966TIP3   OH251388   2.929   1.142  16.167  0.0321 -0.4120  0.2856
 9966TIP3    H151389   3.015   1.108  16.141  0.2357 -1.1905  1.8429
 9966TIP3    H251390   2.948   1.220  16.218 -0.1259 -0.9707  1.2206
 9967TIP3   OH251391   1.529   0.423  16.407 -0.1738  0.1921 -0.2869
 9967TIP3    H151392   1.593   0.373  16.356  0.4812  0.8157 -0.1000
 9967TIP3    H251393   1.575   0.443  16.489 -0.8692  0.0281  0.1474
 9968TIP3   OH251394   4.727   3.245   1.873  0.1709  0.1156 -0.7586
 9968TIP3    H151395   4.819   3.240   1.897 -0.1845  0.8485  0.8699
 9968TIP3    H251396   4.698   3.153   1.873  1.0491 -0.1852 -2.0166
 9969TIP3   OH251397   0.016   6.254   0.969  0.2875 -0.9335  0.4915
 9969TIP3    H151398   0.000   6.338   0.927  2.0505 -1.0710 -0.5472
 9969TIP3    H251399  -0.071   6.222   0.992 -0.5827  0.2342 -0.9716
 9970TIP3   OH251400   5.096   3.958   3.104 -0.0156 -0.0137 -0.2438
 9970TIP3    H151401   5.156   3.942   3.177 -0.3586 -3.1172 -0.4877
 9970TIP3    H251402   5.079   4.052   3.107  2.6811  0.5415  1.5076
 9971TIP3   OH251403   2.591   6.472  15.298 -0.3551 -0.2977 -0.0225
 9971TIP3    H151404   2.646   6.533  15.348 -1.1792  0.0707  0.4475
 9971TIP3    H251405   2.639   6.459  15.216  1.6037 -1.8067  1.2614
 9972TIP3   OH251406   6.549   0.817  11.699 -0.0561 -0.7960  0.3629
 9972TIP3    H151407   6.613   0.875  11.740 -2.4956  2.7639 -0.3469
 9972TIP3    H251408   6.578   0.810  11.608  0.2977 -0.7709  0.4708
 9973TIP3   OH251409   3.189   5.998  13.119 -0.5139  0.0558  0.0895
 9973TIP3    H151410   3.160   5.924  13.174 -0.8953 -0.8783 -1.3176
 9973TIP3    H251411   3.131   5.996  13.043  2.0178 -0.7463 -1.9677
 9974TIP3   OH251412   0.555   4.678  15.147  0.5699  0.4119  0.1237
 9974TIP3    H151413   0.490   4.700  15.081  0.0668  1.2636  0.8744
 9974TIP3    H251414   0.616   4.620  15.103  0.1695  0.8582 -1.0426
 9975TIP3   OH251415   6.636   3.877  11.349 -0.2995  0.0244 -0.6040
 9975TIP3    H151416   6.543   3.858  11.336 -0.8581  2.2241 -0.1736
 9975TIP3    H251417   6.648   3.965  11.314  1.4557  0.1018  0.0838
 9976TIP3   OH251418   1.962   5.688  12.051  0.0487  0.1600 -0.3774
 9976TIP3    H151419   1.918   5.736  11.980  1.1530 -0.1855 -1.3302
 9976TIP3    H251420   1.924   5.601  12.049 -0.6403  0.4416  0.1334
 9977TIP3   OH251421   2.878   4.529  11.674 -0.3404  0.2395  0.6971
 9977TIP3    H151422   2.801   4.586  11.666 -0.4919  0.0651  0.9088
 9977TIP3    H251423   2.842   4.440  11.677 -0.0341 -0.0024 -1.2042
 9978TIP3   OH251424   6.478   4.865   3.145  1.1060 -0.4677  0.0971
 9978TIP3    H151425   6.541   4.887   3.214  0.9705  0.3078 -0.0225
 9978TIP3    H251426   6.393   4.881   3.184  1.0060 -0.6437 -0.0461
 9979TIP3   OH251427   3.387   2.065  12.364 -0.1906  0.7223  0.2097
 9979TIP3    H151428   3.415   1.974  12.373 -0.2222  0.5925 -0.9155
 9979TIP3    H251429   3.363   2.074  12.272  0.1916  1.9785  0.2172
 9980TIP3   OH251430   4.460   5.896  12.972  0.0708 -0.5568  0.1844
 9980TIP3    H151431   4.436   5.981  13.011  1.7652  0.4962 -0.9480
 9980TIP3    H251432   4.549   5.909  12.939  0.4528 -2.8666  0.1529
 9981TIP3   OH251433   6.512   4.191  12.289  0.4030 -0.2734  0.2152
 9981TIP3    H151434   6.457   4.267  12.307 -0.5083 -0.8702  0.0129
 9981TIP3    H251435   6.454   4.128  12.246  1.1866 -1.0101  0.1919
 9982TIP3   OH251436   1.084   2.274  12.869  0.3643 -0.2419 -0.0500
 9982TIP3    H151437   1.037   2.203  12.912  0.3385 -0.5813 -0.6245
 9982TIP3    H251438   1.016   2.326  12.827  0.3520  0.3455  0.6879
 9983TIP3   OH251439   0.558   5.766  14.333 -0.1449 -0.1129 -0.5772
 9983TIP3    H151440   0.470   5.746  14.363 -0.9648  3.0107 -0.6686
 9983TIP3    H251441   0.610   5.773  14.413 -0.0790 -1.3132 -0.4927
 9984TIP3   OH251442   5.868   5.697   6.203  0.1710  0.8165  0.7266
 9984TIP3    H151443   5.875   5.701   6.108  1.0617 -0.9255  0.6805
 9984TIP3    H251444   5.950   5.735   6.235  0.0630  0.9959  0.7936
 9985TIP3   OH251445   4.927   3.847   3.265 -0.1092 -0.5949  0.0522
 9985TIP3    H151446   4.979   3.863   3.186 -0.2302 -0.4412  0.0015
 9985TIP3    H251447   4.985   3.870   3.337 -0.5586  0.9402 -0.0433
 9986TIP3   OH251448   5.430   2.485  14.743  0.1552 -0.8115  0.3728
 9986TIP3    H151449   5.488   2.461  14.815  0.3916 -0.5101  0.2865
 9986TIP3    H251450   5.441   2.415  14.678  0.1392 -0.9467  0.5143
 9987TIP3   OH251451   2.728   6.628   1.452  0.5321 -0.2356 -0.0198
 9987TIP3    H151452   2.762   6.555   1.504 -1.7090 -0.6678  0.9674
 9987TIP3    H251453   2.653   6.660   1.502 -1.1121 -0.0082 -2.4459
 9988TIP3   OH251454   1.675   1.683  14.662 -0.5929 -0.1520 -0.3933
 9988TIP3    H151455   1.703   1.608  14.610 -2.7890 -2.2426  1.1708
 9988TIP3    H251456   1.749   1.701  14.720  0.0746 -0.9809 -0.9646
 9989TIP3   OH251457   1.472   4.426   3.788 -0.2784  0.1604  0.6347
 9989TIP3    H151458   1.565   4.446   3.776 -0.3439  0.4791  0.6376
 9989TIP3    H251459   1.428   4.479   3.721 -0.4163 -0.4159  0.2618
 9990TIP3   OH251460   1.834   0.611   6.332 -0.1769  0.6488  0.2369
 9990TIP3    H151461   1.816   0.548   6.402  0.3135 -1.4987 -1.4906
 9990TIP3    H251462   1.927   0.604   6.316 -0.6885 -1.0846 -2.5451
 9991TIP3   OH251463   4.749   5.442   3.656  0.1571  0.5218  0.0611
 9991TIP3    H151464   4.755   5.352   3.622 -0.6638 -0.2614  1.8726
 9991TIP3    H251465   4.716   5.432   3.745  1.1361  2.5650  0.7153
 9992TIP3   OH251466   4.614   6.802  14.327  0.1570 -0.8838  0.1328
 9992TIP3    H151467   4.625   6.778  14.419 -1.9842 -1.9298  0.1697
 9992TIP3    H251468   4.532   6.850  14.324  0.2226 -0.8178 -1.2460
 9993TIP3   OH251469   4.701   6.210  13.314  0.6200  0.2176 -0.3319
 9993TIP3    H151470   4.734   6.286  13.362 -1.6961  1.1061 -0.0549
 9993TIP3    H251471   4.768   6.195  13.246  2.8535  0.2841  1.7169
 9994TIP3   OH251472   1.086   2.904   4.873  0.1233 -0.6608 -0.2466
 9994TIP3    H151473   1.024   2.897   4.800 -1.4198  2.7473  0.5143
 9994TIP3    H251474   1.160   2.952   4.836 -0.4483  0.6406  0.2330
 9995TIP3   OH251475   4.635   0.996  15.023  0.4584  0.1596  0.2855
 9995TIP3    H151476   4.602   1.068  15.076 -0.2534 -0.5799  0.8611
 9995TIP3    H251477   4.676   0.937  15.086  3.0120  1.0705 -0.3970
 9996TIP3   OH251478   0.716   6.157  11.560  0.0056 -0.3883  0.2192
 9996TIP3    H151479   0.792   6.213  11.575 -0.3439  0.2165 -0.2167
 9996TIP3    H251480   0.667   6.201  11.490  0.7462 -2.2735 -1.5767
 9997TIP3   OH251481   3.029   5.346   5.792 -0.3542 -0.2745 -0.0300
 9997TIP3    H151482   2.994   5.422   5.839 -1.0613 -1.0646  0.7586
 9997TIP3    H251483   3.079   5.298   5.859 -1.5233 -1.5092 -0.0185
 9998TIP3   OH251484   2.150   3.232  10.664  0.0290  0.0088  0.2723
 9998TIP3    H151485   2.058   3.209  10.657  0.4616 -1.5468 -1.0309
 9998TIP3    H251486   2.194   3.177  10.598  1.9651  0.2006  1.3132
 9999TIP3   OH251487   4.245   3.771   2.366 -0.1048 -0.5873 -0.3541
 9999TIP3    H151488   4.207   3.733   2.446 -1.7026  1.6148  0.0116
 9999TIP3    H251489   4.190   3.739   2.295 -1.1180  0.5341 -0.1040
10000TIP3   OH251490   0.345   4.086   2.629 -0.0552 -0.0292 -0.3958
10000TIP3    H151491   0.409   4.051   2.691  1.2117  1.6994 -0.6617
10000TIP3    H251492   0.288   4.011   2.609  0.7264 -1.1426  1.2759
10001TIP3   OH251493   4.157   1.158   1.616 -0.2175  0.4584 -0.0883
10001TIP3    H151494   4.216   1.083   1.619  0.0854  0.6100 -1.4669
10001TIP3    H251495   4.152   1.189   1.706 -0.9549 -1.6628  0.6604
10002TIP3   OH251496   0.756   5.106  15.255  0.1920  0.1236  0.0978
10002TIP3    H151497   0.774   5.101  15.162 -1.5426  0.8473 -0.3117
10002TIP3    H251498   0.670   5.146  15.261 -0.0829 -0.6338  1.9868
10003TIP3   OH251499   6.782   6.458   5.720  0.0014  0.1199  0.1930
10003TIP3    H151500   6.782   6.468   5.815 -0.7660 -0.7946  0.3038
10003TIP3    H251501   6.728   6.381   5.704  0.5096 -0.0204 -0.9611
10004TIP3   OH251502   2.467   3.503   0.069 -0.0246  0.3696 -0.3104
10004TIP3    H151503   2.372   3.512   0.076  0.1230  1.7935  0.1578
10004TIP3    H251504   2.483   3.410   0.084 -1.2616  0.2591  0.5076
10005TIP3   OH251505   3.855   2.727  13.185 -0.1215  0.5004  0.1040
10005TIP3    H151506   3.798   2.802  13.171 -0.7843 -0.0068  0.0176
10005TIP3    H251507   3.866   2.689  13.098  0.0677  0.3963  0.1730
10006TIP3   OH251508   2.112   0.579  12.837  0.5822 -0.6891 -0.2694
10006TIP3    H151509   2.201   0.549  12.818  0.3596 -1.0997 -0.6699
10006TIP3    H251510   2.060   0.553  12.761 -0.0619 -1.2502  0.3348
10007TIP3   OH251511   0.446   1.368  11.979  0.4539 -0.4997 -0.6762
10007TIP3    H151512   0.538   1.374  11.955  0.4311  2.8106 -0.3956
10007TIP3    H251513   0.444   1.392  12.072 -0.5472 -2.6666 -0.0570
10008TIP3   OH251514   5.449   2.126   1.988  0.0664 -0.3580 -0.0440
10008TIP3    H151515   5.442   2.044   2.036  1.4840 -1.6431 -1.8936
10008TIP3    H251516   5.358   2.157   1.981 -0.1819  0.1674  3.7073
10009TIP3   OH251517   5.170   6.218   2.363  0.0894 -0.2816 -0.0982
10009TIP3    H151518   5.142   6.309   2.356 -0.5401 -0.6081 -2.5132
10009TIP3    H251519   5.265   6.221   2.351  0.1397  0.0917  0.3661
10010TIP3   OH251520   0.768   5.258  17.072 -0.3383 -0.3248  0.2192
10010TIP3    H151521   0.706   5.320  17.110 -1.0191  2.0051 -4.0124
10010TIP3    H251522   0.718   5.215  17.002  1.5718 -1.9561 -0.2174
10011TIP3   OH251523   2.767   1.831  14.997  0.0080 -0.6882  0.6703
10011TIP3    H151524   2.798   1.909  14.952 -1.4554 -0.8351 -0.6968
10011TIP3    H251525   2.707   1.864  15.065 -1.8271 -0.5942 -0.8978
10012TIP3   OH251526   4.937   5.678   4.685  0.3592  0.3680 -0.1716
10012TIP3    H151527   4.868   5.744   4.679 -0.5745 -0.4785  0.8953
10012TIP3    H251528   5.006   5.720   4.737  0.0416  0.7187 -0.0297
10013TIP3   OH251529   1.432   5.128  17.247 -0.0380 -0.0085 -0.1853
10013TIP3    H151530   1.505   5.157  17.192  0.8445  0.8461  1.3536
10013TIP3    H251531   1.428   5.193  17.317 -2.0917 -0.2273 -0.0477
10014TIP3   OH251532   4.764   2.681  12.573  0.3221 -0.2118  0.1540
10014TIP3    H151533   4.759   2.663  12.666 -0.9974 -0.3378  0.0727
10014TIP3    H251534   4.676   2.663  12.539  0.6215  0.3657 -1.0139
10015TIP3   OH251535   2.498   1.513   1.118  0.0377 -0.2220  0.0913
10015TIP3    H151536   2.572   1.459   1.145 -0.1813  0.2388  1.7364
10015TIP3    H251537   2.536   1.601   1.105 -0.5749  0.7455  3.8047
10016TIP3   OH251538   2.022   6.750  12.075  0.3048  0.1629 -0.1959
10016TIP3    H151539   2.031   6.736  12.169  0.7268 -0.6873 -0.3478
10016TIP3    H251540   2.012   6.662  12.039  1.5027  0.3533 -1.0739
10017TIP3   OH251541   6.408   4.865  16.803 -0.0047 -0.2716  0.0214
10017TIP3    H151542   6.355   4.826  16.733  0.2463 -1.2528  0.3647
10017TIP3    H251543   6.373   4.954  16.812 -1.2617 -0.7248 -0.1031
10018TIP3   OH251544   1.660   5.021  13.930  0.0461  0.1095  0.1012
10018TIP3    H151545   1.739   5.041  13.879 -1.9914 -0.3941 -3.6672
10018TIP3    H251546   1.603   5.096  13.916 -0.9283 -0.4338  1.0399
10019TIP3   OH251547   3.214   3.580  12.102  0.3601 -0.0824 -0.6111
10019TIP3    H151548   3.255   3.555  12.185  0.5396  0.8300 -0.4159
10019TIP3    H251549   3.228   3.504  12.044 -0.1014 -0.8861  0.2999
10020TIP3   OH251550   6.473   0.163   1.321  0.1716 -0.1939  0.1781
10020TIP3    H151551   6.568   0.155   1.311  0.2892  0.7768  0.4262
10020TIP3    H251552   6.462   0.217   1.399 -0.6192 -1.5829  1.0623
10021TIP3   OH251553   4.280   4.956   2.891  0.5327  0.5913  0.3795
10021TIP3    H151554   4.253   5.040   2.853 -0.1569  0.1657 -0.0854
10021TIP3    H251555   4.199   4.905   2.898  0.6981  0.5187  2.0957
10022TIP3   OH251556   1.658   2.375   0.508  0.8674 -0.0705 -0.0229
10022TIP3    H151557   1.618   2.374   0.594  1.8725 -0.4448  0.4562
10022TIP3    H251558   1.654   2.284   0.478  1.0707 -0.0529 -0.1066
10023TIP3   OH251559   0.567   1.908  12.442 -0.5053  0.4522 -0.2812
10023TIP3    H151560   0.574   1.847  12.369  3.0355  0.1862  0.1103
10023TIP3    H251561   0.518   1.982  12.407 -2.6420 -1.4386 -1.5428
10024TIP3   OH251562   2.910   1.926  11.475  0.2703  0.2974  0.1907
10024TIP3    H151563   2.969   1.851  11.475  0.6812  0.6177 -0.2970
10024TIP3    H251564   2.920   1.965  11.562  1.8330  1.1674 -0.3498
10025TIP3   OH251565   6.108   6.196   2.252 -0.3348  0.2674  0.2715
10025TIP3    H151566   6.158   6.184   2.171 -1.2244  1.8981 -0.5731
10025TIP3    H251567   6.021   6.224   2.222 -1.1806 -0.6332  1.7597
10026TIP3   OH251568   6.540   5.127   5.329  0.7199  0.1679 -0.3275
10026TIP3    H151569   6.534   5.099   5.238 -0.1891 -0.0374 -0.2132
10026TIP3    H251570   6.508   5.217   5.328 -0.5292 -0.2587 -0.0198
10027TIP3   OH251571   3.909   5.928  12.049 -0.3122 -0.4978  0.0815
10027TIP3    H151572   3.969   5.868  12.003  1.0986  1.2368 -0.4594
10027TIP3    H251573   3.847   5.954  11.982  0.1663  0.0115 -0.1740
10028TIP3   OH251574   0.557   1.138  11.805  0.1595 -0.0686  0.2500
10028TIP3    H151575   0.503   1.205  11.763  0.0081  2.0505  3.4558
10028TIP3    H251576   0.527   1.056  11.768 -2.0882  1.3826 -1.3928
10029TIP3   OH251577   3.825   3.776   3.173 -0.1808 -0.3735  0.0240
10029TIP3    H151578   3.790   3.859   3.204 -0.5560 -1.0390  1.4481
10029TIP3    H251579   3.758   3.744   3.112 -0.0412  0.3304 -0.5183
10030TIP3   OH251580   4.021   3.759   1.377  0.7437  0.2191  0.1413
10030TIP3    H151581   4.049   3.669   1.395 -0.7196 -0.1626  0.6492
10030TIP3    H251582   3.927   3.752   1.361  0.4109  1.8137  1.2204
10031TIP3   OH251583   2.006   3.972   2.197  0.1022 -0.2893  0.1362
10031TIP3    H151584   1.954   4.023   2.135  1.8268  0.7637 -0.5440
10031TIP3    H251585   2.064   3.919   2.141  0.4910 -0.6140  0.8382
10032TIP3   OH251586   0.015   2.766   5.034  0.3925 -0.0775  0.0116
10032TIP3    H151587   0.026   2.712   5.112  0.6602 -1.2649 -0.8153
10032TIP3    H251588  -0.080   2.771   5.022  0.3541  0.0138  0.3535
10033TIP3   OH251589   0.926   1.929  16.322  0.5845  0.2980  0.5848
10033TIP3    H151590   0.859   1.915  16.389 -0.9721  0.4689 -0.8749
10033TIP3    H251591   0.881   1.977  16.253  1.9822 -0.3470 -0.8378
10034TIP3   OH251592   4.882   3.892   0.021  0.2195  0.0539  0.0875
10034TIP3    H151593   4.972   3.903  -0.010 -0.4367  0.1973 -1.9014
10034TIP3    H251594   4.830   3.881  -0.059 -1.4487 -0.7336  1.2175
10035TIP3   OH251595   2.421   2.683   4.750 -0.8792  0.1453 -0.3641
10035TIP3    H151596   2.497   2.741   4.744 -0.1778 -0.8521 -1.9725
10035TIP3    H251597   2.411   2.648   4.662 -0.8014 -2.6970  0.6324
10036TIP3   OH251598   6.065   3.959   5.873  0.2455  0.2462 -0.4336
10036TIP3    H151599   6.065   4.055   5.871  0.9102  0.2812  0.6317
10036TIP3    H251600   6.121   3.933   5.799 -0.4245  0.6500 -1.0984
10037TIP3   OH251601   2.378   3.833  10.860  0.9901 -0.1598 -0.5525
10037TIP3    H151602   2.319   3.872  10.795 -3.0201 -1.2392  2.0364
10037TIP3    H251603   2.384   3.741  10.834  0.1640 -0.3845 -0.0002
10038TIP3   OH251604   6.663   3.890   5.606  0.3835  0.1779 -0.5099
10038TIP3    H151605   6.597   3.960   5.611 -0.6628 -0.8691  1.5200
10038TIP3    H251606   6.621   3.814   5.647  2.9264 -0.4682  1.1409
10039TIP3   OH251607   6.458   4.316   5.945 -0.9945  0.6632  0.8190
10039TIP3    H151608   6.539   4.265   5.941 -0.0703  2.1272 -1.3973
10039TIP3    H251609   6.427   4.306   6.035  1.2425 -0.5496  1.5262
10040TIP3   OH251610   3.520   4.485  12.412  0.1501  0.1308 -0.6876
10040TIP3    H151611   3.458   4.413  12.417  0.8683 -0.5067 -0.7423
10040TIP3    H251612   3.606   4.443  12.406  0.4744  0.9357 -2.6785
10041TIP3   OH251613   0.505   0.797   6.470 -0.3761  0.4855  0.5257
10041TIP3    H151614   0.476   0.712   6.438 -0.0544  0.3055  0.6999
10041TIP3    H251615   0.425   0.844   6.491 -0.6180  0.7957 -0.9994
10042TIP3   OH251616   1.931   3.491   5.714  0.3150 -0.4124 -0.3967
10042TIP3    H151617   1.845   3.457   5.688 -0.0857  0.4097 -0.1833
10042TIP3    H251618   1.946   3.455   5.801  0.1478 -0.4780 -0.3948
10043TIP3   OH251619   0.840   2.964   3.861  0.1636 -0.2015  0.1641
10043TIP3    H151620   0.909   3.016   3.902  0.1526 -0.0251 -0.0353
10043TIP3    H251621   0.791   2.927   3.933 -0.5753  1.0455  0.3293
10044TIP3   OH251622   5.607   4.410  17.110 -0.3184  0.7241  0.0159
10044TIP3    H151623   5.636   4.338  17.166 -0.2753  0.6065 -0.1586
10044TIP3    H251624   5.625   4.489  17.161  0.1799  0.6455 -0.0350
10045TIP3   OH251625   5.190   6.563   5.013 -0.4397 -0.2733  0.0900
10045TIP3    H151626   5.115   6.616   5.041 -0.7091 -1.7658  2.4981
10045TIP3    H251627   5.254   6.628   4.983 -0.7726  1.5110  2.8189
10046TIP3   OH251628   4.606   6.244   3.316  0.2468 -0.5228  0.0278
10046TIP3    H151629   4.608   6.278   3.405  1.2139  0.3235 -0.2989
10046TIP3    H251630   4.679   6.182   3.312 -0.1570 -1.0102 -0.0233
10047TIP3   OH251631   2.121   5.745  17.110  0.1808  0.2131  0.5188
10047TIP3    H151632   2.139   5.669  17.165  0.1623 -0.2908 -0.1533
10047TIP3    H251633   2.071   5.805  17.165 -1.9416 -1.2967  0.3478
10048TIP3   OH251634   4.871   4.857  11.256  0.2638 -0.4289 -0.1915
10048TIP3    H151635   4.961   4.838  11.229 -0.0900 -1.5483 -0.6617
10048TIP3    H251636   4.819   4.791  11.211 -0.6125 -0.9231  1.4716
10049TIP3   OH251637   5.208   3.813  13.441  0.2515 -0.1440 -0.3453
10049TIP3    H151638   5.164   3.889  13.480  0.1824 -1.5911  2.7721
10049TIP3    H251639   5.301   3.830  13.452  0.2247 -0.7540  1.0246
10050TIP3   OH251640   4.952   1.065   3.851 -0.1827 -0.3003  0.2370
10050TIP3    H151641   5.009   1.014   3.910 -0.5205  0.6504  1.4293
10050TIP3    H251642   5.013   1.108   3.791  0.4197  0.7470  1.5334
10051TIP3   OH251643   4.555   1.779   4.946  0.3453  0.1622 -0.6106
10051TIP3    H151644   4.552   1.824   5.031  2.1838  1.4449 -1.1644
10051TIP3    H251645   4.585   1.690   4.967  0.0124  0.2257  0.1603
10052TIP3   OH251646   1.018   4.858  14.733 -0.0429  0.0455  0.6001
10052TIP3    H151647   0.999   4.949  14.710  0.5844  0.1093  0.3168
10052TIP3    H251648   0.943   4.809  14.700  0.6025  0.1928 -1.2025
10053TIP3   OH251649   0.145   2.479   5.727  0.0557 -0.0317 -0.0087
10053TIP3    H151650   0.064   2.433   5.709  0.3022 -1.0678  1.3599
10053TIP3    H251651   0.155   2.475   5.823  0.9298  1.4365  0.0074
10054TIP3   OH251652   3.935   3.911   1.956  0.0975  0.4927 -0.0646
10054TIP3    H151653   3.960   3.830   2.000  0.0171  0.4746 -0.0518
10054TIP3    H251654   4.016   3.961   1.951 -0.1546  1.0807  1.3383
10055TIP3   OH251655   6.002   2.858   1.638  0.4567 -0.2523 -0.2801
10055TIP3    H151656   6.091   2.861   1.603 -0.6426  0.9374 -3.3212
10055TIP3    H251657   5.952   2.807   1.574 -1.3730  0.4882  0.4726
10056TIP3   OH251658   6.120   1.082   5.206 -0.1055 -0.1421 -0.0672
10056TIP3    H151659   6.143   1.082   5.113  3.0469 -0.9169  0.6008
10056TIP3    H251660   6.142   1.170   5.235  1.0196 -0.5412  0.3439
10057TIP3   OH251661   4.274   3.926   0.441  0.0578 -0.1432  0.6994
10057TIP3    H151662   4.262   3.988   0.369  0.8271  0.6862  1.2687
10057TIP3    H251663   4.330   3.972   0.504  0.9116 -1.5333  0.9963
10058TIP3   OH251664   3.839   6.791  13.127 -0.4536  0.0129  0.0736
10058TIP3    H151665   3.897   6.733  13.076  0.8706  1.4195 -0.0947
10058TIP3    H251666   3.894   6.820  13.200 -1.3442  0.4393  0.5807
10059TIP3   OH251667   2.891   4.443   2.468  0.3711  0.3025 -0.5303
10059TIP3    H151668   2.824   4.394   2.420  0.6128  1.1416 -1.7723
10059TIP3    H251669   2.877   4.419   2.560  0.0060 -1.4781 -1.0136
10060TIP3   OH251670   5.277   0.468   6.272 -0.5959 -0.0212  0.0549
10060TIP3    H151671   5.251   0.412   6.345  1.1480  0.9291  1.4906
10060TIP3    H251672   5.355   0.514   6.304  0.0238  0.6926 -2.2968
10061TIP3   OH251673   1.241   1.943  15.954 -0.2527 -0.0092 -0.9276
10061TIP3    H151674   1.239   1.958  15.860 -1.2192  2.8800 -0.5337
10061TIP3    H251675   1.152   1.961  15.984  0.1614 -0.3300  0.6262
10062TIP3   OH251676   4.773   5.722   3.794 -0.3947  0.4007 -0.1880
10062TIP3    H151677   4.820   5.713   3.877  0.3605  0.8883 -0.5557
10062TIP3    H251678   4.692   5.674   3.808 -0.9729  1.7214  1.3717
10063TIP3   OH251679   6.505   4.882   5.662 -0.3136  0.3256 -0.0013
10063TIP3    H151680   6.564   4.808   5.676 -0.7182 -0.2496 -1.1268
10063TIP3    H251681   6.491   4.919   5.749 -2.9597 -3.1368  1.3118
10064TIP3   OH251682   4.874   1.587  14.652  1.0576  0.7252 -0.5472
10064TIP3    H151683   4.904   1.676  14.630 -1.7465  1.8401 -0.2355
10064TIP3    H251684   4.859   1.546  14.567  2.0023  0.6670 -0.6946
10065TIP3   OH251685   4.709   1.065  13.323 -0.3828  0.0399  0.2659
10065TIP3    H151686   4.728   1.081  13.416  1.3981 -1.6517  0.2421
10065TIP3    H251687   4.634   1.005  13.325  0.8219 -1.5266  0.7273
10066TIP3   OH251688   3.932   4.307   4.360 -0.0870  0.0636  0.4680
10066TIP3    H151689   3.968   4.393   4.380 -0.7044  0.5905 -0.6388
10066TIP3    H251690   4.008   4.249   4.359  0.8280  1.1983 -2.1003
10067TIP3   OH251691   1.473   3.209   2.701 -0.0730 -0.2643  0.5589
10067TIP3    H151692   1.500   3.130   2.653 -0.1389 -1.6482  2.6426
10067TIP3    H251693   1.382   3.191   2.726  0.0970  0.1740  1.5508
10068TIP3   OH251694   2.737   0.591  10.822 -0.1419 -0.1411  0.0421
10068TIP3    H151695   2.782   0.666  10.861 -0.4364  1.9245 -3.2627
10068TIP3    H251696   2.646   0.599  10.852 -0.4437  1.5984 -1.2530
10069TIP3   OH251697   4.898   2.937  12.587  0.9224 -0.1739 -0.2059
10069TIP3    H151698   4.961   2.920  12.656  1.1596  0.2177 -0.3233
10069TIP3    H251699   4.841   2.860  12.586  0.8556 -0.1353  0.4896
10070TIP3   OH251700   0.656   5.712  14.045  0.1319 -0.1628 -0.3815
10070TIP3    H151701   0.652   5.716  14.140  0.6512  1.8946 -0.4059
10070TIP3    H251702   0.736   5.663  14.026 -0.8742 -2.1437  0.1797
10071TIP3   OH251703   6.585   3.656  14.363  0.5619 -0.2987  0.4522
10071TIP3    H151704   6.490   3.655  14.378 -0.1804 -2.9070 -3.0150
10071TIP3    H251705   6.617   3.579  14.410  0.7075 -0.2806  0.3831
10072TIP3   OH251706   0.031   1.353  14.307 -0.4530 -0.1529  0.3599
10072TIP3    H151707  -0.017   1.393  14.380 -0.3865 -0.0522  0.3484
10072TIP3    H251708   0.119   1.388  14.315 -0.0256 -1.3640  1.1775
10073TIP3   OH251709   3.129   1.179   5.658 -0.1606 -0.0690  0.1175
10073TIP3    H151710   3.053   1.233   5.677  0.2021  0.6323 -0.3829
10073TIP3    H251711   3.151   1.139   5.742 -1.1210 -0.3419  0.2487
10074TIP3   OH251712   5.004   0.149  13.564 -0.1847 -0.1750  0.6846
10074TIP3    H151713   5.036   0.217  13.624 -0.3620  1.2774 -0.7773
10074TIP3    H251714   5.081   0.119  13.518 -0.2806  0.0050  0.4016
10075TIP3   OH251715   5.984   3.148   6.177 -0.1551 -0.5157 -0.5580
10075TIP3    H151716   5.894   3.175   6.194 -0.3960 -1.7929  0.3228
10075TIP3    H251717   6.038   3.209   6.228 -0.5296  0.0846 -0.8754
10076TIP3   OH251718   3.185   2.958   3.422  0.5161  0.2560  0.6826
10076TIP3    H151719   3.224   2.876   3.392  0.2831  0.5153 -0.3664
10076TIP3    H251720   3.179   2.948   3.517 -1.4742 -1.8546  0.4261
10077TIP3   OH251721   5.834   4.593  12.049 -0.1204  0.1247 -0.5883
10077TIP3    H151722   5.923   4.561  12.058 -0.6867 -1.1974  0.8433
10077TIP3    H251723   5.830   4.670  12.106 -0.0739 -0.2624 -0.0492
10078TIP3   OH251724   2.252   2.410   0.431 -0.0899  0.6279  0.1239
10078TIP3    H151725   2.245   2.392   0.525  0.5004  3.2642  0.7345
10078TIP3    H251726   2.343   2.436   0.418 -0.6568  2.2860 -0.7806
10079TIP3   OH251727   4.491   3.649  12.834 -0.0232 -0.3411 -0.2231
10079TIP3    H151728   4.553   3.705  12.882 -1.3474 -0.2334  1.4560
10079TIP3    H251729   4.456   3.705  12.765 -0.2453  0.4496  0.5180
10080TIP3   OH251730   1.051   2.709   0.103  0.0826  0.0226 -0.5489
10080TIP3    H151731   1.079   2.619   0.085 -1.1536  0.0528 -3.1259
10080TIP3    H251732   0.987   2.700   0.174  0.4840 -1.0353 -0.2918
10081TIP3   OH251733   0.299   0.119  12.231  0.5971  0.1804 -0.2868
10081TIP3    H151734   0.341   0.204  12.247 -0.9768  1.4610 -2.5399
10081TIP3    H251735   0.371   0.056  12.239  1.7203  1.5735  1.9789
10082TIP3   OH251736   0.241   0.165   2.019 -0.1746 -0.0833 -0.4456
10082TIP3    H151737   0.288   0.091   1.981 -1.1149 -1.4877  1.0058
10082TIP3    H251738   0.298   0.240   2.004  1.5018 -1.3389 -0.6542
10083TIP3   OH251739   6.678   1.546  15.758 -0.0658  0.5960  0.5401
10083TIP3    H151740   6.693   1.485  15.830  1.9331 -0.9048 -1.0531
10083TIP3    H251741   6.749   1.610  15.766  0.6563 -0.0473 -0.5284
10084TIP3   OH251742   1.178   6.231  16.389 -0.1512  0.6088  0.2964
10084TIP3    H151743   1.268   6.238  16.420  0.1502 -4.1795  1.3464
10084TIP3    H251744   1.126   6.275  16.455  1.2099 -0.3632  2.1095
10085TIP3   OH251745   2.504   4.767  14.794  0.2567  0.4648  0.2498
10085TIP3    H151746   2.497   4.791  14.701  1.3229  0.2237  0.0984
10085TIP3    H251747   2.538   4.677  14.793  1.9080  1.0419  0.8702
10086TIP3   OH251748   3.115   5.032  15.851 -0.0196 -0.2512 -0.3090
10086TIP3    H151749   3.027   5.002  15.830 -0.5243  0.5837  0.5149
10086TIP3    H251750   3.118   5.122  15.817  0.7377 -0.4931 -0.8951
10087TIP3   OH251751   6.682   0.701   4.900 -0.0524 -0.3818 -0.3299
10087TIP3    H151752   6.610   0.642   4.923 -0.4533 -0.2506 -1.2199
10087TIP3    H251753   6.761   0.654   4.928 -0.4068 -1.0679 -0.4718
10088TIP3   OH251754   6.122   2.213  15.616 -0.2221  0.3026  0.6821
10088TIP3    H151755   6.172   2.294  15.630 -1.1505  1.2966 -1.3354
10088TIP3    H251756   6.032   2.236  15.638  0.0480 -1.5208  4.4476
10089TIP3   OH251757   2.546   1.497  14.000  0.2796 -0.1032 -0.1640
10089TIP3    H151758   2.521   1.571  13.945 -0.2624  1.4799  2.0451
10089TIP3    H251759   2.468   1.441  14.002  0.2366 -0.0740 -0.8115
10090TIP3   OH251760   3.714   6.793  14.604 -0.1084 -0.6462 -0.0772
10090TIP3    H151761   3.809   6.780  14.607  0.0261  0.3816  2.0436
10090TIP3    H251762   3.683   6.756  14.687 -1.7231 -1.8296 -1.1516
10091TIP3   OH251763   4.019   3.186  12.462 -0.3712 -0.3701 -0.0816
10091TIP3    H151764   4.042   3.187  12.369  0.1099 -0.1523  0.0394
10091TIP3    H251765   3.982   3.273  12.478 -1.8870 -0.9167 -0.4188
10092TIP3   OH251766   2.751   0.349  11.613  0.1360  0.5408  0.0859
10092TIP3    H151767   2.739   0.302  11.530 -1.8708  1.1611 -0.0352
10092TIP3    H251768   2.773   0.438  11.587  1.4887  0.2804  0.2798
10093TIP3   OH251769   0.129   5.498  12.323 -0.4521  0.4631 -0.0836
10093TIP3    H151770   0.063   5.556  12.361 -1.4149  0.7429 -2.0575
10093TIP3    H251771   0.082   5.418  12.302 -0.0243  0.3932 -0.8365
10094TIP3   OH251772   0.960   0.741   0.764 -0.8404  0.4429  1.0125
10094TIP3    H151773   0.993   0.653   0.748 -0.3858  0.8110 -0.1955
10094TIP3    H251774   0.955   0.748   0.859  0.1396 -0.5120  1.1577
10095TIP3   OH251775   6.441   4.115   4.785 -0.0086  0.0232 -0.3589
10095TIP3    H151776   6.465   4.092   4.875 -1.7972  0.0981  0.1741
10095TIP3    H251777   6.521   4.151   4.748  0.9345 -0.5532  1.0157
10096TIP3   OH251778   2.814   4.649  15.259 -0.0290  0.3359  0.7856
10096TIP3    H151779   2.888   4.639  15.319 -0.0878  1.1176  1.0021
10096TIP3    H251780   2.806   4.564  15.217  0.7800  0.1350  1.0084
10097TIP3   OH251781   5.835   5.184  12.510  0.6630 -0.3542 -0.1991
10097TIP3    H151782   5.764   5.225  12.460 -0.3320 -0.6359  0.9429
10097TIP3    H251783   5.906   5.175  12.447  0.3752  1.6873 -0.8908
10098TIP3   OH251784   2.789   3.462   4.685 -0.9229  0.3457 -0.3071
10098TIP3    H151785   2.742   3.530   4.733 -1.0090 -1.2570  1.9950
10098TIP3    H251786   2.740   3.452   4.603 -2.4665  1.1897  0.4735
10099TIP3   OH251787   0.660   3.115  12.064 -0.1111  0.5080 -0.1757
10099TIP3    H151788   0.665   3.104  12.158  3.4076  1.3064 -0.1613
10099TIP3    H251789   0.677   3.208  12.049  1.8615 -0.0124 -1.6311
10100TIP3   OH251790   0.732   6.333   1.275  0.0445  0.0150  0.3312
10100TIP3    H151791   0.705   6.241   1.276  2.4920 -0.8474  3.6290
10100TIP3    H251792   0.664   6.378   1.325 -2.2291  0.5747 -2.9159
10101TIP3   OH251793   2.153   4.704   4.372  0.1143 -0.0587 -0.2963
10101TIP3    H151794   2.204   4.783   4.394 -0.8351  0.5920 -0.3669
10101TIP3    H251795   2.083   4.702   4.436 -0.7903  0.0554 -1.2467
10102TIP3   OH251796   0.126   4.296  12.327 -0.1600  0.8728 -0.3607
10102TIP3    H151797   0.055   4.290  12.263 -2.6420 -1.1384  2.2490
10102TIP3    H251798   0.100   4.368  12.385 -0.5531 -0.3286  1.0241
10103TIP3   OH251799   0.020   3.465   5.856  0.5790  0.4144 -0.4273
10103TIP3    H151800  -0.004   3.553   5.828  0.0094  1.3015  2.4521
10103TIP3    H251801  -0.058   3.413   5.840  0.2834  0.8757 -0.5151
10104TIP3   OH251802   3.704   1.378  10.786 -0.4130 -0.1945 -0.0918
10104TIP3    H151803   3.738   1.466  10.801  0.9496 -0.4123 -1.5703
10104TIP3    H251804   3.699   1.370  10.691  0.8743 -2.1576 -0.0618
10105TIP3   OH251805   6.789   5.678   4.160  0.2451  0.5451 -0.4796
10105TIP3    H151806   6.882   5.656   4.160 -0.2176 -1.6355 -1.2255
10105TIP3    H251807   6.758   5.653   4.073 -1.2526  0.2724  0.0995
10106TIP3   OH251808   6.166   1.312  16.179 -0.3864  0.0692  0.1059
10106TIP3    H151809   6.185   1.359  16.260 -0.7055 -1.4473  1.1026
10106TIP3    H251810   6.086   1.353  16.145 -0.9206 -0.0534  1.1866
10107TIP3   OH251811   1.991   3.026  11.439  0.2329  0.5442 -0.7091
10107TIP3    H151812   1.985   3.107  11.388 -1.1463  0.7319 -0.3033
10107TIP3    H251813   2.005   2.957  11.374  0.4439  0.9968 -1.1461
10108TIP3   OH251814   5.506   4.129  13.823 -0.0482 -0.6271  0.1431
10108TIP3    H151815   5.497   4.169  13.909  1.8730  1.0816 -0.3752
10108TIP3    H251816   5.576   4.178  13.780 -1.4727 -0.8714 -2.7352
10109TIP3   OH251817   1.345   0.755   0.904  0.3474 -0.2849  0.4737
10109TIP3    H151818   1.324   0.666   0.933  0.9744 -0.2697  1.0144
10109TIP3    H251819   1.360   0.747   0.810  0.1553 -0.7088  0.4777
10110TIP3   OH251820   4.535   1.328   2.200  0.0948  0.4893  0.0111
10110TIP3    H151821   4.491   1.335   2.284  1.4286  1.0845  0.6992
10110TIP3    H251822   4.519   1.413   2.157 -0.1819  0.3671 -0.1274
10111TIP3   OH251823   4.328   0.013  11.258  0.2296 -0.1197 -0.5321
10111TIP3    H151824   4.378  -0.064  11.282 -0.9836 -1.0314 -0.8538
10111TIP3    H251825   4.387   0.064  11.202  0.8768 -1.0407 -0.6949
10112TIP3   OH251826   2.114   4.287   1.067 -0.4235  0.2799  0.2630
10112TIP3    H151827   2.084   4.197   1.080  0.1700  0.3747  2.8703
10112TIP3    H251828   2.034   4.339   1.069 -0.5606  0.0487  1.7590
10113TIP3   OH251829   6.122   4.426   2.420  0.3187 -0.1545  1.0419
10113TIP3    H151830   6.146   4.481   2.494  0.9431 -0.1360  0.8341
10113TIP3    H251831   6.175   4.347   2.430 -0.4267 -0.6353  1.2285
10114TIP3   OH251832   4.299   5.272  12.618  0.2612 -0.0574 -0.3624
10114TIP3    H151833   4.261   5.268  12.706  0.0570  1.5854 -0.3549
10114TIP3    H251834   4.384   5.227  12.627 -0.3428 -1.1077  0.3271
10115TIP3   OH251835   2.216   1.402  14.617 -0.4029 -0.1956  0.0869
10115TIP3    H151836   2.191   1.403  14.709  1.1255 -1.5050  0.5499
10115TIP3    H251837   2.306   1.369  14.616 -0.2868  0.0441 -1.8563
10116TIP3   OH251838   5.179   2.485  16.700  0.0029 -0.9839  0.3443
10116TIP3    H151839   5.241   2.456  16.633 -1.1867 -2.0060 -0.3596
10116TIP3    H251840   5.166   2.578  16.682 -0.4405 -1.2846 -0.9915
10117TIP3   OH251841   3.380   3.142  14.297  0.0802 -0.2675  0.2619
10117TIP3    H151842   3.418   3.169  14.213  0.1579 -1.1119  0.0203
10117TIP3    H251843   3.449   3.090  14.339 -0.8775 -2.0254 -0.2912
10118TIP3   OH251844   5.543   3.242  13.071 -0.1307  0.1346  0.0420
10118TIP3    H151845   5.491   3.309  13.026  0.8938  0.2497 -0.9874
10118TIP3    H251846   5.611   3.292  13.117  0.2307 -0.1538 -0.1790
10119TIP3   OH251847   2.939   2.058  15.589 -0.0114 -0.1225 -0.2281
10119TIP3    H151848   2.959   2.053  15.683 -0.7819 -3.3389 -0.1194
10119TIP3    H251849   2.881   2.133  15.581  2.3922  2.0973  1.3005
10120TIP3   OH251850   6.740   6.087  11.492 -0.3118  0.1138 -0.3385
10120TIP3    H151851   6.699   6.008  11.458 -2.0800  0.4303  0.9506
10120TIP3    H251852   6.685   6.159  11.459 -0.1802  0.6374  0.5558
10121TIP3   OH251853   6.777   2.336  14.770 -0.2275  0.0479 -0.4638
10121TIP3    H151854   6.789   2.264  14.708  1.8023 -0.0581  0.0075
10121TIP3    H251855   6.719   2.300  14.837  0.6329 -1.1082 -0.3144
10122TIP3   OH251856   3.206   4.552  16.537  0.6917  0.1426 -0.1067
10122TIP3    H151857   3.145   4.509  16.597  1.1369 -1.0436 -0.4729
10122TIP3    H251858   3.151   4.607  16.482 -0.0728 -0.9061 -0.4319
10123TIP3   OH251859   4.309   5.256   3.143 -0.0652  0.3935 -0.3836
10123TIP3    H151860   4.244   5.302   3.090 -0.3631 -1.0393 -1.3056
10123TIP3    H251861   4.259   5.218   3.215 -0.0489  0.3077 -0.4178
10124TIP3   OH251862   1.637   2.676  15.556  0.2341  0.1258 -0.2615
10124TIP3    H151863   1.691   2.661  15.478  0.0837 -0.7902 -0.1977
10124TIP3    H251864   1.617   2.589  15.588 -1.4337  0.4373 -0.3863
10125TIP3   OH251865   2.309   6.333  11.264 -0.1780 -0.1184  0.5442
10125TIP3    H151866   2.324   6.378  11.347  2.0886  1.1840 -0.4685
10125TIP3    H251867   2.394   6.293  11.244 -0.2016  0.8615 -1.8219
10126TIP3   OH251868   6.180   3.147   3.164  0.5592  0.2808  0.4797
10126TIP3    H151869   6.098   3.198   3.169  0.6057  0.5893 -1.3717
10126TIP3    H251870   6.247   3.212   3.144  1.0726 -0.1537  0.7767
10127TIP3   OH251871   4.568   4.944  13.340 -0.0016 -0.1274  0.1939
10127TIP3    H151872   4.541   4.885  13.269  2.2861 -0.3986 -0.5356
10127TIP3    H251873   4.582   5.028  13.297 -2.4215  0.8261  1.0891
10128TIP3   OH251874   2.171   5.168   4.059  0.3004  0.1325  0.4623
10128TIP3    H151875   2.244   5.136   4.112  0.0275 -0.6707  0.3668
10128TIP3    H251876   2.156   5.257   4.091  0.7814  0.0080  1.0540
10129TIP3   OH251877   3.356   3.442   3.677  0.6616 -0.1602 -0.4752
10129TIP3    H151878   3.321   3.528   3.653 -1.4272 -0.5745  0.8138
10129TIP3    H251879   3.390   3.406   3.595 -2.3207  0.1771 -2.0129
10130TIP3   OH251880   2.272   5.678  14.033 -0.0815  0.3338 -0.3949
10130TIP3    H151881   2.257   5.588  14.064 -0.3264  0.9882  1.5310
10130TIP3    H251882   2.340   5.668  13.966 -1.9300 -1.5480 -2.1659
10131TIP3   OH251883   0.757   0.027   2.441 -0.0954 -0.2726  0.1638
10131TIP3    H151884   0.685   0.019   2.377  1.0388 -0.9471 -1.0719
10131TIP3    H251885   0.712   0.038   2.525 -1.6891 -1.8100 -0.4035
10132TIP3   OH251886   5.696   1.561   3.765  0.2787  0.3900  0.1005
10132TIP3    H151887   5.718   1.570   3.857 -0.3905  1.2952  0.1755
10132TIP3    H251888   5.754   1.623   3.720 -1.3078  2.0247  0.2002
10133TIP3   OH251889   3.379   6.024  12.860  0.1430 -0.9496 -0.5531
10133TIP3    H151890   3.399   6.098  12.917  0.9354 -1.1013 -0.6133
10133TIP3    H251891   3.456   6.016  12.803 -0.3792 -1.1770 -1.2394
10134TIP3   OH251892   2.078   1.761   2.818  0.1184  0.0817  0.1116
10134TIP3    H151893   2.078   1.686   2.877  0.0257  1.4181  1.8872
10134TIP3    H251894   2.086   1.723   2.731 -0.8457 -2.0257  0.8807
10135TIP3   OH251895   2.213   0.808   3.013  0.1772 -0.3217 -0.0857
10135TIP3    H151896   2.207   0.903   3.020 -0.8740 -0.3803 -0.0163
10135TIP3    H251897   2.287   0.792   2.955  0.3001  0.5433 -0.1685
10136TIP3   OH251898   3.826   1.225   1.109 -0.1872 -0.0448 -0.1482
10136TIP3    H151899   3.886   1.162   1.068  1.3644  0.9929  0.4289
10136TIP3    H251900   3.739   1.187   1.096  0.6016 -1.7630 -0.7604
10137TIP3   OH251901   5.039   2.227  12.623  0.0959 -0.3817  0.1471
10137TIP3    H151902   5.052   2.136  12.647  3.6099 -0.3590 -1.0618
10137TIP3    H251903   5.040   2.227  12.527  1.9522  1.0219  0.1038
10138TIP3   OH251904   1.179   4.485  14.940 -0.4819  0.1345  0.6652
10138TIP3    H151905   1.095   4.450  14.911  0.2489 -0.1156 -1.2672
10138TIP3    H251906   1.204   4.547  14.872  0.6284  0.6623  1.5245
10139TIP3   OH251907   2.311   6.368   3.652  0.3934  0.8653 -0.1833
10139TIP3    H151908   2.234   6.423   3.637 -1.1279 -0.2795  2.5570
10139TIP3    H251909   2.342   6.394   3.739  1.7696 -0.2015 -0.3265
10140TIP3   OH251910   6.128   6.232  13.578  0.4126  0.2855  0.1596
10140TIP3    H151911   6.122   6.162  13.643 -1.6971 -0.1244 -0.4008
10140TIP3    H251912   6.040   6.271  13.577  0.7672  1.1279 -1.4952
10141TIP3   OH251913   2.272   3.717   0.636  0.1904  0.0191 -0.5622
10141TIP3    H151914   2.261   3.669   0.554  0.2532 -0.3567 -0.3534
10141TIP3    H251915   2.290   3.649   0.702  0.0948  0.3118 -0.2289
10142TIP3   OH251916   0.023   5.332   0.479  0.1147  0.0772 -0.1196
10142TIP3    H151917   0.032   5.278   0.557  1.0060 -0.6104 -0.6732
10142TIP3    H251918   0.050   5.419   0.507  1.2456 -0.3407  0.1508
10143TIP3   OH251919   2.630   1.131  15.242 -0.2243 -0.0139  0.2271
10143TIP3    H151920   2.670   1.067  15.301  1.2504  0.3230 -0.3654
10143TIP3    H251921   2.698   1.150  15.178 -0.4685  2.4552  0.6059
10144TIP3   OH251922   1.216   1.944   6.265 -0.8282 -0.7100  0.2859
10144TIP3    H151923   1.134   1.902   6.291 -0.2300 -0.9348  1.9332
10144TIP3    H251924   1.205   2.036   6.289 -1.0517 -0.4612 -0.6884
10145TIP3   OH251925   6.092   4.187   2.689 -0.3467  0.0450 -0.3349
10145TIP3    H151926   6.058   4.272   2.719 -1.6068 -0.4537 -0.3119
10145TIP3    H251927   6.116   4.202   2.597 -0.6828  0.3969 -0.3686
10146TIP3   OH251928   0.475   4.822  16.304 -0.3457 -0.4194 -0.3773
10146TIP3    H151929   0.543   4.889  16.299  0.1397 -0.9418 -1.3210
10146TIP3    H251930   0.460   4.809  16.397  0.7251 -0.1537 -0.1504
10147TIP3   OH251931   6.800   4.621  11.429  0.4610  0.7531 -0.0165
10147TIP3    H151932   6.862   4.677  11.383  1.4743 -0.0454  0.3364
10147TIP3    H251933   6.826   4.532  11.407 -0.6447  0.3957  0.0423
10148TIP3   OH251934   1.689   5.241   0.257 -1.0374  0.6049 -0.1035
10148TIP3    H151935   1.614   5.298   0.244 -2.5985 -1.5780 -1.6080
10148TIP3    H251936   1.657   5.173   0.316 -0.5562 -0.7544 -1.3341
10149TIP3   OH251937   3.657   0.746  15.787 -0.6926 -0.3690 -0.2826
10149TIP3    H151938   3.742   0.708  15.766 -1.4965 -1.2154 -2.2389
10149TIP3    H251939   3.665   0.838  15.763 -0.0900 -0.2633  0.3094
10150TIP3   OH251940   5.967   0.687  15.694 -0.5937 -0.2783  0.0184
10150TIP3    H151941   5.930   0.772  15.670 -0.9443  0.4742  2.8709
10150TIP3    H251942   5.967   0.637  15.613 -0.5817  2.3527 -1.7213
10151TIP3   OH251943   1.386   5.287  16.961 -0.5726 -0.0212  0.2953
10151TIP3    H151944   1.402   5.373  16.920 -2.1576 -0.7857 -2.1299
10151TIP3    H251945   1.472   5.244  16.959 -0.0835  0.9225  0.0847
10152TIP3   OH251946   6.543   6.171   1.894  0.3369  0.1125  0.0543
10152TIP3    H151947   6.468   6.184   1.951  2.3725 -0.1642  2.9922
10152TIP3    H251948   6.593   6.253   1.901  0.8990 -0.1142 -0.9888
10153TIP3   OH251949   3.466   2.852   1.542 -0.0880  0.1213  0.5125
10153TIP3    H151950   3.391   2.814   1.587 -0.5825  1.2481  0.6753
10153TIP3    H251951   3.520   2.777   1.516 -1.2535 -0.7006  0.4248
10154TIP3   OH251952   6.230   5.983  15.996  0.6200 -0.3044  0.5856
10154TIP3    H151953   6.309   5.930  16.003 -1.3015 -3.2994  1.4704
10154TIP3    H251954   6.203   5.998  16.087 -0.4940 -0.4159  0.2848
10155TIP3   OH251955   0.859   2.125   3.245  0.0448  0.2475 -0.1654
10155TIP3    H151956   0.868   2.126   3.340  0.5324  1.1153 -0.2144
10155TIP3    H251957   0.872   2.216   3.218 -1.1705  0.2046 -0.9732
10156TIP3   OH251958   6.296   4.157  11.951  0.3745  0.3468  0.0401
10156TIP3    H151959   6.302   4.078  12.006  0.1135 -0.1774 -0.6655
10156TIP3    H251960   6.227   4.209  11.992  0.0736 -0.1093  0.1309
10157TIP3   OH251961   3.494   2.153  14.102  0.0988  0.5636  0.0728
10157TIP3    H151962   3.540   2.206  14.166  0.8644 -0.7323  0.6414
10157TIP3    H251963   3.403   2.152  14.132  0.2447  0.8688  0.5329
10158TIP3   OH251964   4.790   1.600   2.704  0.2353  0.2261 -0.0155
10158TIP3    H151965   4.790   1.508   2.732 -1.6572 -0.5699 -2.3261
10158TIP3    H251966   4.702   1.631   2.723  0.5308  1.2555 -0.2762
10159TIP3   OH251967   0.202   3.403  14.299 -0.1081  0.6006 -0.4165
10159TIP3    H151968   0.148   3.329  14.274  0.8447 -0.2197 -0.1153
10159TIP3    H251969   0.205   3.400  14.395  0.4673  0.6201 -0.4264
10160TIP3   OH251970   0.418   1.512  12.252  0.2462 -0.2955  0.9832
10160TIP3    H151971   0.432   1.603  12.227 -1.1843 -0.4713 -0.6747
10160TIP3    H251972   0.489   1.493  12.314  1.8591  1.2923 -0.2586
10161TIP3   OH251973   6.274   0.319  13.294  0.0986 -0.4265 -0.4884
10161TIP3    H151974   6.359   0.328  13.250  0.1211  2.7539 -0.0567
10161TIP3    H251975   6.213   0.293  13.225  0.6467  1.7335 -1.8963
10162TIP3   OH251976   5.925   0.384   2.198 -0.8496 -0.0538  0.3021
10162TIP3    H151977   6.008   0.394   2.244 -0.5068  0.0914 -0.3300
10162TIP3    H251978   5.935   0.303   2.147 -1.3068 -0.3375  0.6512
10163TIP3   OH251979   3.709   2.862  13.852 -0.1627 -0.0058 -0.1794
10163TIP3    H151980   3.734   2.921  13.923 -1.2271  0.0785  0.1505
10163TIP3    H251981   3.613   2.862  13.854 -0.1893 -1.8757 -0.0782
10164TIP3   OH251982   5.304   1.074  14.645  0.0910 -0.2784 -0.7810
10164TIP3    H151983   5.364   1.001  14.628  0.1226 -0.6983  0.9981
10164TIP3    H251984   5.218   1.034  14.655 -0.0951  0.0641 -0.9690
10165TIP3   OH251985   6.524   1.657  11.027  1.0142  0.0819 -0.2486
10165TIP3    H151986   6.444   1.615  11.060  0.7048  0.0412 -1.0305
10165TIP3    H251987   6.516   1.748  11.055  0.6306  0.1064 -0.4215
10166TIP3   OH251988   2.920   2.370  16.522  0.4679 -0.1805 -0.3158
10166TIP3    H151989   2.978   2.324  16.462  1.0230 -0.8157  0.6826
10166TIP3    H251990   2.847   2.310  16.536  1.9732 -1.5972  2.2797
10167TIP3   OH251991   1.138   4.184   1.592 -0.5012  0.4337 -0.3498
10167TIP3    H151992   1.045   4.179   1.610 -0.4428 -0.2715 -0.2306
10167TIP3    H251993   1.148   4.264   1.540 -1.0542  0.9561  0.3239
10168TIP3   OH251994   2.651   4.851   1.131  0.2921 -0.7374  0.4199
10168TIP3    H151995   2.703   4.771   1.130  0.6857 -0.5288  1.6735
10168TIP3    H251996   2.678   4.895   1.212  1.5096  1.5991 -1.1623
10169TIP3   OH251997   5.429   0.640   4.080  0.3723  0.5668 -0.1478
10169TIP3    H151998   5.445   0.570   4.016  2.4665  3.2437 -2.8118
10169TIP3    H251999   5.502   0.632   4.142  0.1741 -0.0141  0.0257
10170TIP3   OH252000   5.744   2.745   3.958  1.1488 -0.7864 -0.1411
10170TIP3    H152001   5.661   2.790   3.973  1.9221  0.4216  0.7285
10170TIP3    H252002   5.719   2.657   3.931 -0.4313 -0.7930  1.1556
10171TIP3   OH252003   1.337   6.554  11.759 -0.4612  0.6137 -0.2424
10171TIP3    H152004   1.243   6.556  11.775 -0.6689  0.2817 -1.3426
10171TIP3    H252005   1.367   6.642  11.781 -0.6264  0.1193  2.2915
10172TIP3   OH252006   3.382   1.257   2.212  0.4713 -0.4646  0.1847
10172TIP3    H152007   3.388   1.171   2.171  0.1624  0.4994 -2.0100
10172TIP3    H252008   3.472   1.289   2.215  0.5431 -0.7006  0.6759
10173TIP3   OH252009   0.142   2.980   2.081 -0.8515  0.0499  0.3486
10173TIP3    H152010   0.182   3.066   2.091  1.4128 -0.7885 -0.9620
10173TIP3    H252011   0.158   2.937   2.165 -1.6225  0.7351  0.8598
10174TIP3   OH252012   5.857   4.038   3.702  0.3524 -0.7906  0.4489
10174TIP3    H152013   5.847   4.008   3.792 -1.4645  0.3903  0.6839
10174TIP3    H252014   5.805   4.118   3.697  0.8248 -0.5486 -1.5299
10175TIP3   OH252015   6.152   2.707  13.263 -0.0460 -0.0898 -0.3127
10175TIP3    H152016   6.090   2.756  13.208 -0.1550  0.4335  0.2621
10175TIP3    H252017   6.206   2.775  13.303 -0.3687 -0.4291  0.7054
10176TIP3   OH252018   5.861   4.171   1.885 -0.6062  0.7176  0.6071
10176TIP3    H152019   5.914   4.237   1.931 -0.4337  0.8897  0.1638
10176TIP3    H252020   5.873   4.191   1.792  0.9899 -1.1158  0.3449
10177TIP3   OH252021   0.678   6.081   5.005 -0.7688 -0.5795  0.2093
10177TIP3    H152022   0.714   6.052   4.922  0.7030 -2.1726  1.3314
10177TIP3    H252023   0.616   6.012   5.029  0.0066 -0.9709  1.1567
10178TIP3   OH252024   0.645   6.047  16.026 -0.3545  0.1213  0.4272
10178TIP3    H152025   0.576   5.996  15.984  2.4141 -1.8146 -2.2245
10178TIP3    H252026   0.648   6.128  15.976 -0.2809 -0.1061  0.0513
10179TIP3   OH252027   5.902   5.630   6.538  0.4756  0.1527  0.2398
10179TIP3    H152028   5.815   5.612   6.575 -0.8413  2.6270 -1.3975
10179TIP3    H252029   5.895   5.718   6.500  3.9121  0.6992  0.5633
10180TIP3   OH252030   3.518   4.300  15.606 -0.4348  0.0134 -0.2215
10180TIP3    H152031   3.428   4.331  15.610 -0.0431  1.1415  0.2706
10180TIP3    H252032   3.557   4.347  15.533 -0.2824 -0.6175 -0.5577
10181TIP3   OH252033   0.200   5.043  11.623  0.4240 -0.6375  0.2497
10181TIP3    H152034   0.275   5.056  11.565  2.1188 -2.3506  1.8986
10181TIP3    H252035   0.129   5.013  11.565  1.3588 -0.1502 -1.2025
10182TIP3   OH252036   0.381   1.573  11.142  0.6694  0.4354 -0.4676
10182TIP3    H152037   0.321   1.621  11.084 -0.6806 -1.0953 -0.4080
10182TIP3    H252038   0.327   1.551  11.218  2.2419  1.8430  1.1283
10183TIP3   OH252039   5.090   6.639   0.810 -0.4636  0.1688  0.1228
10183TIP3    H152040   5.175   6.669   0.779 -0.2150 -1.2978 -0.7169
10183TIP3    H252041   5.093   6.650   0.905 -0.1223  1.9980 -0.0646
10184TIP3   OH252042   4.691   5.982   3.158  0.1566  0.3398  0.1171
10184TIP3    H152043   4.628   5.961   3.227  0.0699 -0.1730 -0.1117
10184TIP3    H252044   4.658   5.936   3.080  0.3634  0.7465 -0.2149
10185TIP3   OH252045   1.330   5.987  12.686 -0.3551 -0.1719  0.2338
10185TIP3    H152046   1.301   5.897  12.666 -2.2088  0.3688  0.2656
10185TIP3    H252047   1.279   6.042  12.627  0.4829  0.9017  0.4854
10186TIP3   OH252048   1.179   5.829   0.919 -0.0673  0.6938  0.6451
10186TIP3    H152049   1.087   5.810   0.900  0.1890  1.6578 -1.9009
10186TIP3    H252050   1.227   5.754   0.885  0.3006  1.7758 -1.3403
10187TIP3   OH252051   5.116   5.907   0.449  0.0386  0.2180 -0.1816
10187TIP3    H152052   5.135   5.886   0.541  1.2866 -1.2669 -0.7409
10187TIP3    H252053   5.072   5.828   0.416  0.3907  0.3917 -1.0775
10188TIP3   OH252054   1.263   5.322  14.127  0.0240  0.0851 -0.0973
10188TIP3    H152055   1.346   5.368  14.131 -0.4755  0.9870  0.2393
10188TIP3    H252056   1.279   5.239  14.172  1.1769 -0.4830 -1.4967
10189TIP3   OH252057   5.210   6.157   0.422 -0.4970 -0.6122 -0.3644
10189TIP3    H152058   5.146   6.087   0.412 -1.3124  0.1841 -0.8796
10189TIP3    H252059   5.289   6.124   0.379 -0.4049 -1.7866  0.6791
10190TIP3   OH252060   1.316   2.740   1.732 -0.1250  0.0176  0.5542
10190TIP3    H152061   1.293   2.676   1.664 -2.2233 -0.6259  1.7584
10190TIP3    H252062   1.342   2.686   1.807  0.6500  0.6813  0.7781
10191TIP3   OH252063   0.700   3.120   4.768  0.4395 -0.2125  0.4378
10191TIP3    H152064   0.628   3.118   4.705  0.1476 -0.0327  0.7630
10191TIP3    H252065   0.716   3.213   4.783 -1.2625 -0.1963  2.6195
10192TIP3   OH252066   4.151   1.580  13.560  0.4395 -0.0425  0.0654
10192TIP3    H152067   4.109   1.646  13.504 -1.4153 -1.5198 -0.3963
10192TIP3    H252068   4.134   1.610  13.649  0.6749  0.7170 -0.1404
10193TIP3   OH252069   0.931   4.141  13.823  0.1642 -0.4387  0.0829
10193TIP3    H152070   1.000   4.075  13.823 -0.5656 -1.3637 -2.5809
10193TIP3    H252071   0.852   4.093  13.798 -0.8160  1.1093  0.0541
10194TIP3   OH252072   5.535   1.530  16.991 -0.2258 -0.2514 -0.0593
10194TIP3    H152073   5.462   1.484  16.948 -0.2855  0.1277 -0.3746
10194TIP3    H252074   5.497   1.614  17.016  0.1779  0.0478 -0.4577
10195TIP3   OH252075   0.985   4.828  11.385  1.1438 -0.4740 -0.6146
10195TIP3    H152076   0.902   4.831  11.432  0.9191  1.4066 -1.0571
10195TIP3    H252077   1.028   4.749  11.418  0.2232 -0.2022  1.4237
10196TIP3   OH252078   2.151   0.550  17.007 -0.4727  0.1537 -0.0865
10196TIP3    H152079   2.098   0.495  17.065 -0.7851  0.4165 -0.1216
10196TIP3    H252080   2.127   0.639  17.029  0.7393  0.3139  0.6238
10197TIP3   OH252081   3.708   4.701  10.766 -0.0015  0.4515  0.5745
10197TIP3    H152082   3.795   4.741  10.776 -1.1910  3.3430  0.4923
10197TIP3    H252083   3.682   4.723  10.676 -1.3512  0.8439  1.0397
10198TIP3   OH252084   6.585   6.564   0.899 -0.3305 -0.3068  0.2798
10198TIP3    H152085   6.559   6.652   0.870  0.4734 -0.1298  0.0585
10198TIP3    H252086   6.513   6.535   0.955 -0.6674  0.4430  0.2531
10199TIP3   OH252087   3.501   2.393   1.684  0.3633 -0.4314 -0.0812
10199TIP3    H152088   3.414   2.397   1.725  0.7332  0.8365  0.6497
10199TIP3    H252089   3.543   2.317   1.723 -0.2701 -0.8309 -0.1583
10200TIP3   OH252090   0.405   6.451  15.267  0.1419  0.1684 -0.0867
10200TIP3    H152091   0.366   6.399  15.197  2.0373  0.5310 -1.4934
10200TIP3    H252092   0.460   6.389  15.316  0.6966  0.3941 -0.4162
10201TIP3   OH252093   2.925   5.761  15.787 -0.4779  0.0020 -0.2814
10201TIP3    H152094   2.871   5.694  15.746  0.0704  0.3957 -1.6956
10201TIP3    H252095   3.012   5.750  15.749 -0.1074  0.8036  0.2886
10202TIP3   OH252096   1.444   4.610  12.861  0.1124  0.3717 -0.7029
10202TIP3    H152097   1.369   4.608  12.802 -0.4094 -0.2681 -0.0416
10202TIP3    H252098   1.406   4.628  12.947  0.8751  1.4981 -0.5718
10203TIP3   OH252099   1.745   4.983  16.773 -0.6340 -0.1800  0.8864
10203TIP3    H152100   1.773   4.914  16.832  2.6991 -1.1258 -1.5237
10203TIP3    H252101   1.720   4.938  16.692  1.2236  1.3098 -0.6088
10204TIP3   OH252102   3.941   5.333  10.315  0.5093 -0.0545  0.1005
10204TIP3    H152103   3.948   5.306  10.407  0.1275 -0.1181  0.1127
10204TIP3    H252104   4.021   5.300  10.274  0.1307 -1.0645  0.1562
10205TIP3   OH252105   4.050   4.677   4.785 -0.0300 -0.1765 -0.1918
10205TIP3    H152106   4.073   4.757   4.832  0.1321  0.0493 -0.6461
10205TIP3    H252107   4.134   4.633   4.772  0.1290  0.4685 -1.5318
10206TIP3   OH252108   5.308   4.735  16.385 -0.3732 -0.3721 -0.3398
10206TIP3    H152109   5.329   4.726  16.292  0.0795 -0.2264 -0.2568
10206TIP3    H252110   5.219   4.702  16.394 -0.2972 -0.6880 -0.7701
10207TIP3   OH252111   4.879   3.130   5.159  0.1870 -0.0239  0.4504
10207TIP3    H152112   4.967   3.153   5.131  0.5626  0.0272  1.6168
10207TIP3    H252113   4.864   3.183   5.237 -0.0762 -1.5086  1.4466
10208TIP3   OH252114   2.844   5.343  15.705 -0.4935 -0.9567  0.2971
10208TIP3    H152115   2.829   5.356  15.799 -2.0820  1.0346 -0.1421
10208TIP3    H252116   2.813   5.424  15.665  0.6537 -1.5358 -1.9247
10209TIP3   OH252117   4.509   3.551   3.242  0.0490 -0.3731 -0.3078
10209TIP3    H152118   4.595   3.520   3.271  0.9508 -0.0400 -2.4324
10209TIP3    H252119   4.467   3.583   3.321  1.4043 -1.6176  0.9821
10210TIP3   OH252120   6.566   0.905  15.499  0.3014 -0.4866 -0.3158
10210TIP3    H152121   6.622   0.850  15.554  2.1237  1.5996  0.0875
10210TIP3    H252122   6.604   0.898  15.411 -1.9662 -2.9776 -1.2201
10211TIP3   OH252123   2.989   2.547   5.083  0.4781  0.0472  0.3161
10211TIP3    H152124   2.984   2.512   4.994  1.4880  0.9659 -0.1333
10211TIP3    H252125   3.068   2.507   5.119  0.9808  0.9120  0.2085
10212TIP3   OH252126   5.203   5.163  12.034 -0.2748 -0.1026 -0.1605
10212TIP3    H152127   5.180   5.071  12.044  0.9158 -0.2907  1.1667
10212TIP3    H252128   5.183   5.202  12.119 -0.2114  0.7323 -0.5203
10213TIP3   OH252129   1.304   0.150  16.476  0.5418 -0.6853  0.4642
10213TIP3    H152130   1.367   0.157  16.548  0.4036  0.4457  0.4938
10213TIP3    H252131   1.238   0.217  16.496  1.3046  0.7326 -1.4865
10214TIP3   OH252132   1.651   1.521  15.083 -0.0074  0.1584 -0.6682
10214TIP3    H152133   1.559   1.496  15.082  0.0784 -0.2049 -0.1835
10214TIP3    H252134   1.655   1.602  15.034 -0.8300  1.0189  0.6349
10215TIP3   OH252135   4.038   0.472  10.631 -0.8157  0.3628 -0.3314
10215TIP3    H152136   3.952   0.432  10.617 -0.7341 -0.0657  0.3356
10215TIP3    H252137   4.078   0.419  10.700 -1.0473  2.0860  1.2148
10216TIP3   OH252138   5.817   1.784   1.176 -0.3546 -1.0781  0.3319
10216TIP3    H152139   5.764   1.849   1.222  0.1767 -0.9297  0.7504
10216TIP3    H252140   5.907   1.808   1.197  0.1309  0.7751 -3.1104
10217TIP3   OH252141   4.082   4.205  14.548  0.6528  0.2852  0.3857
10217TIP3    H152142   4.168   4.166  14.558  0.3632 -0.3361  0.4897
10217TIP3    H252143   4.041   4.194  14.634  0.4850  0.6152  0.3498
10218TIP3   OH252144   5.725   2.870   1.700  0.5348 -0.3898 -0.4797
10218TIP3    H152145   5.816   2.841   1.686  0.8655  0.0748  0.6038
10218TIP3    H252146   5.713   2.942   1.638  1.2213  0.1566  0.0041
10219TIP3   OH252147   0.058   5.711  14.609 -0.1461 -0.4472 -0.5414
10219TIP3    H152148   0.043   5.779  14.674  0.9005 -0.5264 -0.2094
10219TIP3    H252149  -0.013   5.724  14.545 -1.1291 -0.3082  0.5328
10220TIP3   OH252150   0.174   5.528  15.924  0.2852 -0.3342 -0.4612
10220TIP3    H152151   0.089   5.542  15.883  0.2598 -0.6281 -0.5157
10220TIP3    H252152   0.175   5.434  15.946 -0.2288  0.0636  1.4137
10221TIP3   OH252153   3.000   2.174  11.996 -0.0052 -0.5536  0.4029
10221TIP3    H152154   2.950   2.254  12.015 -0.4206 -0.5337 -0.7037
10221TIP3    H252155   2.935   2.104  12.002 -0.1942 -0.5252 -1.0525
10222TIP3   OH252156   2.084   6.810  17.175  0.9700  0.1487 -0.0923
10222TIP3    H152157   2.073   6.899  17.141 -2.3322 -0.2176 -0.2822
10222TIP3    H252158   2.054   6.814  17.266  0.8088 -0.7371 -0.0935
10223TIP3   OH252159   2.983   1.671   0.930  0.4406  0.2307 -0.7252
10223TIP3    H152160   2.915   1.725   0.890 -1.9220 -1.0612  1.2067
10223TIP3    H252161   2.968   1.583   0.895  0.9208 -0.1191 -0.0886
10224TIP3   OH252162   5.026   5.593  11.940  0.0233 -0.3216 -0.1488
10224TIP3    H152163   5.120   5.587  11.924 -0.0030 -1.5942  0.0257
10224TIP3    H252164   5.018   5.598  12.035 -0.0232  2.0390 -0.2276
10225TIP3   OH252165   3.966   4.476   1.700  0.2021 -0.0525 -0.3865
10225TIP3    H152166   3.911   4.547   1.669  2.1637  0.7256 -2.3034
10225TIP3    H252167   3.922   4.397   1.670 -0.9875  0.4066  0.0714
10226TIP3   OH252168   5.215   0.999  16.355  0.3813 -0.2018 -0.1347
10226TIP3    H152169   5.292   0.981  16.411  0.2345 -1.8499 -0.4091
10226TIP3    H252170   5.216   0.928  16.290 -1.0500  0.0858 -0.4916
10227TIP3   OH252171   0.975   5.963   6.006  0.3760  0.5252 -0.4651
10227TIP3    H152172   1.045   6.012   6.049  0.3551 -0.5550  0.8643
10227TIP3    H252173   0.897   5.982   6.058  0.5629 -1.6653  0.7604
10228TIP3   OH252174   2.421   5.364   4.144 -0.2437  0.2749  0.4078
10228TIP3    H152175   2.507   5.353   4.103  0.7379  1.3188  2.0614
10228TIP3    H252176   2.381   5.437   4.097 -0.2554 -0.2299 -0.3853
10229TIP3   OH252177   3.879   4.750   5.100  0.1781 -0.0722  0.1945
10229TIP3    H152178   3.868   4.705   5.016  0.1741 -0.4102  0.3716
10229TIP3    H252179   3.863   4.682   5.165 -0.3497  0.3180  0.4759
10230TIP3   OH252180   2.791   6.616  12.760  0.2452  0.1689  0.2484
10230TIP3    H152181   2.698   6.640  12.769  0.3716  0.0824  2.3996
10230TIP3    H252182   2.794   6.523  12.783  1.0399  0.5364  1.7151
10231TIP3   OH252183   1.031   5.025   5.354  0.2725  0.3807 -0.0062
10231TIP3    H152184   0.961   5.032   5.419 -1.0285 -1.3102 -1.1478
10231TIP3    H252185   1.075   4.943   5.375 -0.5149 -0.4733 -1.5491
10232TIP3   OH252186   2.971   4.495  16.720  1.1771  0.1093  0.2612
10232TIP3    H152187   2.914   4.432  16.764  0.9316 -0.4962 -0.8761
10232TIP3    H252188   2.951   4.579  16.762  1.0963 -0.4618  1.4095
10233TIP3   OH252189   6.783   4.402   2.911  0.0311  0.5940 -0.0943
10233TIP3    H152190   6.833   4.469   2.865 -0.7166  1.3094  0.1114
10233TIP3    H252191   6.719   4.451   2.963  2.0008 -0.0171  3.2595
10234TIP3   OH252192   2.357   2.760  15.093  0.1819 -0.2514 -0.8009
10234TIP3    H152193   2.349   2.831  15.156  3.9788  1.4146 -1.9059
10234TIP3    H252194   2.268   2.747  15.060 -0.9777  2.7220  0.7821
10235TIP3   OH252195   0.200   3.882  11.758  0.0116  0.0438 -0.4157
10235TIP3    H152196   0.226   3.967  11.794  0.1093 -1.1679  2.6943
10235TIP3    H252197   0.280   3.830  11.758 -0.4598 -0.7080 -0.1012
10236TIP3   OH252198   1.531   3.894  13.573 -0.1693  0.5249 -0.7049
10236TIP3    H152199   1.540   3.867  13.664 -0.2009  0.2225 -0.7913
10236TIP3    H252200   1.530   3.812  13.523  3.1498  0.6876 -1.3035
10237TIP3   OH252201   2.057   4.767  15.998 -0.2780  0.1360  0.1605
10237TIP3    H152202   2.115   4.828  15.953 -0.3836  0.0434 -0.1012
10237TIP3    H252203   2.060   4.687  15.946 -0.0115 -0.1379  0.5955
10238TIP3   OH252204   5.832   0.833  11.838  0.3411 -0.1502  0.4819
10238TIP3    H152205   5.825   0.884  11.919 -1.3112 -1.4157  1.2013
10238TIP3    H252206   5.826   0.899  11.768 -0.1744  0.7860  1.3767
10239TIP3   OH252207   3.671   3.613  15.178 -0.0795 -0.4489  0.5981
10239TIP3    H152208   3.722   3.570  15.109 -0.9330  0.1475 -0.4459
10239TIP3    H252209   3.584   3.575  15.171 -0.5334  0.5793  0.4281
10240TIP3   OH252210   6.787   4.490   0.604  0.2133 -0.0885  0.4476
10240TIP3    H152211   6.826   4.570   0.640 -0.0072 -0.2224  1.0033
10240TIP3    H252212   6.862   4.434   0.585  0.3095 -0.2921  1.3830
10241TIP3   OH252213   2.389   6.785   6.402  0.2927 -0.2003 -0.2923
10241TIP3    H152214   2.332   6.838   6.346 -1.8528 -2.2833 -0.2500
10241TIP3    H252215   2.342   6.778   6.485  1.9784  0.3173  0.7489
10242TIP3   OH252216   0.483   2.471   6.164 -0.0488 -0.0606  0.3184
10242TIP3    H152217   0.561   2.522   6.183  0.8423 -1.3283  0.1833
10242TIP3    H252218   0.416   2.506   6.223  1.0828 -0.0821  1.6406
10243TIP3   OH252219   0.820   4.480  11.580  0.3493 -0.4533 -0.2115
10243TIP3    H152220   0.896   4.534  11.602  0.7675 -0.6402 -1.1609
10243TIP3    H252221   0.843   4.439  11.497 -1.1164  0.1032 -0.9188
10244TIP3   OH252222   1.503   3.647  11.374 -0.0672  0.2581  0.0508
10244TIP3    H152223   1.414   3.673  11.352 -0.0420  2.1441  1.9486
10244TIP3    H252224   1.537   3.718  11.429  2.3698 -0.7340 -0.0265
10245TIP3   OH252225   2.134   0.189  15.181 -0.3341  0.7404 -0.4326
10245TIP3    H152226   2.226   0.161  15.185 -0.0932  1.3561 -1.3185
10245TIP3    H252227   2.086   0.117  15.222  0.4405 -0.1082 -0.9520
10246TIP3   OH252228   1.000   4.386  13.913 -0.0739 -0.0185  0.6256
10246TIP3    H152229   0.920   4.436  13.930 -0.8113 -0.9283 -0.0989
10246TIP3    H252230   0.970   4.300  13.885  1.1294 -0.0868 -0.5906
10247TIP3   OH252231   4.873   0.303  16.690 -0.2934  0.1106 -0.0625
10247TIP3    H152232   4.957   0.347  16.704 -1.0597  1.1852  1.3783
10247TIP3    H252233   4.817   0.370  16.651 -0.2658 -0.8636 -1.9128
10248TIP3   OH252234   0.184   4.143  12.680 -0.2769  0.5248 -0.2574
10248TIP3    H152235   0.096   4.114  12.655 -0.0932  1.7442 -2.6183
10248TIP3    H252236   0.170   4.200  12.756 -1.5675  0.7936 -0.6681
10249TIP3   OH252237   0.714   6.113  11.260  0.0547  0.1119  0.1788
10249TIP3    H152238   0.620   6.108  11.275  0.0466 -0.6837 -0.0690
10249TIP3    H252239   0.752   6.071  11.337  0.2355  0.9992  0.5776
10250TIP3   OH252240   4.971   3.554   2.188  0.1120 -0.3234 -0.3741
10250TIP3    H152241   4.876   3.562   2.197 -0.0146  1.6962 -2.3236
10250TIP3    H252242   5.005   3.561   2.277 -1.5510 -0.6087  0.3077
10251TIP3   OH252243   1.001   2.414  16.530 -0.0312 -0.2309  0.0492
10251TIP3    H152244   1.043   2.328  16.526  0.2355 -0.0712 -2.6913
10251TIP3    H252245   0.909   2.397  16.512 -0.8209 -0.2745  3.4213
10252TIP3   OH252246   1.370   2.618  13.463  0.0998  0.2347 -0.2265
10252TIP3    H152247   1.438   2.609  13.531  0.2529 -1.4574 -0.5625
10252TIP3    H252248   1.296   2.568  13.497  0.3424 -1.0361 -1.4865
10253TIP3   OH252249   6.464   5.394  11.629 -0.4517 -0.0248  0.2821
10253TIP3    H152250   6.431   5.320  11.579  0.1733  0.9047 -1.6142
10253TIP3    H252251   6.387   5.451  11.642 -0.4262  0.2320 -0.6037
10254TIP3   OH252252   6.119   0.249   0.943  0.3048  0.3591 -0.1349
10254TIP3    H152253   6.154   0.224   1.029  2.2354 -0.6933 -1.1721
10254TIP3    H252254   6.044   0.190   0.930  0.0837  0.4292  0.7603
10255TIP3   OH252255   0.438   3.175  15.323 -0.1749  0.3953  0.8092
10255TIP3    H152256   0.501   3.244  15.302 -0.4533  1.0869  2.1469
10255TIP3    H252257   0.492   3.099  15.346  0.2897  1.3269  3.1383
10256TIP3   OH252258   2.469   3.208  11.045  0.9682  0.6438 -0.2672
10256TIP3    H152259   2.469   3.254  10.961  0.9663  1.4662  0.1707
10256TIP3    H252260   2.442   3.119  11.024 -1.1956  1.3854 -0.8558
10257TIP3   OH252261   5.508   3.795   4.868  0.2367  0.1910 -0.3504
10257TIP3    H152262   5.543   3.882   4.851  0.6629  0.2461  0.7443
10257TIP3    H252263   5.582   3.736   4.854 -0.0273  0.0072 -1.0003
10258TIP3   OH252264   0.227   0.445   0.091  0.1094 -0.1029  0.0791
10258TIP3    H152265   0.177   0.377   0.045  0.3709  1.3264 -2.4865
10258TIP3    H252266   0.318   0.428   0.067  0.0882  1.6888 -1.4446
10259TIP3   OH252267   5.558   6.396   6.187  0.1698  0.4740 -0.1917
10259TIP3    H152268   5.488   6.380   6.124 -0.0131  0.1519  0.0864
10259TIP3    H252269   5.569   6.313   6.232  0.5643  0.5935 -0.0603
10260TIP3   OH252270   5.734   1.257   0.336 -0.2641 -0.0504  0.1712
10260TIP3    H152271   5.726   1.257   0.241  0.9312  0.3890  0.0531
10260TIP3    H252272   5.683   1.182   0.365 -2.7372  1.2474 -0.6023
10261TIP3   OH252273   3.188   3.086   4.870 -0.0523 -0.1698  0.5032
10261TIP3    H152274   3.160   3.091   4.962 -0.2342 -0.0699  0.4435
10261TIP3    H252275   3.215   2.995   4.858 -2.3783 -0.8621 -0.0006
10262TIP3   OH252276   1.988   3.128  11.971  0.1906  0.1008  0.0302
10262TIP3    H152277   1.990   3.073  11.893 -0.3231 -0.9606  0.7381
10262TIP3    H252278   2.041   3.204  11.948  2.4587 -1.4843 -0.4060
10263TIP3   OH252279   4.578   1.564   2.510 -0.7878 -0.2948 -0.6000
10263TIP3    H152280   4.552   1.611   2.431  0.1747 -1.1195 -1.4376
10263TIP3    H252281   4.629   1.490   2.478 -1.4220 -1.3523  0.7377
10264TIP3   OH252282   4.101   0.269  10.909 -0.0336  0.4711  0.1826
10264TIP3    H152283   4.092   0.173  10.909 -1.2528  0.5577 -0.9328
10264TIP3    H252284   4.012   0.302  10.916  0.3056  1.5229 -0.2846
10265TIP3   OH252285   1.365   3.177   0.523 -0.1028 -0.0057  0.3918
10265TIP3    H152286   1.410   3.252   0.484 -0.8509  0.9585  1.3238
10265TIP3    H252287   1.356   3.199   0.615 -0.7926 -1.0261  0.5865
10266TIP3   OH252288   2.292   1.482  17.225 -0.0760 -0.0910 -0.4977
10266TIP3    H152289   2.255   1.449  17.307  0.7216  0.1141 -0.0527
10266TIP3    H252290   2.383   1.455  17.227  0.3363  1.2188 -0.6069
10267TIP3   OH252291   2.211   6.341  12.232  0.0138  0.1768  0.7950
10267TIP3    H152292   2.189   6.408  12.167  1.5029  1.0809  1.1884
10267TIP3    H252293   2.128   6.295  12.247 -0.0320 -1.5267 -3.3066
10268TIP3   OH252294   0.915   0.169  15.672  0.0366 -0.2969  0.3738
10268TIP3    H152295   0.868   0.101  15.720 -0.8598 -0.7217 -1.0298
10268TIP3    H252296   0.857   0.190  15.598  2.3201 -1.3612 -1.8528
10269TIP3   OH252297   3.877   6.231   4.877 -0.0248 -0.1466  0.2245
10269TIP3    H152298   3.878   6.235   4.973  1.5547 -2.0361  0.3543
10269TIP3    H252299   3.952   6.285   4.851  0.5834 -1.0160  0.1587
10270TIP3   OH252300   3.515   2.278  16.385 -0.0927  0.5170  0.2073
10270TIP3    H152301   3.503   2.183  16.390 -0.1841  0.4696 -0.6465
10270TIP3    H252302   3.440   2.315  16.431  0.3040  0.1767  1.1478
10271TIP3   OH252303   0.302   2.676   2.146  0.1717 -1.1079 -0.1030
10271TIP3    H152304   0.283   2.750   2.088 -0.6018  0.7335  2.3117
10271TIP3    H252305   0.315   2.602   2.087  0.5706  0.8371 -2.6475
10272TIP3   OH252306   0.160   1.490  11.878  0.6532 -0.4720 -0.4524
10272TIP3    H152307   0.227   1.425  11.896 -1.6517 -2.2851  2.5622
10272TIP3    H252308   0.170   1.555  11.948  0.1244 -0.0462 -0.7643
10273TIP3   OH252309   3.233   5.910   6.201 -0.5638  0.9794 -1.1411
10273TIP3    H152310   3.179   5.978   6.161  0.5769  1.9416 -1.0971
10273TIP3    H252311   3.176   5.833   6.206 -1.8490  1.9077 -1.2572
10274TIP3   OH252312   2.274   1.202   3.842 -0.6863  0.0193 -0.4446
10274TIP3    H152313   2.210   1.167   3.904  0.3856 -1.3390 -0.0502
10274TIP3    H252314   2.331   1.257   3.895 -2.0040  1.9531 -0.9555
10275TIP3   OH252315   4.915   0.983  11.740 -0.0467  0.0887 -0.0358
10275TIP3    H152316   4.956   1.045  11.679  2.0797  0.0555  1.2656
10275TIP3    H252317   4.829   1.021  11.758  0.1030  1.1758 -1.4236
10276TIP3   OH252318   4.999   6.463  15.811 -0.0852 -0.0513 -0.3648
10276TIP3    H152319   5.053   6.538  15.786  0.7580  0.0552  1.5694
10276TIP3    H252320   4.920   6.472  15.758 -0.1135  2.3644 -0.0390
10277TIP3   OH252321   6.370   0.618   4.971 -0.2040  0.6009 -0.3522
10277TIP3    H152322   6.371   0.533   4.926  1.1754  0.7368 -0.6219
10277TIP3    H252323   6.288   0.618   5.020  0.0268 -1.1407  0.1079
10278TIP3   OH252324   6.573   5.298   5.101 -0.0719  0.6477 -0.2865
10278TIP3    H152325   6.502   5.331   5.046  0.9561 -0.4052 -2.3423
10278TIP3    H252326   6.593   5.370   5.161 -0.2347  2.4405 -2.2828
10279TIP3   OH252327   5.605   5.596  11.849  0.0010  0.1641 -0.0125
10279TIP3    H152328   5.682   5.648  11.828  0.4422 -0.6769 -0.5221
10279TIP3    H252329   5.587   5.547  11.769  0.6677 -1.8116  1.0055
10280TIP3   OH252330   1.255   2.941   4.147  0.0446 -1.0245  0.5311
10280TIP3    H152331   1.182   3.002   4.160 -0.1194 -0.9915 -0.4722
10280TIP3    H252332   1.330   2.985   4.189 -0.1142 -0.2189 -0.0106
10281TIP3   OH252333   3.920   3.796  12.806  0.0402 -0.8456  0.1869
10281TIP3    H152334   3.998   3.806  12.752  0.3084 -0.9609  0.5477
10281TIP3    H252335   3.933   3.712  12.850 -1.5667 -2.2440 -1.8271
10282TIP3   OH252336   4.419   3.377  11.864  0.4813  0.2641  0.1089
10282TIP3    H152337   4.439   3.404  11.774  0.7597  0.0763  0.1136
10282TIP3    H252338   4.431   3.282  11.864 -2.4729 -0.1990 -0.4317
10283TIP3   OH252339   0.497   3.751  13.273 -0.0198 -0.0519 -0.1833
10283TIP3    H152340   0.548   3.726  13.350  1.3121  2.3233 -0.1846
10283TIP3    H252341   0.553   3.726  13.199 -0.7194 -1.1390 -0.3665
10284TIP3   OH252342   5.711   5.980   3.231  0.2182 -0.5371 -0.1779
10284TIP3    H152343   5.704   5.970   3.326  0.1596 -0.4177 -0.1696
10284TIP3    H252344   5.659   6.057   3.211 -0.8013 -1.2775 -0.4649
10285TIP3   OH252345   3.185   5.989   0.033 -0.9657  0.2540 -0.2194
10285TIP3    H152346   3.231   5.937  -0.033 -3.8245 -0.6331 -1.6475
10285TIP3    H252347   3.174   6.075  -0.007  0.1621  0.7690  0.5057
10286TIP3   OH252348   2.025   0.321  16.363 -0.5743 -0.0078  0.3269
10286TIP3    H152349   2.085   0.317  16.289 -0.7669 -0.1415  0.1777
10286TIP3    H252350   2.057   0.254  16.424 -0.3292  0.2017  0.4331
10287TIP3   OH252351   4.304   5.672  14.641  0.5847 -0.3741 -0.0662
10287TIP3    H152352   4.328   5.732  14.570 -1.6374  0.6334 -0.0705
10287TIP3    H252353   4.341   5.711  14.719  0.3592  0.2606 -0.2685
10288TIP3   OH252354   2.810   2.710   3.018  0.1647  0.6391 -0.4031
10288TIP3    H152355   2.744   2.777   3.036  0.2235  0.2799  1.2366
10288TIP3    H252356   2.889   2.741   3.062  0.5504  0.0975 -0.6953
10289TIP3   OH252357   5.884   2.772   6.564  0.2493 -0.2352  0.0367
10289TIP3    H152358   5.848   2.757   6.476 -0.4927  0.4126  0.2292
10289TIP3    H252359   5.822   2.830   6.606  0.8053 -0.2341  0.8691
10290TIP3   OH252360   3.223   0.453   3.494 -0.0163 -0.3184 -0.2117
10290TIP3    H152361   3.239   0.364   3.460  1.6343 -1.0204  2.1404
10290TIP3    H252362   3.310   0.493   3.497 -0.5340  0.8002  0.2530
10291TIP3   OH252363   4.333   0.387  10.948  0.0973  0.3524  0.3550
10291TIP3    H152364   4.255   0.332  10.945 -0.5734  1.1217  2.0667
10291TIP3    H252365   4.304   0.471  10.914  0.6709  0.1575 -0.6535
10292TIP3   OH252366   1.377   2.881  13.064 -0.2937 -0.4170  0.5351
10292TIP3    H152367   1.341   2.852  13.148 -0.1605  1.4787  1.2927
10292TIP3    H252368   1.450   2.938  13.088  0.1353 -0.3203 -0.9019
10293TIP3   OH252369   5.070   4.663  12.642 -0.1292 -0.4266  0.5729
10293TIP3    H152370   5.000   4.709  12.595 -0.4800  0.1599  1.6361
10293TIP3    H252371   5.039   4.573  12.651 -1.0795 -0.0243  1.6142
10294TIP3   OH252372   5.520   3.989  16.384  0.4171 -0.0848  0.0926
10294TIP3    H152373   5.555   3.963  16.468  0.2994  1.4772  0.6509
10294TIP3    H252374   5.425   3.992  16.397  0.3682 -0.2457 -0.2135
10295TIP3   OH252375   3.611   5.464  11.145  0.1568  0.1541 -0.1942
10295TIP3    H152376   3.559   5.384  11.142 -0.2941  0.3924  0.6342
10295TIP3    H252377   3.683   5.449  11.085 -0.2094 -0.6666 -0.4429
10296TIP3   OH252378   4.404   5.244   0.558  0.2165  0.4668  1.1031
10296TIP3    H152379   4.354   5.164   0.573  1.3991  0.0420  3.2845
10296TIP3    H252380   4.493   5.213   0.537  0.1153  1.2153 -0.5549
10297TIP3   OH252381   3.911   6.391  14.477  0.3201 -0.1639  0.2293
10297TIP3    H152382   3.894   6.309  14.430 -0.4788  0.0283  0.1561
10297TIP3    H252383   3.939   6.363  14.564  0.2561 -0.5163  0.1410
10298TIP3   OH252384   1.559   5.897   1.765 -0.0936 -0.3232 -0.2116
10298TIP3    H152385   1.475   5.876   1.805 -1.0662  0.8529 -1.5324
10298TIP3    H252386   1.538   5.913   1.673  1.0924  2.6469 -0.0640
10299TIP3   OH252387   3.530   4.123  16.846  0.1052  0.2117 -0.0265
10299TIP3    H152388   3.561   4.068  16.773 -0.6517  1.5788 -1.4398
10299TIP3    H252389   3.462   4.178  16.807 -0.5018  0.8279  1.7986
10300TIP3   OH252390   5.227   4.013  16.415 -0.2609 -0.2025 -0.1437
10300TIP3    H152391   5.241   4.065  16.335 -1.7668  0.8376  0.2316
10300TIP3    H252392   5.140   4.038  16.445  0.4402 -0.2433  2.0924
10301TIP3   OH252393   0.515   0.709   2.870  0.0681 -0.0850 -0.3322
10301TIP3    H152394   0.538   0.749   2.786  0.9743 -1.1915 -0.6241
10301TIP3    H252395   0.421   0.725   2.879 -0.0986 -0.2124 -1.6969
10302TIP3   OH252396   0.819   0.016   5.466  0.0764 -0.0101 -0.3711
10302TIP3    H152397   0.772  -0.027   5.394  0.7950  1.7735 -1.9709
10302TIP3    H252398   0.900  -0.034   5.474 -0.0507 -0.2802 -0.7240
10303TIP3   OH252399   3.064   5.559   1.890  0.2585 -0.0591  0.0019
10303TIP3    H152400   3.043   5.594   1.976  0.1883 -0.0664 -0.0125
10303TIP3    H252401   3.137   5.613   1.859 -0.1284  0.3486 -0.1996
10304TIP3   OH252402   0.397   2.823  15.385 -0.3110  0.3450  0.6857
10304TIP3    H152403   0.303   2.840  15.377 -0.1576  0.3242 -2.2378
10304TIP3    H252404   0.418   2.848  15.475 -3.1438  0.0366  1.5401
10305TIP3   OH252405   4.424   6.073  11.120  0.2254  0.5304  0.1777
10305TIP3    H152406   4.449   6.159  11.086 -2.6962  1.7039  0.6916
10305TIP3    H252407   4.336   6.058  11.084  0.2429 -1.7873  0.9523
10306TIP3   OH252408   3.199   1.483   4.584 -0.2627 -0.1039 -0.8899
10306TIP3    H152409   3.165   1.397   4.559  1.2310 -1.3281  0.9626
10306TIP3    H252410   3.228   1.522   4.502 -2.8995 -0.4068 -2.0608
10307TIP3   OH252411   6.622   1.527   5.719  0.2337  0.8850  0.1700
10307TIP3    H152412   6.565   1.515   5.795  0.0046 -0.4255 -0.1760
10307TIP3    H252413   6.565   1.508   5.644  0.4498  2.1818 -0.3466
10308TIP3   OH252414   6.544   6.300   1.461 -0.4573  0.2583  0.0300
10308TIP3    H152415   6.635   6.320   1.439 -0.2020 -0.2918  0.5444
10308TIP3    H252416   6.523   6.359   1.533 -0.0213 -0.5887  0.8882
10309TIP3   OH252417   4.881   6.701   4.518 -0.4627  0.2067 -0.2118
10309TIP3    H152418   4.823   6.637   4.477 -1.1641  0.5067  0.3007
10309TIP3    H252419   4.871   6.780   4.466 -0.6514  0.3148 -0.0091
10310TIP3   OH252420   6.367   3.096   4.821  0.4415  0.3309 -0.1837
10310TIP3    H152421   6.290   3.134   4.864 -0.3052 -0.2795 -0.9569
10310TIP3    H252422   6.331   3.046   4.748  1.1797 -3.2516  1.6971
10311TIP3   OH252423   0.726   6.463   0.564  0.4225 -0.1158  0.1810
10311TIP3    H152424   0.642   6.430   0.532 -0.0691  0.8569  0.4215
10311TIP3    H252425   0.763   6.510   0.489  0.7525 -0.5340  0.0792
10312TIP3   OH252426   4.704   6.454   4.089 -0.4039  0.5507  0.1053
10312TIP3    H152427   4.688   6.510   4.165 -4.4095 -0.9888  0.6415
10312TIP3    H252428   4.765   6.387   4.121 -0.5278  1.0131  1.3762
10313TIP3   OH252429   3.868   4.484  15.209  0.0678 -0.0290  0.9612
10313TIP3    H152430   3.849   4.577  15.221  1.7460  0.7117 -1.2286
10313TIP3    H252431   3.921   4.460  15.285  1.0818  1.3130  0.7178
10314TIP3   OH252432   0.886   0.938  12.777  0.2475 -0.3299  0.0944
10314TIP3    H152433   0.873   1.018  12.726  1.1490 -0.6772 -0.7060
10314TIP3    H252434   0.878   0.867  12.714 -1.1304 -0.9358  0.9024
10315TIP3   OH252435   1.848   5.872  11.885 -0.0684  0.6329 -0.3496
10315TIP3    H152436   1.882   5.951  11.845  1.2421  1.1922  1.7253
10315TIP3    H252437   1.816   5.900  11.971 -1.1535 -0.7925 -0.2461
10316TIP3   OH252438   2.140   0.111   4.534 -0.0044  0.2031  0.3797
10316TIP3    H152439   2.071   0.123   4.599  1.3946  1.6675  1.6828
10316TIP3    H252440   2.185   0.030   4.560 -1.0254 -0.6077 -0.3173
10317TIP3   OH252441   4.408   1.958   2.057  0.0170 -0.6185  0.0826
10317TIP3    H152442   4.396   1.896   1.985 -0.6690 -1.0348  0.5413
10317TIP3    H252443   4.343   2.027   2.041  0.8920  0.0925 -0.5202
10318TIP3   OH252444   5.516   3.578   0.121  0.2700  0.3640 -0.0403
10318TIP3    H152445   5.558   3.517   0.059  1.2595  1.2564 -0.2722
10318TIP3    H252446   5.582   3.592   0.189 -0.9849 -0.9904  1.5283
10319TIP3   OH252447   1.172   1.023  13.980 -0.2942 -0.5913 -0.2865
10319TIP3    H152448   1.261   1.006  13.950  0.0728  1.5659 -0.6352
10319TIP3    H252449   1.124   1.047  13.901 -0.7809 -0.3021  0.0885
10320TIP3   OH252450   3.826   1.202  14.048 -0.4751  0.3346 -0.3699
10320TIP3    H152451   3.915   1.169  14.036 -0.5164 -0.0239  0.2303
10320TIP3    H252452   3.836   1.274  14.112 -0.4893  0.9729 -1.0695
10321TIP3   OH252453   0.769   6.432   5.330 -0.1039  0.4952 -0.2665
10321TIP3    H152454   0.689   6.416   5.279  0.6549  0.3241 -1.4500
10321TIP3    H252455   0.802   6.345   5.351  0.1106  0.5599 -0.3324
10322TIP3   OH252456   1.776   3.837   1.533 -0.1034 -0.0524 -0.3245
10322TIP3    H152457   1.822   3.861   1.613 -0.9889 -2.3693  0.9613
10322TIP3    H252458   1.683   3.850   1.553 -0.4410 -1.9955 -0.4130
10323TIP3   OH252459   3.084   3.496  15.906  0.4357 -0.1276  0.1246
10323TIP3    H152460   3.092   3.481  16.001 -1.1956  2.6238  0.7956
10323TIP3    H252461   3.136   3.575  15.890 -1.3504  0.9149 -0.7724
10324TIP3   OH252462   5.266   5.390   3.808  0.2577 -0.5719 -0.1242
10324TIP3    H152463   5.275   5.446   3.730  3.7610  0.9203  1.1370
10324TIP3    H252464   5.324   5.316   3.791  1.5534  0.0799  1.2016
10325TIP3   OH252465   5.136   1.786   5.477 -0.0799  0.0684 -0.3403
10325TIP3    H152466   5.116   1.747   5.562 -2.5915 -0.4926 -1.0902
10325TIP3    H252467   5.230   1.803   5.480 -0.3589  1.9591  3.2960
10326TIP3   OH252468   4.268   0.876   5.618  0.3962  0.1427 -0.4344
10326TIP3    H152469   4.210   0.936   5.665  1.7936  0.3583  1.0828
10326TIP3    H252470   4.255   0.792   5.663  1.2884  0.2102 -0.0403
10327TIP3   OH252471   1.213   6.233   0.218 -0.2154 -0.3897  0.4459
10327TIP3    H152472   1.275   6.301   0.196 -0.7965  0.0785  0.2420
10327TIP3    H252473   1.232   6.162   0.157 -0.4608  0.0938 -0.1935
10328TIP3   OH252474   2.236   3.674   2.217  0.2799 -0.5415  0.1119
10328TIP3    H152475   2.144   3.658   2.238  0.5518 -1.7979  0.3913
10328TIP3    H252476   2.248   3.640   2.129  0.3766  0.0556 -0.1139
10329TIP3   OH252477   1.390   1.715  15.928 -0.4716 -0.7216 -0.5864
10329TIP3    H152478   1.335   1.794  15.927 -0.1917 -0.4721  0.8629
10329TIP3    H252479   1.330   1.644  15.903 -0.9244 -0.1681 -1.1049
10330TIP3   OH252480   5.491   6.646   4.858  0.0207 -0.0845  0.0166
10330TIP3    H152481   5.577   6.685   4.869  1.0435 -1.8825 -1.0744
10330TIP3    H252482   5.456   6.685   4.779 -0.3835  0.9596  0.6893
10331TIP3   OH252483   1.854   2.986  13.802 -0.2521  0.0434  0.4229
10331TIP3    H152484   1.767   3.005  13.765 -0.1934  1.7056  1.0178
10331TIP3    H252485   1.847   3.013  13.894  1.2469  1.5023  0.1685
10332TIP3   OH252486   3.768   3.093  14.804  0.0403  0.0745  0.2263
10332TIP3    H152487   3.797   3.068  14.892  0.4327  0.4148  0.1969
10332TIP3    H252488   3.847   3.130  14.763 -0.5160  1.3417  0.2594
10333TIP3   OH252489   6.313   4.207  12.567 -0.1625  0.1921  0.1560
10333TIP3    H152490   6.364   4.129  12.587  1.8745  1.0421 -1.3046
10333TIP3    H252491   6.246   4.177  12.506  0.2698 -0.5268  0.0169
10334TIP3   OH252492   4.432   5.633   5.363 -0.1117 -0.4720  0.3500
10334TIP3    H152493   4.496   5.573   5.400  0.8727  0.0764 -0.4027
10334TIP3    H252494   4.460   5.646   5.272  0.7864  2.4513  0.9272
10335TIP3   OH252495   6.031   2.202   6.769  0.1401 -0.4410 -0.6719
10335TIP3    H152496   6.013   2.292   6.796  1.9997 -0.0678 -0.5186
10335TIP3    H252497   6.123   2.203   6.743  0.2085 -2.3085 -0.6482
10336TIP3   OH252498   3.671   1.942  15.559 -0.4150  0.4037  0.0800
10336TIP3    H152499   3.690   2.018  15.614  0.2601  0.8265 -0.7157
10336TIP3    H252500   3.753   1.892  15.558 -0.5683  0.1555 -0.1570
10337TIP3   OH252501   0.745   4.651  14.231 -0.2669  0.4190  0.7230
10337TIP3    H152502   0.711   4.701  14.157  1.4487 -0.2290 -0.5861
10337TIP3    H252503   0.833   4.687  14.246  0.0244 -0.5157  1.3855
10338TIP3   OH252504   4.793   5.948   5.961 -0.0595  0.0748 -0.3075
10338TIP3    H152505   4.822   6.018   6.020 -0.9568  0.1052  0.1005
10338TIP3    H252506   4.749   5.995   5.889 -1.1262 -0.0816  0.2257
10339TIP3   OH252507   5.949   0.450   0.565  0.1473  0.4027  0.1785
10339TIP3    H152508   5.977   0.538   0.538  0.1034  0.5958  0.7459
10339TIP3    H252509   5.948   0.399   0.484  2.1203  0.3944  0.1129
10340TIP3   OH252510   3.705   2.080  16.884 -0.5424 -0.0203 -0.3623
10340TIP3    H152511   3.614   2.051  16.874 -1.0652  0.2593  2.8181
10340TIP3    H252512   3.698   2.167  16.923  1.0581 -0.5811  1.3081
10341TIP3   OH252513   0.638   6.205   2.190 -0.0311  0.3466 -0.1592
10341TIP3    H152514   0.726   6.182   2.218 -0.0821 -1.0242 -1.0367
10341TIP3    H252515   0.650   6.279   2.130  0.2410  1.9564  1.7738
10342TIP3   OH252516   4.725   0.463   4.306 -0.1746  0.1287  0.1603
10342TIP3    H152517   4.700   0.555   4.296 -4.1656 -0.5872  1.8783
10342TIP3    H252518   4.798   0.465   4.368  0.6042  2.1462 -0.7206
10343TIP3   OH252519   4.020   4.112   3.303 -0.1568  0.2366  0.2995
10343TIP3    H152520   4.032   4.177   3.235 -2.2903  0.7576  0.3365
10343TIP3    H252521   3.940   4.065   3.278 -1.0059  0.4266  2.3621
10344TIP3   OH252522   0.122   5.759  17.121  0.2562  0.5053  0.0214
10344TIP3    H152523   0.131   5.675  17.076  1.6475  1.0799 -0.8659
10344TIP3    H252524   0.175   5.819  17.069 -0.5493  1.8999  0.7471
10345TIP3   OH252525   3.200   4.151  13.813  0.1791 -0.0538  0.1770
10345TIP3    H152526   3.267   4.209  13.777  2.0042 -2.4176 -0.4548
10345TIP3    H252527   3.229   4.132  13.902 -0.3608 -0.1036  0.3511
10346TIP3   OH252528   0.627   6.236   1.659  0.8050 -0.1381 -0.0356
10346TIP3    H152529   0.670   6.151   1.662 -0.8610 -0.9940  0.9350
10346TIP3    H252530   0.639   6.273   1.746  0.9791  0.3599 -0.2629
10347TIP3   OH252531   1.595   5.123  14.405 -0.0795 -0.1986 -0.0511
10347TIP3    H152532   1.612   5.067  14.481 -1.7411 -0.7368 -0.0460
10347TIP3    H252533   1.642   5.081  14.333  1.4607  0.2808  0.6180
10348TIP3   OH252534   6.541   1.737  14.092 -0.0465  0.0071  0.6697
10348TIP3    H152535   6.603   1.685  14.143  2.3064  2.0535  0.1052
10348TIP3    H252536   6.542   1.698  14.005 -0.2192 -0.4677  0.8761
10349TIP3   OH252537   3.995   5.349   5.410 -0.0829 -0.2447 -0.4223
10349TIP3    H152538   3.931   5.402   5.458  1.1460  0.3909  0.5794
10349TIP3    H252539   3.970   5.259   5.430 -1.2639 -0.0311 -0.8717
10350TIP3   OH252540   4.073   1.305   0.878 -0.4182 -0.0127  0.2010
10350TIP3    H152541   4.081   1.323   0.784  0.4941 -0.6623  0.1363
10350TIP3    H252542   4.067   1.391   0.918 -2.1360  0.2521 -0.5433
10351TIP3   OH252543   1.052   6.306  17.083  0.1992 -0.7170  0.1211
10351TIP3    H152544   1.102   6.227  17.103  0.0289 -0.9566 -0.3653
10351TIP3    H252545   0.981   6.306  17.147  0.3023 -0.8639  0.2377
10352TIP3   OH252546   1.075   5.417  16.241 -0.2609  0.8090  0.4403
10352TIP3    H152547   1.052   5.390  16.329  1.8455 -2.5021  0.1724
10352TIP3    H252548   1.017   5.367  16.184  0.6295  0.3173 -0.0579
10353TIP3   OH252549   4.386   5.779  12.212  0.0358 -0.6326  0.4912
10353TIP3    H152550   4.326   5.706  12.193 -1.6478  0.7045  0.3694
10353TIP3    H252551   4.453   5.773  12.144 -1.1506 -0.9615 -0.6999
10354TIP3   OH252552   1.479   2.112  11.841  0.0742  0.3279 -0.3574
10354TIP3    H152553   1.571   2.094  11.823 -0.3763 -2.3673 -0.4210
10354TIP3    H252554   1.445   2.148  11.759  0.7579 -0.0389 -0.8136
10355TIP3   OH252555   5.330   2.551  15.296  0.4233 -1.0021  0.1234
10355TIP3    H152556   5.366   2.606  15.226 -0.1457 -0.8818 -0.0828
10355TIP3    H252557   5.278   2.611  15.349  0.3131 -1.2212  0.2654
10356TIP3   OH252558   2.296   0.389  13.968 -0.1210  0.2322 -0.7389
10356TIP3    H152559   2.365   0.410  14.030 -0.3790  0.8858 -0.6698
10356TIP3    H252560   2.340   0.338  13.900  0.6739  1.5597 -1.2579
10357TIP3   OH252561   5.494   3.942   1.805  0.3448 -0.5170  0.2032
10357TIP3    H152562   5.416   3.897   1.775 -0.0916 -0.0372  0.5848
10357TIP3    H252563   5.566   3.903   1.756 -0.2524 -0.2753 -0.8972
10358TIP3   OH252564   0.683   2.408  15.107  0.1954 -0.1666 -0.2992
10358TIP3    H152565   0.624   2.463  15.159  1.9139 -0.2202  1.8354
10358TIP3    H252566   0.660   2.428  15.016 -1.5473  1.4817  0.4289
10359TIP3   OH252567   4.476   2.189   5.044  0.1311 -0.3412 -0.3314
10359TIP3    H152568   4.410   2.120   5.041  1.5058 -1.8136  1.2767
10359TIP3    H252569   4.542   2.157   5.106  2.0272  1.3612 -1.3547
10360TIP3   OH252570   2.232   1.227  13.539 -0.1647  0.0432 -0.1734
10360TIP3    H152571   2.288   1.207  13.614  1.6398  0.0632 -1.4468
10360TIP3    H252572   2.192   1.143  13.517 -0.8360  0.0651  0.8741
10361TIP3   OH252573   2.375   5.786  11.367 -0.0903 -0.1843 -0.6583
10361TIP3    H152574   2.439   5.843  11.410 -0.4654  1.0671 -1.7098
10361TIP3    H252575   2.405   5.782  11.276 -1.2764  0.1131 -1.0715
10362TIP3   OH252576   6.774   0.165   1.219  0.0345 -0.5844 -0.3284
10362TIP3    H152577   6.779   0.076   1.252  0.7308 -0.7063 -0.7402
10362TIP3    H252578   6.856   0.206   1.248  0.0895 -0.3224 -0.8407
10363TIP3   OH252579   5.060   0.733  16.314 -0.4116 -0.3406  0.3313
10363TIP3    H152580   4.993   0.711  16.249  0.4369  0.5433 -0.8944
10363TIP3    H252581   5.020   0.803  16.365 -0.4331  0.2130 -0.4198
10364TIP3   OH252582   3.728   6.303   3.088  0.9801 -0.1823 -0.3340
10364TIP3    H152583   3.691   6.283   3.002 -1.5715  0.8557  0.4106
10364TIP3    H252584   3.790   6.233   3.105 -0.0174 -1.5712 -2.1226
10365TIP3   OH252585   3.345   3.721   4.388  0.2348  0.3692 -1.1023
10365TIP3    H152586   3.415   3.785   4.379  1.5471 -1.2161 -3.0638
10365TIP3    H252587   3.270   3.761   4.344 -0.0481  1.9067  0.6606
10366TIP3   OH252588   1.687   2.936  16.921  0.3708 -0.5889 -0.2019
10366TIP3    H152589   1.658   2.994  16.850 -0.0244  1.4152  1.5141
10366TIP3    H252590   1.782   2.942  16.921  0.4161 -1.1397 -0.9621
10367TIP3   OH252591   5.609   0.772   2.611 -0.0705 -0.3198 -0.4485
10367TIP3    H152592   5.699   0.749   2.633 -1.1117 -2.7743  1.8354
10367TIP3    H252593   5.576   0.819   2.688 -1.3232 -1.3112 -0.3492
10368TIP3   OH252594   0.574   5.204  16.902  0.3442 -0.0735  0.1410
10368TIP3    H152595   0.545   5.151  16.827 -2.2313  0.2849  0.7877
10368TIP3    H252596   0.556   5.294  16.876 -0.6132  0.0501  1.1648
10369TIP3   OH252597   3.478   5.367   0.010 -0.8618  0.2981  0.3294
10369TIP3    H152598   3.542   5.405  -0.051  1.1405  0.7399  2.5572
10369TIP3    H252599   3.412   5.436   0.022 -0.1694  0.9905  0.2263
10370TIP3   OH252600   2.919   3.646  16.430  0.1777 -0.1890  0.4505
10370TIP3    H152601   2.860   3.708  16.472  0.8322  1.4373 -0.9139
10370TIP3    H252602   2.937   3.580  16.497  0.6368  1.8811  2.4754
10371TIP3   OH252603   1.165   1.790   5.469 -0.2081 -0.1541 -0.3834
10371TIP3    H152604   1.129   1.707   5.501 -0.6715  0.4644  0.7822
10371TIP3    H252605   1.259   1.773   5.459 -0.6944 -1.7008 -3.1750
10372TIP3   OH252606   3.377   6.746  13.541 -0.1208 -0.0373  0.5505
10372TIP3    H152607   3.296   6.788  13.569 -0.6002 -1.1496  0.8732
10372TIP3    H252608   3.381   6.664  13.590  1.9402  0.6432  1.6320
10373TIP3   OH252609   3.912   4.006  14.188  0.0486 -0.4448 -0.1602
10373TIP3    H152610   3.831   4.051  14.211  0.7494  0.0886  1.3701
10373TIP3    H252611   3.970   4.074  14.154  0.7620 -0.3271  1.2270
10374TIP3   OH252612   4.341   3.538  13.552  0.1134 -0.4429 -0.0243
10374TIP3    H152613   4.321   3.461  13.605  0.4310 -0.0513  0.6788
10374TIP3    H252614   4.281   3.532  13.477  1.3931 -2.3901 -1.0091
10375TIP3   OH252615   5.861   5.171  14.070 -0.9225 -0.1384 -0.2630
10375TIP3    H152616   5.778   5.127  14.092  0.0227 -1.2360  1.3351
10375TIP3    H252617   5.928   5.106  14.090  0.3237  0.5032 -2.1424
10376TIP3   OH252618   1.435   5.589   3.130 -0.1484  0.1205  1.0651
10376TIP3    H152619   1.494   5.658   3.098 -0.2858  0.2918  1.1813
10376TIP3    H252620   1.363   5.637   3.170  0.3011 -0.0964  2.1606
10377TIP3   OH252621   3.872   0.230   2.010  0.1874 -0.5395 -1.0047
10377TIP3    H152622   3.861   0.235   2.105  1.7372  0.8780 -0.8524
10377TIP3    H252623   3.865   0.137   1.990  1.3909 -1.0543  0.7336
10378TIP3   OH252624   6.101   3.656  11.998 -0.4560 -0.9332 -0.2353
10378TIP3    H152625   6.191   3.628  11.983 -0.7743 -1.9611 -0.2991
10378TIP3    H252626   6.075   3.698  11.916  0.3573  0.5019  0.2124
10379TIP3   OH252627   0.620   3.175  11.623  0.2510 -0.3248  0.2258
10379TIP3    H152628   0.647   3.088  11.594  0.4882 -0.4434  0.7794
10379TIP3    H252629   0.553   3.202  11.560  0.7228 -0.5858 -0.3920
10380TIP3   OH252630   1.212   6.037  11.533  0.6100  0.6457  0.4076
10380TIP3    H152631   1.273   5.968  11.559  0.1402 -0.3956 -1.0658
10380TIP3    H252632   1.181   6.009  11.446  0.6234  2.8709 -0.3623
10381TIP3   OH252633   1.919   3.667   1.379 -0.4112 -0.8831 -0.1725
10381TIP3    H152634   1.855   3.713   1.432 -0.5913 -0.6656 -0.5695
10381TIP3    H252635   1.892   3.685   1.288 -0.5884 -1.8934 -0.3384
10382TIP3   OH252636   1.627   2.248   5.946 -0.2634  0.0083  0.6195
10382TIP3    H152637   1.549   2.192   5.948 -0.1463 -0.2571 -0.9310
10382TIP3    H252638   1.691   2.198   5.895  1.4552 -0.3825  2.9722
10383TIP3   OH252639   3.428   3.423  11.678  0.2858  0.4306 -0.0418
10383TIP3    H152640   3.480   3.437  11.599 -0.3434  0.5724 -0.4345
10383TIP3    H252641   3.371   3.350  11.656 -0.7176  1.2270 -0.1350
10384TIP3   OH252642   2.542   1.005  16.394  0.4017 -0.2206  0.8234
10384TIP3    H152643   2.615   0.950  16.423  0.9520  1.0337  1.9045
10384TIP3    H252644   2.578   1.093  16.392  0.4591 -0.0875 -3.8209
10385TIP3   OH252645   0.609   5.677   6.693  0.4313  0.4297 -0.8165
10385TIP3    H152646   0.692   5.705   6.654  1.0897 -0.8624 -0.3844
10385TIP3    H252647   0.578   5.607   6.636 -0.4034  0.9251 -0.9963
10386TIP3   OH252648   1.936   3.030   3.127 -0.3354 -0.0723  0.8355
10386TIP3    H152649   1.932   2.938   3.151  0.0311 -0.2050  0.4067
10386TIP3    H252650   1.978   3.073   3.201  2.7588 -0.7973 -0.3541
10387TIP3   OH252651   2.643   5.895   0.196  0.0260  0.5538  0.2198
10387TIP3    H152652   2.557   5.935   0.210 -0.0192  0.9843 -1.1874
10387TIP3    H252653   2.664   5.855   0.280 -1.6789  0.1957  0.5170
10388TIP3   OH252654   3.051   1.559  13.689 -0.5635 -0.2909 -0.0948
10388TIP3    H152655   3.058   1.521  13.777  0.1615  2.7772  1.2930
10388TIP3    H252656   3.110   1.506  13.636 -0.2259 -1.5942  1.4851
10389TIP3   OH252657   3.491   5.349   1.960 -0.3578  0.5309 -0.0671
10389TIP3    H152658   3.448   5.264   1.945 -0.4440  0.1252  2.2006
10389TIP3    H252659   3.576   5.326   1.998 -0.1886  1.4588  0.1291
10390TIP3   OH252660   4.172   4.305  16.381  0.0710 -0.1818  0.1335
10390TIP3    H152661   4.162   4.214  16.410  0.4797  0.0242  0.9505
10390TIP3    H252662   4.189   4.298  16.287 -0.5983 -0.9064  0.0627
10391TIP3   OH252663   3.590   5.819  14.605  0.2985  0.3597  0.0113
10391TIP3    H152664   3.612   5.902  14.648  0.0552  0.3737  0.1110
10391TIP3    H252665   3.495   5.810  14.617  0.3258  0.0615  0.0102
10392TIP3   OH252666   6.183   5.384  13.770  0.1509 -0.3814 -0.2583
10392TIP3    H152667   6.146   5.338  13.844 -0.2194  0.5894  0.1795
10392TIP3    H252668   6.109   5.429  13.729  0.3510 -0.8854 -1.2088
10393TIP3   OH252669   1.775   2.850   4.677  0.0174 -0.1752  0.0842
10393TIP3    H152670   1.682   2.830   4.684 -0.6283  1.5723 -2.1474
10393TIP3    H252671   1.784   2.938   4.715  0.5573  0.0658 -0.5733
10394TIP3   OH252672   4.452   2.499   5.930  0.3523 -0.7368 -0.1686
10394TIP3    H152673   4.415   2.573   5.978 -1.4732 -1.6804 -0.0679
10394TIP3    H252674   4.385   2.431   5.934  1.9345 -2.3793 -0.3505
10395TIP3   OH252675   6.240   4.679   1.983 -0.4324 -0.0382  0.2178
10395TIP3    H152676   6.262   4.656   1.892 -0.8144  0.8332 -0.1079
10395TIP3    H252677   6.303   4.630   2.036 -0.5315 -0.9573 -0.4924
10396TIP3   OH252678   5.379   4.423  12.158 -0.2393  0.2542 -0.2463
10396TIP3    H152679   5.314   4.478  12.202 -1.2475 -0.3130 -0.9891
10396TIP3    H252680   5.357   4.429  12.065  0.4266 -0.3951 -0.4571
10397TIP3   OH252681   1.966   3.713   5.574  0.2849  0.3280  0.9601
10397TIP3    H152682   1.946   3.646   5.640  1.0074 -0.7356  0.1469
10397TIP3    H252683   2.024   3.774   5.620 -0.5494  0.5238  1.7791
10398TIP3   OH252684   2.236   4.165   5.715 -0.1669  0.0515  0.2476
10398TIP3    H152685   2.301   4.158   5.645  0.5610  5.0549  0.0163
10398TIP3    H252686   2.279   4.217   5.782 -2.1433 -1.3402  2.7576
10399TIP3   OH252687   6.420   3.725  13.959 -0.0964  0.4341 -0.4483
10399TIP3    H152688   6.512   3.703  13.940 -0.3327 -0.0842 -1.0242
10399TIP3    H252689   6.425   3.803  14.015  0.6988  0.3108 -0.3392
10400TIP3   OH252690   0.633   1.284   0.390  0.0868  0.8902  0.0581
10400TIP3    H152691   0.699   1.238   0.338 -0.9979  0.8138 -1.3097
10400TIP3    H252692   0.683   1.350   0.438  1.4477 -0.6605  0.8399
10401TIP3   OH252693   3.498   2.445   4.682  0.5877  0.2904 -0.6230
10401TIP3    H152694   3.434   2.425   4.613 -0.6438 -0.3310  0.6436
10401TIP3    H252695   3.582   2.452   4.636  0.0938 -1.7831 -1.9722
10402TIP3   OH252696   5.969   4.176  15.132  0.2352  0.4394  0.2778
10402TIP3    H152697   5.927   4.159  15.048  1.2611 -0.1882 -0.1192
10402TIP3    H252698   5.916   4.128  15.196 -1.3539  1.9931  0.2290
10403TIP3   OH252699   1.869   5.251   1.856 -0.0976  0.1109 -0.1701
10403TIP3    H152700   1.868   5.345   1.878  0.9422 -0.7885  4.9564
10403TIP3    H252701   1.780   5.233   1.826 -0.2783  2.7117 -1.4986
10404TIP3   OH252702   0.405   2.293  13.822  0.1289  0.4517  0.4637
10404TIP3    H152703   0.347   2.278  13.896 -0.2430 -1.1931 -0.1328
10404TIP3    H252704   0.483   2.241  13.841  0.8012  1.4591  0.5425
10405TIP3   OH252705   3.584   1.657  14.558 -0.5973  0.4471  0.2818
10405TIP3    H152706   3.636   1.698  14.488  1.4959 -1.7415  0.4192
10405TIP3    H252707   3.512   1.613  14.512  0.0278  0.0966 -0.3828
10406TIP3   OH252708   6.496   3.922   0.626  0.4853 -0.3160  0.1913
10406TIP3    H152709   6.476   3.901   0.534 -0.4922 -1.9022  0.7367
10406TIP3    H252710   6.570   3.865   0.648  0.7838  0.1357  0.3595
10407TIP3   OH252711   5.190   1.814   1.598  0.4271  0.0258 -0.5874
10407TIP3    H152712   5.222   1.889   1.548  1.9310 -0.5331 -0.5302
10407TIP3    H252713   5.216   1.833   1.688  0.7750 -0.5251 -0.5643
10408TIP3   OH252714   6.750   5.866   5.437 -1.0207  0.5485  0.0725
10408TIP3    H152715   6.709   5.875   5.351 -1.0505 -0.0045  0.0259
10408TIP3    H252716   6.694   5.804   5.484 -0.3143 -0.1055  0.0558
10409TIP3   OH252717   0.404   1.773   3.908  0.2039 -0.3581  0.2961
10409TIP3    H152718   0.318   1.756   3.947 -0.4834  0.4652 -0.8077
10409TIP3    H252719   0.414   1.705   3.842  0.5027 -0.5822  0.5701
10410TIP3   OH252720   5.770   0.074   0.665  0.5386  0.4511 -0.1293
10410TIP3    H152721   5.730   0.093   0.581 -1.2709  0.1151  0.6141
10410TIP3    H252722   5.838   0.009   0.646 -1.0097 -0.9410 -1.1210
10411TIP3   OH252723   6.250   1.700   6.694  0.1976  0.4738 -0.0093
10411TIP3    H152724   6.299   1.666   6.769 -0.4063 -0.0799  0.1497
10411TIP3    H252725   6.213   1.782   6.726 -0.0583  0.2404  0.3064
10412TIP3   OH252726   5.757   5.542  15.897  0.0339 -0.2322 -0.4102
10412TIP3    H152727   5.812   5.544  15.819 -0.3707  2.9397 -0.7649
10412TIP3    H252728   5.669   5.522  15.864  0.3699 -2.0197 -0.2894
10413TIP3   OH252729   6.700   0.436  12.131  0.0989  0.1690 -0.6151
10413TIP3    H152730   6.667   0.440  12.041  2.8386 -0.3061 -1.7468
10413TIP3    H252731   6.794   0.418  12.121  0.5248  0.2857  2.3557
10414TIP3   OH252732   2.966   6.326  14.694 -0.3031 -0.1636  0.3085
10414TIP3    H152733   2.899   6.274  14.649 -1.1781 -0.1934  1.5854
10414TIP3    H252734   3.022   6.359  14.624 -1.2947 -0.6489 -0.7472
10415TIP3   OH252735   0.759   1.828  15.330 -0.5732  0.1180  0.1214
10415TIP3    H152736   0.803   1.754  15.290 -0.8649  0.1164 -0.2032
10415TIP3    H252737   0.703   1.863  15.261 -0.9980  0.1840  0.4889
10416TIP3   OH252738   3.205   1.374   2.846 -0.4048 -0.0829 -0.8181
10416TIP3    H152739   3.133   1.317   2.819  0.8684 -1.5499 -1.3236
10416TIP3    H252740   3.262   1.378   2.769  0.9402 -0.4460  0.1129
10417TIP3   OH252741   6.361   2.480  16.606  0.4681 -0.0771  0.4354
10417TIP3    H152742   6.448   2.467  16.568  0.5084 -0.1034  0.5381
10417TIP3    H252743   6.347   2.575  16.602 -0.9059 -0.2754 -2.7737
10418TIP3   OH252744   1.995   2.565  13.847 -0.2308 -0.1704 -0.3226
10418TIP3    H152745   1.924   2.535  13.791 -0.7770 -0.0956  0.3135
10418TIP3    H252746   2.043   2.486  13.871 -0.9663 -0.4209  0.4010
10419TIP3   OH252747   5.409   2.026   0.609  0.0576  0.3849 -0.0151
10419TIP3    H152748   5.495   1.983   0.604  0.2264  0.6676  0.4176
10419TIP3    H252749   5.409   2.071   0.694 -0.2643  0.9309 -0.2978
10420TIP3   OH252750   1.128   5.101   4.846 -0.0278  0.2332 -0.1200
10420TIP3    H152751   1.208   5.053   4.828  0.7219  1.1997  0.5200
10420TIP3    H252752   1.152   5.164   4.914 -1.0647  1.2551 -0.6502
10421TIP3   OH252753   6.804   2.666  13.215  0.1211  0.1053 -0.3064
10421TIP3    H152754   6.775   2.604  13.282  1.2475  0.6132  0.6911
10421TIP3    H252755   6.728   2.676  13.157 -0.5641 -1.0675  0.3524
10422TIP3   OH252756   0.215   2.510   5.032  0.5421  0.1895 -0.0926
10422TIP3    H152757   0.216   2.426   5.078  1.8558 -0.5937 -1.4869
10422TIP3    H252758   0.218   2.575   5.103  2.4312 -0.9720  0.9906
10423TIP3   OH252759   5.342   3.011  16.343  0.3190  0.4982  0.0166
10423TIP3    H152760   5.331   2.984  16.252 -1.6931 -1.7314  0.8078
10423TIP3    H252761   5.259   3.052  16.367  1.0041  1.5217  0.7472
10424TIP3   OH252762   1.806   1.202  14.695  0.1142 -0.1743  0.0009
10424TIP3    H152763   1.781   1.133  14.634 -1.1975  0.0513  0.2537
10424TIP3    H252764   1.888   1.172  14.734 -0.5824 -1.7497  0.3176
10425TIP3   OH252765   3.182   5.555  15.971  0.1760  0.1800  0.0487
10425TIP3    H152766   3.087   5.547  15.982  0.2810 -2.1850 -0.1798
10425TIP3    H252767   3.219   5.505  16.043  1.2515  0.7504 -0.0891
10426TIP3   OH252768   1.163   6.418  14.216  0.0047 -0.1352 -0.0372
10426TIP3    H152769   1.184   6.492  14.159 -2.2349  0.3633 -0.3023
10426TIP3    H252770   1.165   6.342  14.158 -0.9931  0.1938 -0.5183
10427TIP3   OH252771   0.666   5.656  17.093 -0.0897 -0.0814 -0.3214
10427TIP3    H152772   0.605   5.636  17.164  0.4870 -0.6186  0.0348
10427TIP3    H252773   0.749   5.618  17.121  1.2352  3.1396  0.5707
10428TIP3   OH252774   5.185   6.781  12.894  0.3693 -0.0877  0.2792
10428TIP3    H152775   5.096   6.778  12.929 -0.4461  0.1092 -1.6440
10428TIP3    H252776   5.184   6.853  12.830  1.9333 -0.0189  0.2934
10429TIP3   OH252777   1.864   4.027  13.854  0.3369 -0.1006 -0.2098
10429TIP3    H152778   1.956   4.010  13.871  0.8191  1.1823 -1.3583
10429TIP3    H252779   1.840   3.965  13.785  1.0094  1.0975 -1.5716
10430TIP3   OH252780   5.694   2.950  11.317  0.2653 -0.2154 -0.3820
10430TIP3    H152781   5.621   2.994  11.274 -1.0392 -1.2127  0.7072
10430TIP3    H252782   5.718   3.008  11.389  0.4620  0.0603 -0.6718
10431TIP3   OH252783   2.037   4.313   2.053 -0.2897 -0.1019  0.2854
10431TIP3    H152784   2.127   4.292   2.030 -0.9142 -1.5314 -1.0712
10431TIP3    H252785   2.041   4.402   2.087  1.4876  0.2474 -0.6862
10432TIP3   OH252786   5.802   0.418   3.050 -0.5556  0.0212  0.8317
10432TIP3    H152787   5.765   0.382   3.130 -0.6260  1.8332  1.6589
10432TIP3    H252788   5.860   0.488   3.079  0.3929 -0.1024 -0.6502
10433TIP3   OH252789   4.927   5.863   2.777  0.1706  0.2272 -0.1197
10433TIP3    H152790   5.019   5.856   2.804  0.3388  0.4091 -0.6389
10433TIP3    H252791   4.924   5.826   2.689 -0.0655  1.0752 -0.4843
10434TIP3   OH252792   0.795   1.072  11.048 -0.2613 -0.3828 -0.1328
10434TIP3    H152793   0.868   1.020  11.014 -0.4342  0.4376 -1.8322
10434TIP3    H252794   0.812   1.161  11.017 -0.5113  0.4221  1.8772
10435TIP3   OH252795   4.811   3.212  12.181  0.6215  0.1698  0.3881
10435TIP3    H152796   4.771   3.285  12.228 -1.1694 -0.8939  0.6128
10435TIP3    H252797   4.899   3.205  12.218  0.1709  1.0333  1.7036
10436TIP3   OH252798   3.665   5.307  12.617 -0.2805  0.2825  0.0881
10436TIP3    H152799   3.576   5.303  12.652 -0.4735  0.7257 -0.3334
10436TIP3    H252800   3.657   5.271  12.528  0.5489 -2.5975  1.0822
10437TIP3   OH252801   1.014   3.635   4.153  0.1210 -0.4639 -0.5640
10437TIP3    H152802   1.034   3.670   4.240 -2.0185  0.0576 -0.2262
10437TIP3    H252803   1.092   3.654   4.101  0.1868  2.2508  0.3665
10438TIP3   OH252804   2.542   4.313  15.419  0.0238  0.7391 -0.4592
10438TIP3    H152805   2.493   4.279  15.344  0.5146  1.4960 -1.1425
10438TIP3    H252806   2.618   4.256  15.425 -0.5875 -0.0146  0.1725
10439TIP3   OH252807   3.188   0.168  11.300 -0.1881 -0.4096 -0.2337
10439TIP3    H152808   3.127   0.208  11.362  0.8167  0.3613  0.2911
10439TIP3    H252809   3.184   0.225  11.223 -2.1964 -1.9305 -1.3396
10440TIP3   OH252810   5.402   4.822   3.565  0.3403 -0.9722  0.0453
10440TIP3    H152811   5.354   4.848   3.486 -1.8299 -0.6922  1.3825
10440TIP3    H252812   5.396   4.727   3.566 -2.4452 -0.8765  1.4300
10441TIP3   OH252813   3.307   2.769  11.475  0.5713  0.6746  0.7265
10441TIP3    H152814   3.257   2.688  11.472 -0.0280  1.0257  1.1408
10441TIP3    H252815   3.288   2.813  11.392  0.2090  0.7960  0.8738
10442TIP3   OH252816   0.931   1.811  11.368 -0.0929 -0.1242 -0.1546
10442TIP3    H152817   1.024   1.811  11.388 -0.0428 -0.5395 -0.3852
10442TIP3    H252818   0.902   1.723  11.389 -0.7650  0.4263  1.4201
10443TIP3   OH252819   3.305   2.759   4.489  0.8255  0.1433 -0.1722
10443TIP3    H152820   3.271   2.672   4.464  0.8865 -0.2609  1.1023
10443TIP3    H252821   3.398   2.754   4.469  0.4806  0.7054 -2.1713
10444TIP3   OH252822   2.694   4.712   0.177 -0.1108 -0.0368 -0.2150
10444TIP3    H152823   2.666   4.640   0.121 -0.6040  0.4217 -0.5633
10444TIP3    H252824   2.780   4.684   0.210  1.9568  1.1620 -3.9801
10445TIP3   OH252825   3.417   6.104   2.363  0.4259 -0.0741 -0.1456
10445TIP3    H152826   3.485   6.041   2.337  0.0502 -0.6619  0.2594
10445TIP3    H252827   3.336   6.053   2.364 -0.1759  0.8167 -1.4590
10446TIP3   OH252828   1.406   1.096   1.815  0.1302 -0.1838 -0.0753
10446TIP3    H152829   1.453   1.133   1.740 -3.8315  0.5146 -2.5428
10446TIP3    H252830   1.374   1.012   1.784 -0.9557 -0.2406  1.0943
10447TIP3   OH252831   2.736   5.804  14.588  0.1771 -0.0884  0.8381
10447TIP3    H152832   2.788   5.751  14.527 -0.5645  0.8211 -0.6416
10447TIP3    H252833   2.718   5.885  14.540  0.0385  0.9095  2.5039
10448TIP3   OH252834   5.220   2.044   2.796 -0.3546 -0.1377  0.0608
10448TIP3    H152835   5.247   2.117   2.740 -0.6780  0.1150  0.2334
10448TIP3    H252836   5.207   2.083   2.882  0.6149 -0.6150  0.4330
10449TIP3   OH252837   1.549   5.634  15.329 -0.3048  0.5607  0.1932
10449TIP3    H152838   1.605   5.709  15.310  1.3806 -0.9081 -0.9848
10449TIP3    H252839   1.596   5.559  15.293 -1.0654 -1.3324  2.8319
10450TIP3   OH252840   5.150   5.636   0.932  0.4683 -0.4242  0.0622
10450TIP3    H152841   5.241   5.614   0.913  0.3501 -0.4246 -0.5061
10450TIP3    H252842   5.154   5.723   0.971  0.6120  0.0804 -1.0521
10451TIP3   OH252843   3.693   1.610  12.398  0.8395 -0.2701  0.2038
10451TIP3    H152844   3.697   1.581  12.307 -0.5147 -0.0547  0.0562
10451TIP3    H252845   3.671   1.531  12.448 -1.2104  0.0969 -0.0121
10452TIP3   OH252846   5.249   5.581  15.638  0.9714 -0.2340  0.0975
10452TIP3    H152847   5.197   5.596  15.717 -0.1038  1.6137 -0.9028
10452TIP3    H252848   5.285   5.668  15.617 -1.7513  0.2644 -3.4520
10453TIP3   OH252849   4.106   6.590  16.700  0.1821 -0.1545 -0.0673
10453TIP3    H152850   4.020   6.630  16.705  1.3521  2.6217 -0.4453
10453TIP3    H252851   4.101   6.530  16.626 -1.0189  1.0536 -1.0084
10454TIP3   OH252852   4.113   4.313  17.061  0.2336  0.3486 -0.0333
10454TIP3    H152853   4.201   4.348  17.047 -0.1115  1.8074  1.2504
10454TIP3    H252854   4.062   4.387  17.091 -1.7152 -0.2501 -1.6587
10455TIP3   OH252855   4.767   2.491   5.013  0.1648  0.4442  0.3566
10455TIP3    H152856   4.826   2.535   4.952  3.4364 -3.0486  0.5620
10455TIP3    H252857   4.810   2.501   5.098 -0.8759 -0.1296  0.9623
10456TIP3   OH252858   2.032   0.143   5.468  0.0104 -0.5225  0.3899
10456TIP3    H152859   2.018   0.205   5.396  0.6967 -1.8705 -0.9595
10456TIP3    H252860   2.108   0.178   5.515  0.9647 -0.7803 -0.9039
10457TIP3   OH252861   1.745   0.207   6.247  0.6766  0.5725  0.3655
10457TIP3    H152862   1.720   0.118   6.219  0.4943  0.8285 -0.3001
10457TIP3    H252863   1.831   0.221   6.210 -0.5798  1.8618 -2.2952
10458TIP3   OH252864   6.485   6.746   2.167 -0.0359 -0.2306  0.6796
10458TIP3    H152865   6.439   6.666   2.192 -1.2075 -0.4433 -1.8596
10458TIP3    H252866   6.563   6.716   2.120 -0.1369  0.0997  0.2906
10459TIP3   OH252867   2.923   2.960  16.835 -0.2930  0.3505 -0.2725
10459TIP3    H152868   2.918   3.017  16.911  0.1366 -0.9604  0.7788
10459TIP3    H252869   2.933   2.872  16.871  0.2182 -0.2834 -1.8392
10460TIP3   OH252870   0.753   3.512   0.697 -0.5354 -0.0475  0.0294
10460TIP3    H152871   0.786   3.599   0.677 -0.8437 -0.1260 -0.9078
10460TIP3    H252872   0.694   3.492   0.623 -0.9711 -0.7763  0.5611
10461TIP3   OH252873   0.173   6.164  15.286 -1.1947 -0.0148  0.1279
10461TIP3    H152874   0.236   6.133  15.221  0.9952  1.1699  1.5103
10461TIP3    H252875   0.117   6.226  15.239  0.0253  0.4591 -0.7638
10462TIP3   OH252876   5.787   3.090  14.997  0.2282 -0.2541  0.6327
10462TIP3    H152877   5.854   3.022  14.989  0.2860 -0.0168 -1.4935
10462TIP3    H252878   5.707   3.042  15.022  0.4416 -1.0017 -0.0980
10463TIP3   OH252879   6.327   3.610  16.680 -0.2254  0.0566  0.3939
10463TIP3    H152880   6.336   3.654  16.596 -0.1110 -0.2916  0.2213
10463TIP3    H252881   6.270   3.535  16.661  0.7319 -0.6815  0.3745
10464TIP3   OH252882   1.774   5.637   1.514 -0.4200  0.7243  0.3951
10464TIP3    H152883   1.764   5.585   1.594  0.3866  2.3817  1.6408
10464TIP3    H252884   1.864   5.622   1.487 -0.0678  1.6968  0.9681
10465TIP3   OH252885   6.098   0.939  11.986 -0.7484 -0.4838 -0.4754
10465TIP3    H152886   6.083   0.846  12.003  1.9656 -0.7788  0.7828
10465TIP3    H252887   6.022   0.983  12.024 -1.0915 -2.0782  0.7620
10466TIP3   OH252888   4.603   6.061  12.007 -0.5219 -0.1263  0.3951
10466TIP3    H152889   4.689   6.025  11.983 -0.2560 -0.0989  1.2658
10466TIP3    H252890   4.621   6.119  12.080 -1.1732  0.5836  0.0078
10467TIP3   OH252891   0.321   0.060   5.334  0.1868  0.0427  0.1575
10467TIP3    H152892   0.315  -0.013   5.396 -2.1872  2.4209  3.1267
10467TIP3    H252893   0.232   0.071   5.301  0.2427  2.0315  0.4890
10468TIP3   OH252894   6.532   0.996   4.200  0.0606  0.0064 -0.3085
10468TIP3    H152895   6.619   1.033   4.184 -0.7866  1.5602 -1.6547
10468TIP3    H252896   6.549   0.913   4.243  2.1972  0.4558 -0.1675
10469TIP3   OH252897   5.718   6.141   2.814  0.4106  0.2751 -0.1666
10469TIP3    H152898   5.790   6.148   2.877 -0.3156  1.6802  0.5681
10469TIP3    H252899   5.689   6.050   2.820 -0.1691  0.5522  2.1923
10470TIP3   OH252900   4.975   0.793  13.099  0.0637 -0.2262 -0.0208
10470TIP3    H152901   4.925   0.790  13.017 -1.8236  0.8657  1.0433
10470TIP3    H252902   5.055   0.743  13.079  0.0322  0.6328 -2.7421
10471TIP3   OH252903   0.636   2.617   5.614  0.4168  0.5424 -0.2923
10471TIP3    H152904   0.564   2.565   5.649 -0.2257  1.3618 -0.3673
10471TIP3    H252905   0.608   2.642   5.526 -0.1546  2.5903  0.4028
10472TIP3   OH252906   0.192   4.008  15.875  0.0769  0.0011  0.5615
10472TIP3    H152907   0.242   4.086  15.854 -0.1999  0.3917  1.3133
10472TIP3    H252908   0.133   3.996  15.800  2.2662 -1.3432 -1.0659
10473TIP3   OH252909   0.017   5.965  16.447  0.2656 -0.5247  0.0195
10473TIP3    H152910  -0.056   6.027  16.446  1.4560  0.9396  0.8658
10473TIP3    H252911   0.062   5.980  16.365  1.7296  1.2641  1.0677
10474TIP3   OH252912   6.716   0.986  16.739 -0.1637  0.3045 -0.3142
10474TIP3    H152913   6.753   0.903  16.708  0.1257  0.8309 -1.4330
10474TIP3    H252914   6.775   1.053  16.705 -1.0903  1.0490 -0.5124
10475TIP3   OH252915   2.807   0.424  13.980  0.6924 -0.3031  0.4469
10475TIP3    H152916   2.778   0.473  14.057  1.2482  0.5787  0.1161
10475TIP3    H252917   2.726   0.394  13.939  0.2696  1.1933  0.1246
10476TIP3   OH252918   3.308   3.863   1.363  0.5614 -0.8656 -0.0630
10476TIP3    H152919   3.291   3.826   1.450 -1.6242  1.4463  0.6192
10476TIP3    H252920   3.403   3.858   1.353  1.0968  0.3330  3.2631
10477TIP3   OH252921   4.271   5.762   2.492  0.1110  0.3075 -0.0719
10477TIP3    H152922   4.261   5.727   2.581 -1.4501 -1.0813 -0.7340
10477TIP3    H252923   4.197   5.821   2.481  0.3265  0.5091 -0.4296
10478TIP3   OH252924   4.995   2.824  15.211  0.0176 -0.0183  0.3675
10478TIP3    H152925   5.074   2.856  15.166  0.5933  1.8745  2.5150
10478TIP3    H252926   4.940   2.902  15.221 -0.2513 -0.4090  2.4900
10479TIP3   OH252927   0.979   3.301  16.536  0.7997  0.3193  0.2038
10479TIP3    H152928   1.054   3.275  16.590 -0.5781 -2.2951  1.0529
10479TIP3    H252929   0.906   3.306  16.598 -0.9135 -3.1285 -1.2436
10480TIP3   OH252930   2.343   1.325  13.925 -0.0817  0.5122 -0.2127
10480TIP3    H152931   2.253   1.311  13.896 -0.1443  0.5219 -0.0218
10480TIP3    H252932   2.358   1.256  13.989  0.9864 -1.3275 -2.2956
10481TIP3   OH252933   1.865   5.582  12.295 -0.0904  0.2331 -0.3446
10481TIP3    H152934   1.898   5.619  12.213 -0.8727 -0.2325 -0.8794
10481TIP3    H252935   1.944   5.563  12.346  0.4243  0.1135 -1.1713
10482TIP3   OH252936   6.303   4.382   2.954  0.5312  0.1039  0.1407
10482TIP3    H152937   6.376   4.333   2.914  0.4245 -0.6677  0.8729
10482TIP3    H252938   6.263   4.321   3.015  0.5517  1.1893  1.2863
10483TIP3   OH252939   1.281   4.374   4.234  0.1577  0.5307  0.2809
10483TIP3    H152940   1.222   4.299   4.246  0.6487  0.1433  0.3195
10483TIP3    H252941   1.238   4.446   4.279 -0.3117  0.2618  0.2664
10484TIP3   OH252942   5.226   0.981   3.720 -0.1015  0.7305  0.0586
10484TIP3    H152943   5.202   0.929   3.797  1.2996  0.8967  0.6454
10484TIP3    H252944   5.303   0.936   3.685 -0.9600  0.4336 -1.4995
10485TIP3   OH252945   6.013   2.786  12.252 -0.3486  0.4424  0.0850
10485TIP3    H152946   6.031   2.781  12.158 -1.5524 -1.6180 -0.0990
10485TIP3    H252947   5.937   2.728  12.265 -0.4675  1.0050  2.2665
10486TIP3   OH252948   5.955   6.685  17.156  0.0448  0.2022 -0.1980
10486TIP3    H152949   6.012   6.749  17.112 -0.0144 -0.3334 -1.0758
10486TIP3    H252950   5.894   6.657  17.088 -0.4155 -0.2274  0.3870
10487TIP3   OH252951   6.556   3.612  11.011  0.7697 -0.4274  0.0725
10487TIP3    H152952   6.574   3.664  10.933  1.2451  1.4624  1.3581
10487TIP3    H252953   6.632   3.627  11.067 -0.9699  1.0433  2.2454
10488TIP3   OH252954   4.054   4.920   3.821  0.0072  0.1336  0.2922
10488TIP3    H152955   3.975   4.954   3.778 -0.2101 -0.0965  0.5117
10488TIP3    H252956   4.110   4.890   3.748 -0.2547 -0.0246  0.1562
10489TIP3   OH252957   6.714   5.605  10.506 -0.2245 -0.1649 -0.3853
10489TIP3    H152958   6.636   5.552  10.525  0.5075 -1.7148 -1.4739
10489TIP3    H252959   6.778   5.578  10.572 -0.3609  0.6303  0.0964
10490TIP3   OH252960   0.450   1.623   1.735  0.1356  0.3231  0.4003
10490TIP3    H152961   0.477   1.534   1.756 -1.0290 -0.6692 -1.9026
10490TIP3    H252962   0.487   1.639   1.648  1.6852  2.7621  1.4149
10491TIP3   OH252963   0.816   5.067   3.334  0.1630  0.2234  0.1963
10491TIP3    H152964   0.908   5.082   3.358  1.1225 -1.5381 -2.0345
10491TIP3    H252965   0.812   4.974   3.312 -2.1484  0.3102  0.0457
10492TIP3   OH252966   3.603   1.762  16.573  0.4447  0.0828  0.7947
10492TIP3    H152967   3.587   1.715  16.655 -1.1332 -0.1367  0.3932
10492TIP3    H252968   3.656   1.838  16.598 -0.6972  0.4713  2.1749
10493TIP3   OH252969   3.672   0.396  11.836 -0.0577  0.1910 -0.6157
10493TIP3    H152970   3.604   0.414  11.771  0.8924  0.6823 -1.5006
10493TIP3    H252971   3.752   0.383  11.784  0.6020  0.0083  0.4183
10494TIP3   OH252972   4.896   0.381   5.646 -0.2427 -0.1536 -0.0024
10494TIP3    H152973   4.982   0.383   5.604 -1.0322  2.9435 -1.7818
10494TIP3    H252974   4.913   0.395   5.739  1.2465 -1.5075 -0.0483
10495TIP3   OH252975   4.193   3.365  13.770  0.4041  0.3871 -0.0634
10495TIP3    H152976   4.194   3.276  13.737  0.3846  0.6366 -0.7472
10495TIP3    H252977   4.249   3.362  13.848 -1.1000 -0.6257  1.0342
10496TIP3   OH252978   2.073   4.926   0.415 -0.1141  0.0827 -0.5109
10496TIP3    H152979   2.101   4.867   0.345 -1.8740  0.0023 -1.2083
10496TIP3    H252980   1.986   4.956   0.388 -1.5246 -1.0688  2.3038
10497TIP3   OH252981   5.605   1.177   4.789  0.7467  0.1329  0.0801
10497TIP3    H152982   5.610   1.123   4.711  0.3539 -0.3146  0.3610
10497TIP3    H252983   5.663   1.251   4.771 -2.2842  2.1966 -2.2866
10498TIP3   OH252984   2.235   3.045   0.061  0.0706  0.3088  0.1220
10498TIP3    H152985   2.148   3.083   0.048 -0.0606 -0.5846 -1.9875
10498TIP3    H252986   2.224   2.985   0.135 -1.2025 -0.0630 -0.3479
10499TIP3   OH252987   4.738   1.986   2.587  0.5099 -0.2655 -0.4784
10499TIP3    H152988   4.726   2.058   2.525  0.3478  2.2778  2.3209
10499TIP3    H252989   4.832   1.971   2.588  0.5508 -0.0788 -1.0338
10500TIP3   OH252990   4.921   0.787   2.479 -0.1348 -1.0195 -0.3589
10500TIP3    H152991   5.007   0.746   2.473 -0.8310 -2.7861  0.9459
10500TIP3    H252992   4.859   0.716   2.466 -1.4214  0.1462 -0.8797
10501TIP3   OH252993   6.351   6.232  11.245 -0.1909  0.1343  0.1572
10501TIP3    H152994   6.365   6.199  11.156  0.7113  0.5333  0.1346
10501TIP3    H252995   6.368   6.156  11.301 -0.3803 -0.0223  0.0049
10502TIP3   OH252996   1.308   0.963   2.852 -0.4048  0.7316 -0.3554
10502TIP3    H152997   1.326   0.987   2.761  0.0914 -2.5795 -1.2600
10502TIP3    H252998   1.213   0.962   2.858 -0.4425  1.0015 -0.8286
10503TIP3   OH252999   6.172   4.224   3.208 -0.7086  0.3150  0.2279
10503TIP3    H153000   6.178   4.202   3.301  0.7816 -0.5154 -0.0229
10503TIP3    H253001   6.184   4.140   3.163 -3.6580  0.2922 -0.7540
10504TIP3   OH253002   0.330   2.529   0.506  0.7656 -0.0467 -0.4882
10504TIP3    H153003   0.390   2.591   0.548 -0.3804 -0.3253  1.7420
10504TIP3    H253004   0.328   2.455   0.566  0.0042 -1.0629 -1.7329
10505TIP3   OH253005   3.657   1.277   3.571 -0.4334 -0.5848  0.6178
10505TIP3    H153006   3.741   1.305   3.607 -1.4160 -0.2919  2.9217
10505TIP3    H253007   3.665   1.289   3.477  1.6764  0.6121  0.8954
10506TIP3   OH253008   0.502   4.492   2.072 -0.1236 -0.0862  0.4934
10506TIP3    H153009   0.496   4.577   2.116 -1.0006 -0.0119  0.2693
10506TIP3    H253010   0.411   4.462   2.068 -0.2303  0.3769 -2.1557
10507TIP3   OH253011   5.875   6.488   2.108  0.1359  0.2676 -0.8261
10507TIP3    H153012   5.884   6.580   2.082  1.6892  0.3753 -0.0030
10507TIP3    H253013   5.885   6.489   2.203  0.8577 -0.8234 -0.8745
10508TIP3   OH253014   4.579   5.691  16.422  0.1541  0.0233  0.1678
10508TIP3    H153015   4.509   5.643  16.467  1.3436 -0.3373  1.7542
10508TIP3    H253016   4.635   5.622  16.385  1.6431  0.0969  2.0991
10509TIP3   OH253017   3.742   2.324   0.150 -0.0437  0.2024 -0.4258
10509TIP3    H153018   3.739   2.322   0.246  0.6511  0.4141 -0.3935
10509TIP3    H253019   3.820   2.376   0.130  0.7052 -1.1359 -1.1016
10510TIP3   OH253020   5.814   5.005   1.226 -0.5822 -0.1427 -0.2863
10510TIP3    H153021   5.815   5.012   1.321 -1.6597 -0.9697 -0.1917
10510TIP3    H253022   5.723   4.987   1.204 -0.4596  0.6442 -1.5322
10511TIP3   OH253023   4.730   2.264  16.632  0.2894 -0.1662 -0.0065
10511TIP3    H153024   4.758   2.178  16.600 -1.2916 -0.8132  0.2728
10511TIP3    H253025   4.798   2.324  16.600  1.6866 -1.5560  0.1850
10512TIP3   OH253026   4.494   5.655   3.851 -0.6150 -0.2128 -0.2762
10512TIP3    H153027   4.449   5.704   3.783  1.4369 -0.2870 -1.7997
10512TIP3    H253028   4.493   5.712   3.927 -0.9734  0.8755 -1.0811
10513TIP3   OH253029   2.477   4.232  16.068 -0.0035 -0.1097  0.5399
10513TIP3    H153030   2.416   4.160  16.052  1.4571 -1.5731  1.3207
10513TIP3    H253031   2.554   4.211  16.015  0.0759  1.4166  0.0128
10514TIP3   OH253032   1.103   4.029  16.989 -0.7515 -0.4389  0.2661
10514TIP3    H153033   1.059   4.102  17.033 -2.0345 -0.1661 -1.3630
10514TIP3    H253034   1.130   4.065  16.904  1.8152 -0.8856  0.8176
10515TIP3   OH253035   1.279   6.098  13.928 -0.4413 -0.4531 -0.3620
10515TIP3    H153036   1.185   6.093  13.912 -0.3364  0.4082 -1.3702
10515TIP3    H253037   1.286   6.112  14.022 -1.3092 -0.7844 -0.2355
10516TIP3   OH253038   4.681   1.877  16.558 -0.8823  0.4236  0.3951
10516TIP3    H153039   4.589   1.852  16.564 -1.0244  0.3100 -1.5268
10516TIP3    H253040   4.728   1.794  16.549 -0.7039  0.5307  0.3336
10517TIP3   OH253041   2.641   4.874  15.237  0.2289  0.0515 -0.0283
10517TIP3    H153042   2.687   4.934  15.178 -1.2303  0.8116 -0.4260
10517TIP3    H253043   2.697   4.796  15.240  1.3300  0.7809 -0.8108
10518TIP3   OH253044   5.293   5.867   0.168 -0.7462 -0.1091 -0.3832
10518TIP3    H153045   5.275   5.894   0.258  0.8027  2.9660 -0.8505
10518TIP3    H253046   5.214   5.890   0.120 -0.3943  1.3737 -0.3079
10519TIP3   OH253047   1.239   6.661  15.449 -0.1665  0.1966  0.8539
10519TIP3    H153048   1.167   6.601  15.466  0.7367 -1.3283 -0.4561
10519TIP3    H253049   1.309   6.632  15.508  0.4750 -0.4382 -0.2044
10520TIP3   OH253050   2.482   2.501  15.119 -0.5696  0.2095  0.3114
10520TIP3    H153051   2.456   2.592  15.128  0.1172  0.2872  1.7696
10520TIP3    H253052   2.568   2.505  15.078 -1.0315  0.1473 -0.6877
10521TIP3   OH253053   2.242   4.596   2.281  0.1877  0.4560  0.2606
10521TIP3    H153054   2.244   4.504   2.309  1.1557  0.2992 -0.2611
10521TIP3    H253055   2.335   4.621   2.278  0.2305  0.3232 -3.2163
10522TIP3   OH253056   0.407   0.033   3.731 -0.2482 -0.0772  0.0323
10522TIP3    H153057   0.488   0.072   3.698 -1.5271  2.2599 -0.5928
10522TIP3    H253058   0.432  -0.057   3.755  1.8646 -0.3899 -2.7629
10523TIP3   OH253059   2.236   3.388   6.023 -0.2245 -0.3451  0.2377
10523TIP3    H153060   2.148   3.375   5.988  0.1542 -1.3701 -0.3815
10523TIP3    H253061   2.254   3.309   6.073  0.3664 -0.1647  0.3209
10524TIP3   OH253062   5.223   0.282  17.004  0.4689 -0.1912  0.1208
10524TIP3    H153063   5.134   0.306  16.979  0.7267  0.1243 -0.5189
10524TIP3    H253064   5.244   0.208  16.948  0.4411 -0.5802  0.6133
10525TIP3   OH253065   4.235   5.358   1.321  0.3347  0.3931  0.3428
10525TIP3    H153066   4.140   5.356   1.319  0.3436 -1.5831 -0.2356
10525TIP3    H253067   4.257   5.452   1.324 -1.6008  0.8736  1.1868
10526TIP3   OH253068   4.317   6.101   4.125 -0.6782 -0.1922 -0.1538
10526TIP3    H153069   4.408   6.076   4.141 -0.2465  2.5084  2.2881
10526TIP3    H253070   4.312   6.114   4.030  1.9950  1.1772 -0.1872
10527TIP3   OH253071   1.896   5.909   5.060 -0.3771  0.3683 -0.1952
10527TIP3    H153072   1.835   5.858   5.114  1.6508 -0.5534  1.3659
10527TIP3    H253073   1.887   5.998   5.094 -1.1215  0.3251 -0.2512
10528TIP3   OH253074   2.780   3.134   2.163 -0.6382  0.5510  0.1069
10528TIP3    H153075   2.827   3.159   2.243 -1.2015 -1.3978  1.1109
10528TIP3    H253076   2.841   3.155   2.092  0.7809  0.2956  1.2096
10529TIP3   OH253077   3.844   3.775   0.201 -0.0620 -0.0983 -0.0717
10529TIP3    H153078   3.760   3.804   0.166 -0.3201 -1.6007 -0.7582
10529TIP3    H253079   3.843   3.680   0.191  0.5324 -0.4555  2.5336
10530TIP3   OH253080   3.788   1.255  12.781 -0.2575 -0.6521 -0.1599
10530TIP3    H153081   3.696   1.244  12.802 -0.5637  2.3544  0.5636
10530TIP3    H253082   3.834   1.241  12.864 -0.3394  0.2259  0.0441
10531TIP3   OH253083   0.454   3.565  15.213 -0.7588  0.2023  0.5194
10531TIP3    H153084   0.459   3.517  15.296 -0.9613 -0.2464  0.2769
10531TIP3    H253085   0.545   3.578  15.188 -0.6990 -0.1073  0.5629
10532TIP3   OH253086   3.197   2.367  14.314  0.3703  0.1172  0.0091
10532TIP3    H153087   3.260   2.297  14.330 -0.8690 -0.6976  1.5361
10532TIP3    H253088   3.134   2.329  14.253  0.2012  0.2099  0.1249
10533TIP3   OH253089   2.254   6.702   2.420  0.0311 -0.1493 -0.5364
10533TIP3    H153090   2.271   6.695   2.514  0.6280  1.1351 -0.5286
10533TIP3    H253091   2.162   6.677   2.411 -0.3980  0.9403  0.5615
10534TIP3   OH253092   4.785   3.315   5.804 -0.6766 -0.0772  0.2907
10534TIP3    H153093   4.865   3.344   5.760 -0.9586  0.6114  0.2112
10534TIP3    H253094   4.715   3.331   5.740 -0.9979  0.2583  0.7129
10535TIP3   OH253095   5.255   2.150   6.366  0.2031  0.2884  0.6118
10535TIP3    H153096   5.294   2.065   6.383 -1.8399 -0.6184  1.0737
10535TIP3    H253097   5.235   2.185   6.453 -1.4584 -0.0074  0.3739
10536TIP3   OH253098   3.170   6.216  17.158 -0.1084 -0.2049 -0.2289
10536TIP3    H153099   3.238   6.261  17.208  0.8477 -1.1650 -0.6219
10536TIP3    H253100   3.107   6.285  17.136  2.0658  1.3659 -2.1610
10537TIP3   OH253101   5.669   3.999   0.322  0.0274  0.5591 -0.0355
10537TIP3    H153102   5.685   4.094   0.320 -0.0374  0.5938  0.6886
10537TIP3    H253103   5.605   3.984   0.253  0.2519  1.0028 -0.3480
10538TIP3   OH253104   1.920   1.181  16.381 -0.1898 -0.7130  0.0081
10538TIP3    H153105   1.837   1.185  16.428 -0.3974 -1.5285 -0.2800
10538TIP3    H253106   1.938   1.272  16.357 -2.0707 -0.7522 -1.7638
10539TIP3   OH253107   3.764   2.596  14.435  0.0581 -0.4060 -0.5039
10539TIP3    H153108   3.712   2.585  14.355  0.5462  0.9054 -1.0290
10539TIP3    H253109   3.722   2.537  14.498 -0.0246 -1.8601 -1.8398
10540TIP3   OH253110   0.423   1.868   0.158  0.0138 -0.1181  0.1375
10540TIP3    H153111   0.514   1.845   0.136 -0.3443 -0.0912 -1.5428
10540TIP3    H253112   0.374   1.848   0.078 -1.4997 -0.3132  1.0874
10541TIP3   OH253113   1.830   4.408  11.318  0.2121 -0.2323 -0.3962
10541TIP3    H153114   1.886   4.468  11.367 -0.4191  0.2610 -0.2770
10541TIP3    H253115   1.889   4.338  11.290  1.0128  0.5828 -0.7819
10542TIP3   OH253116   0.268   5.969  15.467  0.7151  0.7416  0.4086
10542TIP3    H153117   0.197   6.033  15.481 -0.5191 -0.7201  1.1874
10542TIP3    H253118   0.235   5.889  15.507  3.1000  0.1625  1.3690
10543TIP3   OH253119   5.756   2.507  13.560  0.3915 -0.1679 -0.3924
10543TIP3    H153120   5.746   2.414  13.538 -1.1560 -0.0381 -0.3439
10543TIP3    H253121   5.838   2.533  13.517  0.6814 -1.4661 -0.6685
10544TIP3   OH253122   2.433   1.847   2.969  0.0652  0.4052  0.8138
10544TIP3    H153123   2.361   1.911   2.962  1.0828  1.5564  0.4631
10544TIP3    H253124   2.392   1.769   3.005 -1.3964  0.9843  0.4838
10545TIP3   OH253125   6.409   4.552   0.882 -0.0102  0.9524 -0.8255
10545TIP3    H153126   6.377   4.480   0.938  1.1957 -0.4141 -1.8153
10545TIP3    H253127   6.419   4.626   0.941  0.4736 -0.2291  0.6318
10546TIP3   OH253128   3.184   1.606   5.565  0.1889 -0.7371  0.2156
10546TIP3    H153129   3.122   1.544   5.604 -0.2048 -0.3372  0.2367
10546TIP3    H253130   3.240   1.633   5.637 -1.1699  0.7662  0.7589
10547TIP3   OH253131   2.725   5.122  12.808 -0.6591  0.4619 -0.2260
10547TIP3    H153132   2.779   5.047  12.781 -4.0100 -2.1596 -0.3129
10547TIP3    H253133   2.764   5.151  12.890  1.2245 -0.8678 -0.5850
10548TIP3   OH253134   3.728   4.410  12.005  0.4802 -0.1291  0.6578
10548TIP3    H153135   3.667   4.484  12.000  1.3524  0.5897  0.1729
10548TIP3    H253136   3.720   4.378  12.094 -1.9988 -1.3031  0.1192
10549TIP3   OH253137   4.038   5.643   1.176  0.1310  0.7922 -0.1457
10549TIP3    H153138   4.034   5.640   1.272 -1.6313  1.3319 -0.1555
10549TIP3    H253139   4.058   5.735   1.156  4.2006  0.0681 -0.3379
10550TIP3   OH253140   2.090   6.595  11.472 -0.6979  0.0541 -0.4354
10550TIP3    H153141   2.012   6.609  11.419 -1.5059 -1.1411  0.4062
10550TIP3    H253142   2.149   6.666  11.446 -1.7109  0.4697 -1.7072
10551TIP3   OH253143   1.618   2.138   1.693  0.4962  0.4245  0.5337
10551TIP3    H153144   1.526   2.156   1.676  0.6749  1.2086  0.3120
10551TIP3    H253145   1.618   2.076   1.765 -0.2052  0.3733  0.4954
10552TIP3   OH253146   5.175   5.544  14.600  0.1305 -0.4585 -0.4011
10552TIP3    H153147   5.122   5.466  14.617 -2.3596  1.1453 -0.1535
10552TIP3    H253148   5.238   5.547  14.671 -1.5901 -0.7936  1.2050
10553TIP3   OH253149   3.826   4.967  15.308  0.2822  0.3082 -0.2672
10553TIP3    H153150   3.851   5.023  15.381 -0.0321 -0.5239  0.4970
10553TIP3    H253151   3.903   4.912  15.293  0.4752  0.7134 -0.8083
10554TIP3   OH253152   2.606   3.504  14.077 -0.2575  0.1045  0.0362
10554TIP3    H153153   2.643   3.492  14.165  1.3091  0.0531 -0.6113
10554TIP3    H253154   2.561   3.588  14.081 -0.1362  0.1383  0.8566
10555TIP3   OH253155   5.944   2.014  12.228  0.1635 -0.2901 -1.2674
10555TIP3    H153156   5.905   1.954  12.292  1.0644 -0.8616 -1.2316
10555TIP3    H253157   5.881   2.085  12.220 -0.8061 -1.1122 -1.1040
10556TIP3   OH253158   5.030   3.149  14.432 -0.0107 -0.2737  0.0916
10556TIP3    H153159   4.990   3.062  14.430 -1.6441  0.4303 -2.0154
10556TIP3    H253160   5.048   3.169  14.340  1.8903  0.9581  0.6940
10557TIP3   OH253161   2.918   4.883   6.133 -0.0074 -0.6518 -1.0953
10557TIP3    H153162   2.994   4.935   6.158 -1.1461  0.6312 -0.1312
10557TIP3    H253163   2.895   4.834   6.212 -0.9002 -0.0692 -0.9734
10558TIP3   OH253164   3.386   5.285   3.393 -0.4201 -0.3309  0.0328
10558TIP3    H153165   3.392   5.189   3.392  0.1877 -0.3048  0.5225
10558TIP3    H253166   3.343   5.307   3.310 -1.7819 -1.0967  0.5154
10559TIP3   OH253167   2.755   2.593  15.374  0.1962 -0.0023  0.6276
10559TIP3    H153168   2.730   2.685  15.371 -0.9218 -0.2955 -0.0055
10559TIP3    H253169   2.701   2.556  15.444 -0.0805 -0.3571  0.2328
10560TIP3   OH253170   5.453   2.492  16.289 -0.7162 -0.4333  0.2356
10560TIP3    H153171   5.393   2.558  16.255  0.6059  0.7115  0.0545
10560TIP3    H253172   5.502   2.461  16.213 -3.4546 -4.0878 -0.3364
10561TIP3   OH253173   6.021   6.672  12.183 -0.0681 -0.0902  0.3967
10561TIP3    H153174   6.062   6.635  12.106  1.4909 -0.2755  1.2755
10561TIP3    H253175   5.951   6.727  12.149 -0.6769 -1.6878 -1.0391
10562TIP3   OH253176   1.349   4.179   3.846 -0.2844 -0.2394 -0.1274
10562TIP3    H153177   1.255   4.184   3.867 -0.2653  1.5890 -0.3231
10562TIP3    H253178   1.376   4.271   3.836  1.7221 -0.7041  0.7339
10563TIP3   OH253179   2.548   1.691  12.230 -0.2454  0.3516  0.5932
10563TIP3    H153180   2.560   1.596  12.228  0.8840  0.4728  1.2840
10563TIP3    H253181   2.469   1.703  12.282  0.6720 -0.1357  2.1489
10564TIP3   OH253182   5.333   0.754  11.549  0.1822 -0.7621  0.1527
10564TIP3    H153183   5.246   0.732  11.582  0.3977 -0.3718  1.0099
10564TIP3    H253184   5.330   0.730  11.456 -0.6478 -1.2859  0.3035
10565TIP3   OH253185   2.272   5.306   5.108 -0.3832 -0.0580 -0.4168
10565TIP3    H153186   2.367   5.313   5.116 -0.0994 -1.2707 -2.2665
10565TIP3    H253187   2.255   5.307   5.014 -2.1461 -0.6015 -0.1405
10566TIP3   OH253188   3.934   4.508  16.286 -0.5894 -0.2695  0.2130
10566TIP3    H153189   3.869   4.460  16.234 -0.2735 -0.0452 -0.4002
10566TIP3    H253190   4.002   4.443  16.306  0.4726  0.1756 -1.6955
10567TIP3   OH253191   1.127   5.165   3.971 -0.0858  0.0423 -0.1704
10567TIP3    H153192   1.192   5.101   3.942  1.0338  1.1387 -0.1553
10567TIP3    H253193   1.072   5.116   4.032 -0.2755 -1.3409 -1.3840
10568TIP3   OH253194   4.794   1.410  11.788  0.4283 -0.6094  0.4805
10568TIP3    H153195   4.864   1.444  11.844  0.0970 -1.0181  1.1528
10568TIP3    H253196   4.714   1.427  11.837 -0.2674  2.2839 -1.4347
10569TIP3   OH253197   5.941   2.285  12.800 -0.2314  0.1173 -0.3353
10569TIP3    H153198   5.926   2.378  12.783 -1.3342  0.2174  1.0299
10569TIP3    H253199   5.865   2.241  12.762  0.1433 -0.2118 -0.7146
10570TIP3   OH253200   0.060   5.936   0.077  0.2308  0.4184  0.4491
10570TIP3    H153201   0.100   5.996   0.014  0.4348 -0.3125 -0.1341
10570TIP3    H253202   0.071   5.850   0.038 -1.8217  0.1761  0.3189
10571TIP3   OH253203   2.653   6.127   0.451 -1.5443 -0.2820  0.1518
10571TIP3    H153204   2.672   6.103   0.360  0.4459  1.0584  0.1380
10571TIP3    H253205   2.573   6.179   0.445 -1.9169 -0.9193 -0.7070
10572TIP3   OH253206   0.879   6.487  14.061  0.4525 -0.4943  0.0970
10572TIP3    H153207   0.869   6.402  14.017 -0.3708 -0.4287  0.1438
10572TIP3    H253208   0.887   6.465  14.154  0.7161 -0.5444  0.0645
10573TIP3   OH253209   6.309   3.527  11.384 -0.1074 -0.2336 -0.5324
10573TIP3    H153210   6.227   3.545  11.430  0.2883  0.3651 -0.0347
10573TIP3    H253211   6.285   3.524  11.291 -0.7187 -0.2535 -0.3753
10574TIP3   OH253212   3.143   6.713   4.471  0.3150  0.0748 -0.6760
10574TIP3    H153213   3.205   6.649   4.504  0.9732  0.8192 -0.4364
10574TIP3    H253214   3.099   6.748   4.548  0.1777  0.1363 -0.7798
10575TIP3   OH253215   0.109   4.219  14.657  0.0143 -0.1993 -0.0668
10575TIP3    H153216   0.125   4.272  14.578 -2.1938  0.1688 -0.3433
10575TIP3    H253217   0.110   4.129  14.626  0.8866 -0.1640 -0.1635
10576TIP3   OH253218   1.042   2.411   5.590 -0.4364 -0.1736 -0.2126
10576TIP3    H153219   1.042   2.328   5.636 -0.5147 -0.4034 -0.6239
10576TIP3    H253220   1.089   2.394   5.508  1.6044  0.7454  0.6845
10577TIP3   OH253221   5.872   0.941  15.627 -0.0587 -0.2658 -0.0348
10577TIP3    H153222   5.825   0.974  15.550  2.0332  0.9062 -0.8886
10577TIP3    H253223   5.920   1.017  15.659  0.3355 -1.1380  1.5222
10578TIP3   OH253224   3.037   0.263   4.542  0.3960  0.4343  0.7380
10578TIP3    H153225   3.036   0.223   4.628 -0.8195 -0.4181  0.3586
10578TIP3    H253226   2.970   0.216   4.492  0.3385  1.5905 -0.3545
10579TIP3   OH253227   2.416   5.127  11.515 -0.0270 -0.2090 -0.5372
10579TIP3    H153228   2.423   5.192  11.585 -1.1757  0.3066 -0.8874
10579TIP3    H253229   2.385   5.048  11.559 -2.2398  0.5320 -0.6472
10580TIP3   OH253230   3.147   6.446  13.506  0.0089 -0.6170 -0.1471
10580TIP3    H153231   3.148   6.542  13.509  0.1754 -0.5643 -1.1904
10580TIP3    H253232   3.205   6.419  13.577  2.0032  0.1486 -1.3880
10581TIP3   OH253233   2.979   6.601  15.138  0.6152  0.0976  0.4086
10581TIP3    H153234   2.947   6.674  15.191 -1.0594  0.0433 -0.4642
10581TIP3    H253235   2.899   6.555  15.110  1.4984 -0.5271 -1.2127
10582TIP3   OH253236   1.019   4.015   4.054  0.6713 -0.0584 -0.4173
10582TIP3    H153237   1.091   4.032   4.114  0.8527 -1.9147 -0.0797
10582TIP3    H253238   0.951   3.976   4.108  0.2336 -0.3034 -1.1316
10583TIP3   OH253239   1.893   2.150  15.455 -0.0834 -0.4701  0.1585
10583TIP3    H153240   1.889   2.233  15.502  1.2291 -0.6158  0.5765
10583TIP3    H253241   1.802   2.125  15.442 -0.5235  1.2767 -0.4150
10584TIP3   OH253242   3.030   3.361   4.112  0.0608 -0.1677 -0.1413
10584TIP3    H153243   3.123   3.370   4.094 -0.0092 -2.3087 -1.9718
10584TIP3    H253244   2.987   3.398   4.035 -0.4975 -1.6739 -0.5820
10585TIP3   OH253245   6.414   5.104   6.623  0.0093  0.0893 -0.4960
10585TIP3    H153246   6.335   5.096   6.568 -0.2598  0.4632 -0.1734
10585TIP3    H253247   6.421   5.198   6.640  0.1846 -0.0071 -0.0275
10586TIP3   OH253248   6.686   5.857  11.398 -0.4753  0.3483  0.1199
10586TIP3    H153249   6.658   5.801  11.325 -1.3099 -0.4533  1.0349
10586TIP3    H253250   6.661   5.809  11.476  1.5802  0.5762  0.9799
10587TIP3   OH253251   2.140   3.038  15.967  0.8355  0.6566 -0.3537
10587TIP3    H153252   2.090   3.026  15.886 -0.3547 -0.1305  0.4631
10587TIP3    H253253   2.101   3.116  16.007  1.3792  1.0069 -0.5042
10588TIP3   OH253254   2.897   3.543   0.411  0.6874 -0.2195  0.0224
10588TIP3    H153255   2.903   3.473   0.476  1.2082 -0.0087  0.1986
10588TIP3    H253256   2.829   3.602   0.445  1.1245  0.0138  0.4910
10589TIP3   OH253257   3.278   5.516  12.883 -0.5009  0.2635 -0.1396
10589TIP3    H153258   3.337   5.507  12.959 -0.9209 -3.4926 -0.0775
10589TIP3    H253259   3.283   5.609  12.861  0.8742  1.2632  3.4858
10590TIP3   OH253260   4.428   2.836  17.212  0.4177  0.2338 -0.2309
10590TIP3    H153261   4.400   2.922  17.180  0.3356 -0.1414 -1.1889
10590TIP3    H253262   4.379   2.773  17.159  0.2910 -0.4129  0.6366
10591TIP3   OH253263   6.161   3.234  14.950  0.2709  0.3401  0.1184
10591TIP3    H153264   6.110   3.289  15.010  0.2312  1.1947 -0.6840
10591TIP3    H253265   6.213   3.296  14.899  0.4715 -0.3902 -0.5769
10592TIP3   OH253266   3.955   5.055  16.966 -0.3529  0.3881  0.0223
10592TIP3    H153267   3.923   4.973  17.006  1.4693 -0.1945  0.3805
10592TIP3    H253268   4.044   5.034  16.938 -0.0595  2.1015 -0.3924
10593TIP3   OH253269   3.597   1.897  14.104  0.2037 -0.1503  1.0846
10593TIP3    H153270   3.518   1.847  14.128 -0.8239  0.7639 -0.2274
10593TIP3    H253271   3.563   1.979  14.070  1.7291  0.1347  0.1646
10594TIP3   OH253272   3.606   2.253  14.478  0.0743  0.4054  0.0804
10594TIP3    H153273   3.612   2.305  14.397  1.7645  0.1406  0.0188
10594TIP3    H253274   3.637   2.312  14.546 -0.0463  0.1787  0.3309
10595TIP3   OH253275   2.989   5.093  16.507  0.2174  0.4025 -0.1940
10595TIP3    H153276   2.974   5.083  16.413  2.9981 -1.0669 -0.5953
10595TIP3    H253277   2.978   5.005  16.543 -0.0025  0.7968  0.7464
10596TIP3   OH253278   1.693   0.167  15.007  0.3686 -0.0885 -0.8391
10596TIP3    H153279   1.750   0.241  15.026  0.9928 -0.6243 -0.6018
10596TIP3    H253280   1.604   0.203  15.013  0.6081  0.3015  0.7403
10597TIP3   OH253281   6.546   2.580   0.903  0.7038 -0.9659 -0.1091
10597TIP3    H153282   6.518   2.489   0.909  1.1090 -1.0974 -0.1443
10597TIP3    H253283   6.582   2.589   0.815  0.5149 -0.7276 -0.1634
10598TIP3   OH253284   3.826   1.357   2.115  0.4833  0.5134 -0.0076
10598TIP3    H153285   3.736   1.384   2.129  0.1478 -0.3418 -0.3961
10598TIP3    H253286   3.868   1.364   2.201 -0.5554 -1.1991  0.6889
10599TIP3   OH253287   3.180   5.147  10.846  0.0770 -0.4771 -0.4754
10599TIP3    H153288   3.244   5.081  10.872  0.5970 -0.5666 -1.8939
10599TIP3    H253289   3.231   5.211  10.796 -0.7105  0.1577 -0.4887
10600TIP3   OH253290   3.508   1.379   3.780  0.1053 -0.1606 -0.0780
10600TIP3    H153291   3.511   1.474   3.787 -2.5312 -0.0428  0.3836
10600TIP3    H253292   3.542   1.359   3.693  0.0151  1.2587 -0.4469
10601TIP3   OH253293   3.813   5.053   0.428 -0.2383 -0.2669 -0.3108
10601TIP3    H153294   3.724   5.084   0.412 -0.4865 -0.4847  0.5952
10601TIP3    H253295   3.858   5.129   0.465 -1.1070 -1.1338  2.8243
10602TIP3   OH253296   3.324   2.518   0.735 -0.1396  0.6331 -0.3974
10602TIP3    H153297   3.357   2.452   0.795 -0.7818 -1.2909 -2.0775
10602TIP3    H253298   3.258   2.566   0.785  0.6566  0.3265  0.9756
10603TIP3   OH253299   2.523   4.468  11.657  0.1703  0.1335  0.0509
10603TIP3    H153300   2.429   4.482  11.648 -0.1130 -1.2346  0.6828
10603TIP3    H253301   2.545   4.507  11.742 -0.2913 -1.5040  0.9820
10604TIP3   OH253302   1.350   1.119  14.781 -0.6312 -0.3128 -0.5310
10604TIP3    H153303   1.329   1.103  14.872  0.0934 -1.7519 -0.5885
10604TIP3    H253304   1.438   1.158  14.783  0.2356 -2.1728 -0.6742
10605TIP3   OH253305   6.436   0.587   5.664 -0.5049  0.0332 -0.1926
10605TIP3    H153306   6.498   0.590   5.737 -2.5143  0.0520  1.6140
10605TIP3    H253307   6.470   0.518   5.607  1.2005  0.1002  0.6681
10606TIP3   OH253308   4.519   5.991   1.620 -0.0181 -0.1010  0.0790
10606TIP3    H153309   4.478   5.924   1.564  0.6797  1.4199 -2.4203
10606TIP3    H253310   4.526   6.068   1.563 -0.7234  2.1242  2.8088
10607TIP3   OH253311   2.678   4.746  13.257 -0.0526  0.5003  0.0762
10607TIP3    H153312   2.591   4.786  13.249 -1.1949 -1.3897  2.0937
10607TIP3    H253313   2.685   4.722  13.349  1.8256 -1.1109 -0.4257
10608TIP3   OH253314   2.454   1.692  13.822  0.1280 -0.7223 -0.0437
10608TIP3    H153315   2.510   1.758  13.781 -0.8943  0.3177  0.1956
10608TIP3    H253316   2.366   1.711  13.789 -0.3276 -1.3710  0.7643
10609TIP3   OH253317   5.091   6.714  14.465 -0.5978  0.5729  0.0341
10609TIP3    H153318   5.164   6.773  14.444 -1.4587  1.7121  0.1595
10609TIP3    H253319   5.025   6.733  14.399 -0.3004 -1.4045 -0.8810
10610TIP3   OH253320   3.967   2.851   1.663 -0.5657  0.3339 -0.4187
10610TIP3    H153321   3.882   2.892   1.647  0.8936  2.8794 -2.4902
10610TIP3    H253322   3.985   2.800   1.584 -0.3989 -0.7214  0.2761
10611TIP3   OH253323   6.664   4.441   0.340  0.5081  0.3979 -0.2787
10611TIP3    H153324   6.703   4.471   0.422 -0.0573  3.1205 -0.9007
10611TIP3    H253325   6.694   4.505   0.275 -2.6680  0.9865 -1.3074
10612TIP3   OH253326   2.177   2.979   5.344  0.7713  0.3802  0.4534
10612TIP3    H153327   2.113   3.034   5.390 -1.8669  0.3862 -2.8319
10612TIP3    H253328   2.216   3.036   5.278  0.8584 -0.6984 -0.4700
10613TIP3   OH253329   2.524   0.312  14.347  0.0062 -0.0063  0.2350
10613TIP3    H153330   2.523   0.381  14.280 -0.7588  0.6127  0.8649
10613TIP3    H253331   2.606   0.264  14.331  0.5102  0.9918 -0.2630
10614TIP3   OH253332   1.548   1.029   3.242  0.0012 -0.2280  0.3067
10614TIP3    H153333   1.502   1.110   3.262 -3.2153 -1.2704 -1.8908
10614TIP3    H253334   1.545   0.978   3.323 -0.7901  0.6451  0.8355
10615TIP3   OH253335   2.435   4.089   3.063  0.3685 -0.3844 -0.1787
10615TIP3    H153336   2.498   4.129   3.003 -0.4053  2.5185  0.8246
10615TIP3    H253337   2.358   4.072   3.009  0.6351 -0.3423 -0.5787
10616TIP3   OH253338   2.447   0.229  15.785 -0.1716  0.4265 -0.0986
10616TIP3    H153339   2.508   0.175  15.835  0.1296 -0.0132 -0.9104
10616TIP3    H253340   2.410   0.290  15.849  0.3692  0.0361  0.6011
10617TIP3   OH253341   0.347   2.283   5.989  0.0751 -0.2156 -0.0680
10617TIP3    H153342   0.397   2.349   6.036  0.4583 -1.9802  2.1989
10617TIP3    H253343   0.255   2.307   6.004  0.2109  0.3724 -0.1692
10618TIP3   OH253344   3.028   1.105   4.405 -0.0758  0.0633 -0.3995
10618TIP3    H153345   2.936   1.080   4.392  0.0965 -0.0966 -1.4055
10618TIP3    H253346   3.044   1.172   4.339  0.2397  0.8608  0.4742
10619TIP3   OH253347   4.209   6.600   1.846 -0.1064  0.4392 -0.5720
10619TIP3    H153348   4.123   6.626   1.813 -0.4547  1.1999  0.8427
10619TIP3    H253349   4.256   6.682   1.858 -0.4476  0.3614  1.9096
10620TIP3   OH253350   2.491   1.882  14.408  0.1971 -0.6865 -0.2365
10620TIP3    H153351   2.549   1.941  14.455  1.6516 -2.0008 -0.2809
10620TIP3    H253352   2.442   1.938  14.348 -0.5872  0.8106  1.7095
10621TIP3   OH253353   2.253   1.314  13.076  0.2618  0.4515 -0.2851
10621TIP3    H153354   2.212   1.312  12.990 -1.3476  1.3353  0.4271
10621TIP3    H253355   2.210   1.385  13.122  0.9278 -0.1441  1.3457
10622TIP3   OH253356   5.165   2.586  15.067  0.0150 -0.2639 -0.3326
10622TIP3    H153357   5.080   2.579  15.110  1.5265 -0.0105  2.9679
10622TIP3    H253358   5.174   2.679  15.046 -1.6172 -0.6638 -3.4762
10623TIP3   OH253359   6.140   4.534   0.505  0.3007  0.2037  0.4937
10623TIP3    H153360   6.118   4.621   0.536 -0.6544  0.5405 -1.0106
10623TIP3    H253361   6.235   4.527   0.516  0.3902  1.4578  0.5757
10624TIP3   OH253362   5.949   5.658   2.067  0.0432  0.4443 -0.2908
10624TIP3    H153363   5.936   5.588   2.132  0.4905  0.2726 -0.3793
10624TIP3    H253364   5.974   5.611   1.987  0.6551  0.7209 -0.2681
10625TIP3   OH253365   4.570   6.398  11.421 -0.2178  0.0606  0.2807
10625TIP3    H153366   4.549   6.443  11.502 -1.7421 -1.3667  0.7417
10625TIP3    H253367   4.658   6.429  11.398  0.0668  0.8338  2.2209
10626TIP3   OH253368   0.857   4.925  10.212 -0.3186 -0.0507  0.0669
10626TIP3    H153369   0.808   4.918  10.130  1.1952 -0.9257 -0.8119
10626TIP3    H253370   0.843   4.841  10.255 -0.2276 -0.0083  0.1784
10627TIP3   OH253371   1.240   0.813   2.143  0.5127 -0.8198  0.0611
10627TIP3    H153372   1.175   0.854   2.200 -1.0974 -0.2887 -2.0318
10627TIP3    H253373   1.301   0.885   2.121 -0.7502 -0.1454 -1.4294
10628TIP3   OH253374   5.660   0.469   3.603 -0.6764  0.2019  0.4471
10628TIP3    H153375   5.698   0.549   3.638 -0.5118  0.3449 -0.0480
10628TIP3    H253376   5.569   0.492   3.584 -1.0108 -0.1229  1.5751
10629TIP3   OH253377   5.554   0.270  17.143  0.0536  0.0353  0.3529
10629TIP3    H153378   5.501   0.338  17.184  1.0107  0.5834  0.7171
10629TIP3    H253379   5.495   0.195  17.135  0.1717 -0.6890  4.1968
10630TIP3   OH253380   5.878   4.498   0.745  0.4798 -0.2087  0.0967
10630TIP3    H153381   5.822   4.550   0.803  0.3063 -0.4504  0.1458
10630TIP3    H253382   5.846   4.518   0.657  1.7415  1.3641 -0.0405
10631TIP3   OH253383   0.097   3.288  15.710  0.1103  0.2526 -0.3217
10631TIP3    H153384   0.190   3.297  15.692  0.2078 -1.4577 -0.8423
10631TIP3    H253385   0.053   3.322  15.632  0.2018  2.3639  0.4709
10632TIP3   OH253386   2.329   0.267   4.655  0.3734  0.5450 -0.1278
10632TIP3    H153387   2.307   0.185   4.610 -0.7336  0.0629  1.2022
10632TIP3    H253388   2.274   0.333   4.613 -1.4817 -0.0992  1.1204
10633TIP3   OH253389   4.593   1.163   2.604 -0.3684  0.5238  0.6304
10633TIP3    H153390   4.536   1.196   2.535 -0.0646  1.2997  0.7369
10633TIP3    H253391   4.678   1.149   2.560 -0.7549 -1.1632  0.3398
10634TIP3   OH253392   1.631   3.240  16.487  0.1399  0.0672  0.2522
10634TIP3    H153393   1.698   3.184  16.447 -0.4767  0.5814 -1.6330
10634TIP3    H253394   1.671   3.327  16.488 -0.6995  0.5362 -1.6186
10635TIP3   OH253395   2.157   6.736   5.348 -0.0366 -0.2729  0.3031
10635TIP3    H153396   2.101   6.802   5.388 -0.0660  0.6971 -1.2515
10635TIP3    H253397   2.245   6.757   5.381 -0.2638 -0.4734  1.0669
10636TIP3   OH253398   1.846   3.994  16.288 -0.4647  0.6534  0.6755
10636TIP3    H153399   1.930   4.004  16.331  0.2741  0.4123 -0.6414
10636TIP3    H253400   1.784   3.975  16.358  0.8148 -0.4685  1.5382
10637TIP3   OH253401   2.323   3.180  16.639 -0.0356 -0.0228 -0.5659
10637TIP3    H153402   2.266   3.255  16.659  0.3684  0.3135 -0.6530
10637TIP3    H253403   2.315   3.169  16.544  0.5613  0.4595 -0.6805
10638TIP3   OH253404   2.133   6.541  16.087 -0.3578 -0.4613  0.0015
10638TIP3    H153405   2.128   6.635  16.069  0.8235  0.1495  2.3411
10638TIP3    H253406   2.223   6.528  16.119 -1.0749 -1.9925  1.5577
10639TIP3   OH253407   3.358   4.551  11.035  0.1385 -0.1200 -0.1646
10639TIP3    H153408   3.269   4.571  11.006  1.2518 -0.2488 -4.3704
10639TIP3    H253409   3.408   4.630  11.018  1.4751 -1.1822 -1.4716
10640TIP3   OH253410   4.135   4.971   4.420  0.4138 -0.1372 -0.1699
10640TIP3    H153411   4.064   4.977   4.484  0.8286  0.5786  0.2226
10640TIP3    H253412   4.211   5.008   4.464  0.6357  0.6419 -1.1785
10641TIP3   OH253413   3.584   6.400   1.463 -0.2960  0.4335 -0.2642
10641TIP3    H153414   3.618   6.488   1.446 -2.3986  0.8893 -2.7697
10641TIP3    H253415   3.531   6.409   1.542  0.7768  1.0027  0.4166
10642TIP3   OH253416   6.188   3.142  14.574  0.3761 -0.1541  0.9070
10642TIP3    H153417   6.162   3.234  14.571 -0.6638 -0.4486 -1.3293
10642TIP3    H253418   6.113   3.097  14.612 -0.4812 -0.4073 -0.9674
10643TIP3   OH253419   6.114   4.628  12.048  0.0296  0.2890 -0.1258
10643TIP3    H153420   6.207   4.618  12.028  0.2367  1.6327  0.0826
10643TIP3    H253421   6.081   4.685  11.978 -0.6251 -0.1045 -0.1467
10644TIP3   OH253422   4.442   4.856  14.193 -0.0103  0.1152 -0.0188
10644TIP3    H153423   4.524   4.906  14.202  0.5604 -0.0340 -3.1768
10644TIP3    H253424   4.460   4.773  14.236  1.5700  0.0410 -0.7427
10645TIP3   OH253425   2.789   4.968   0.819  0.1747 -0.3974  0.4084
10645TIP3    H153426   2.780   5.034   0.888  2.1656  1.4191 -0.9586
10645TIP3    H253427   2.878   4.936   0.828  0.2663 -0.5772 -0.9322
10646TIP3   OH253428   6.163   4.989   0.988 -0.0208 -0.5732 -1.1159
10646TIP3    H153429   6.103   4.996   0.914 -0.1506  1.2342 -0.8954
10646TIP3    H253430   6.249   4.981   0.948 -0.1292 -0.0121 -1.4825
10647TIP3   OH253431   3.662   3.052   6.127  0.1172  0.2969 -0.1427
10647TIP3    H153432   3.590   3.006   6.168 -0.2056 -0.0595 -1.0819
10647TIP3    H253433   3.620   3.112   6.065  0.6058 -2.2380 -3.1816
10648TIP3   OH253434   6.776   3.959  16.014 -0.1331 -0.1947  0.5770
10648TIP3    H153435   6.864   3.958  15.977 -0.6940  0.3560 -0.8352
10648TIP3    H253436   6.718   3.967  15.938 -1.4212 -0.8271  1.4603
10649TIP3   OH253437   6.188   3.343   1.532  0.1225  0.6400  0.0780
10649TIP3    H153438   6.160   3.257   1.499 -1.3652  1.1088  0.0377
10649TIP3    H253439   6.229   3.385   1.457 -1.0760  0.7649 -0.5430
10650TIP3   OH253440   5.843   5.789  15.043  0.5233  0.2105  0.1478
10650TIP3    H153441   5.821   5.824  14.957 -2.8398 -1.2120  0.2874
10650TIP3    H253442   5.770   5.813  15.099  1.8936 -0.2189  2.2717
10651TIP3   OH253443   0.881   5.104  11.189 -0.4384 -0.1608 -0.1759
10651TIP3    H153444   0.903   5.019  11.150  1.2614  0.2870 -0.2658
10651TIP3    H253445   0.866   5.162  11.115 -0.3179 -0.0675 -0.1269
10652TIP3   OH253446   1.685   3.300  15.657 -0.6061 -0.1913  0.0135
10652TIP3    H153447   1.669   3.253  15.739 -2.1238 -0.1443 -0.2164
10652TIP3    H253448   1.660   3.391  15.677 -1.1896 -0.2238 -0.5460
10653TIP3   OH253449   2.840   4.968   5.277  0.0725 -0.0154  0.6452
10653TIP3    H153450   2.898   5.044   5.275  0.0059  0.0274 -0.8914
10653TIP3    H253451   2.898   4.893   5.289  0.5253  0.0058 -1.0931
10654TIP3   OH253452   0.160   3.165   0.156 -0.0260 -0.4668 -0.5124
10654TIP3    H153453   0.081   3.191   0.203  0.5943  0.5227  0.0498
10654TIP3    H253454   0.152   3.071   0.144 -0.9298 -0.4945  0.2032
10655TIP3   OH253455   4.569   0.652   1.521  0.5507  0.3315 -0.3430
10655TIP3    H153456   4.630   0.709   1.567 -0.5371  1.9685 -0.8488
10655TIP3    H253457   4.554   0.696   1.437 -1.8711  0.4100  0.0473
10656TIP3   OH253458   3.246   3.404   2.383 -0.7057 -0.3061  0.0496
10656TIP3    H153459   3.247   3.349   2.461  0.5319 -0.3789 -0.0110
10656TIP3    H253460   3.178   3.469   2.401 -0.3457 -0.2478  1.2490
10657TIP3   OH253461   1.306   2.752  16.662  0.3016  0.1776  0.3177
10657TIP3    H153462   1.350   2.698  16.728 -0.0426  1.6995  1.8374
10657TIP3    H253463   1.213   2.739  16.678  0.2110  0.3775 -0.0296
10658TIP3   OH253464   4.504   2.424   5.463 -0.3196  0.4204 -0.5957
10658TIP3    H153465   4.482   2.452   5.374  2.7181  1.5433 -1.0990
10658TIP3    H253466   4.569   2.355   5.452 -0.8757 -0.3765  0.7823
10659TIP3   OH253467   0.466   0.155   5.133  0.1376  0.0969 -1.0029
10659TIP3    H153468   0.511   0.201   5.204  4.6232 -3.0533 -1.3716
10659TIP3    H253469   0.407   0.094   5.177  0.5440  0.3207 -0.1350
10660TIP3   OH253470   4.376   2.464  13.414  0.4868  0.8026 -1.1567
10660TIP3    H153471   4.365   2.372  13.437  1.3281  0.8362 -0.5612
10660TIP3    H253472   4.461   2.488  13.452 -0.1511  2.0860 -0.4681
10661TIP3   OH253473   0.365   1.047  14.905 -0.2249  0.0924  0.3726
10661TIP3    H153474   0.279   1.028  14.868  0.0546  0.3432 -0.4404
10661TIP3    H253475   0.422   1.057  14.828  0.8767 -1.6446  0.9156
10662TIP3   OH253476   5.030   4.945  14.707 -0.0242  0.1628  0.5613
10662TIP3    H153477   5.110   4.896  14.688 -0.2080 -0.6173  1.7182
10662TIP3    H253478   4.978   4.887  14.763  0.0580  1.9277  2.6179
10663TIP3   OH253479   3.200   0.632  15.878  0.3369  0.0144  0.2126
10663TIP3    H153480   3.276   0.658  15.930  1.8155 -2.4791 -0.5378
10663TIP3    H253481   3.156   0.714  15.857  2.6062  1.5164  0.9904
10664TIP3   OH253482   4.202   2.331   3.530  0.4088 -0.3942  0.0305
10664TIP3    H153483   4.223   2.255   3.474 -0.1517  1.0321 -2.2526
10664TIP3    H253484   4.272   2.394   3.512 -0.5515  0.6407 -0.1945
10665TIP3   OH253485   6.213   2.210   6.379 -0.4231 -0.0222  0.6160
10665TIP3    H153486   6.234   2.127   6.422  0.9230  0.4645  0.9519
10665TIP3    H253487   6.276   2.272   6.415 -2.5646  1.6253  1.8354
10666TIP3   OH253488   4.773   0.991   2.194 -0.2633 -0.4272 -0.0752
10666TIP3    H153489   4.826   1.069   2.179  0.0368 -0.8224 -1.1087
10666TIP3    H253490   4.733   0.972   2.110  1.3325 -2.6154 -0.4358
10667TIP3   OH253491   2.885   1.398   1.692 -0.4971  0.1053 -0.2679
10667TIP3    H153492   2.950   1.412   1.760  1.4318  3.0574 -2.4788
10667TIP3    H253493   2.834   1.479   1.691 -0.8986 -0.1378 -1.8528
10668TIP3   OH253494   2.419   4.634  17.204  0.0043  0.3306 -0.8524
10668TIP3    H153495   2.493   4.693  17.191  0.3100 -0.0880 -1.0237
10668TIP3    H253496   2.344   4.681  17.167  0.2158  0.6786 -0.8442
10669TIP3   OH253497   0.307   3.695   3.418  0.2041 -0.0614  0.2570
10669TIP3    H153498   0.312   3.781   3.460  0.6973 -0.4057  0.9354
10669TIP3    H253499   0.284   3.713   3.327 -1.0208  0.7012  0.7073
10670TIP3   OH253500   2.841   4.835  15.710 -0.9616  0.1568  0.4266
10670TIP3    H153501   2.811   4.925  15.697 -1.8455 -0.0812  0.7236
10670TIP3    H253502   2.770   4.781  15.674 -2.5465 -0.4959  4.0060
10671TIP3   OH253503   3.246   5.072  13.900 -0.1357 -0.0767 -0.5687
10671TIP3    H153504   3.266   5.073  13.806  0.0447  0.3660 -0.5288
10671TIP3    H253505   3.179   5.139  13.910  1.0085  1.0624 -0.1411
10672TIP3   OH253506   0.650   0.164  14.147  0.7625 -0.0252  0.0621
10672TIP3    H153507   0.739   0.137  14.124  0.8252 -1.6884  1.9686
10672TIP3    H253508   0.654   0.182  14.241 -1.3962 -2.6881  0.8090
10673TIP3   OH253509   5.590   5.271  15.204 -0.4985 -0.8560 -0.1439
10673TIP3    H153510   5.552   5.204  15.260  0.7074 -2.0403 -0.6942
10673TIP3    H253511   5.685   5.263  15.217 -0.1751 -1.0552 -2.1769
10674TIP3   OH253512   4.653   4.692   0.647  0.1728 -0.4382 -0.0351
10674TIP3    H153513   4.727   4.699   0.706  1.0551 -1.1714 -1.0211
10674TIP3    H253514   4.584   4.651   0.700  0.6466 -0.2658  0.7239
10675TIP3   OH253515   0.722   0.513   5.433 -0.0183  0.5616  0.3116
10675TIP3    H153516   0.783   0.440   5.432 -0.3665  0.1776  2.4090
10675TIP3    H253517   0.776   0.591   5.421  0.4253  0.0274 -1.3505
10676TIP3   OH253518   2.810   2.354  13.211 -0.0730 -0.1101 -0.2392
10676TIP3    H153519   2.874   2.394  13.271 -1.3365  1.0829  0.3676
10676TIP3    H253520   2.826   2.397  13.127  0.4360 -0.4031 -0.2983
10677TIP3   OH253521   6.222   0.800  12.325 -0.0621  0.7720 -0.0895
10677TIP3    H153522   6.186   0.715  12.350  2.3045 -0.0221  0.8596
10677TIP3    H253523   6.204   0.806  12.231  0.1456 -1.0113 -0.2851
10678TIP3   OH253524   6.165   1.877   6.367 -0.4461  0.3841  0.1368
10678TIP3    H153525   6.111   1.928   6.306 -1.4490  1.5022  1.8881
10678TIP3    H253526   6.255   1.902   6.346 -0.5619 -1.0512 -2.4363
10679TIP3   OH253527   0.648   4.081   3.307  0.2943 -0.4674  0.6614
10679TIP3    H153528   0.646   3.995   3.265  2.1953 -0.0899 -0.3278
10679TIP3    H253529   0.734   4.086   3.348  0.3749  1.0797  0.3797
10680TIP3   OH253530   3.141   4.616   0.453  0.1640 -0.4801 -0.9079
10680TIP3    H153531   3.048   4.597   0.455  0.3729 -1.4556  0.4554
10680TIP3    H253532   3.147   4.702   0.410 -1.5039  0.4156  0.5062
10681TIP3   OH253533   3.822   1.002   4.463  0.6391  0.3566 -0.1860
10681TIP3    H153534   3.752   1.025   4.403 -1.3323 -0.4711  1.6774
10681TIP3    H253535   3.815   0.907   4.473  1.2701  0.4127  0.9153
10682TIP3   OH253536   5.455   0.500   0.856 -0.4058 -0.5153 -0.2616
10682TIP3    H153537   5.523   0.489   0.790 -1.2161 -0.2349 -1.1771
10682TIP3    H253538   5.481   0.578   0.904  0.7819 -1.3605  0.5145
10683TIP3   OH253539   3.915   4.149  17.016  0.4925  0.1369  0.4866
10683TIP3    H153540   3.993   4.202  17.033 -1.1982  1.9917  3.4105
10683TIP3    H253541   3.920   4.077  17.078 -0.0116  0.1567  0.5585
10684TIP3   OH253542   6.720   0.070   5.723  0.4081 -0.2754  0.6914
10684TIP3    H153543   6.776  -0.007   5.716  0.5899 -0.0351 -0.9975
10684TIP3    H253544   6.775   0.143   5.694 -0.2333  0.2308  0.7191
10685TIP3   OH253545   1.526   1.645   1.846 -0.3519 -0.1277 -0.2559
10685TIP3    H153546   1.470   1.712   1.808  0.5614  1.9214  1.8125
10685TIP3    H253547   1.605   1.646   1.791 -1.4872 -1.7666 -2.0715
10686TIP3   OH253548   4.399   3.134  10.579  0.1135  0.0413  0.1941
10686TIP3    H153549   4.358   3.220  10.585  1.0058  0.3946  1.9012
10686TIP3    H253550   4.357   3.083  10.648  0.6866 -0.3854  0.2396
10687TIP3   OH253551   4.749   3.388  11.128  0.2278 -0.5221 -0.0480
10687TIP3    H153552   4.761   3.361  11.037 -0.9811  0.9334 -0.6737
10687TIP3    H253553   4.675   3.337  11.159 -0.6095  0.3790 -0.5185
10688TIP3   OH253554   1.603   2.187   3.853 -0.9122  0.3185 -0.1158
10688TIP3    H153555   1.527   2.177   3.911 -0.3475 -1.4466  0.3904
10688TIP3    H253556   1.672   2.136   3.896 -0.0874  0.0868 -1.6716
10689TIP3   OH253557   2.686   2.541   5.753 -0.2682  0.1660  0.1631
10689TIP3    H153558   2.751   2.575   5.691 -0.3001 -1.1156 -0.6190
10689TIP3    H253559   2.734   2.478   5.806  0.2080  2.5593  2.7650
10690TIP3   OH253560   5.299   4.361   5.164 -0.0363  0.2168 -0.3040
10690TIP3    H153561   5.324   4.281   5.117 -1.1582 -1.5040  1.8974
10690TIP3    H253562   5.204   4.366   5.155 -0.2592 -0.0630  1.5659
10691TIP3   OH253563   4.489   3.296   0.334 -0.1488 -0.5097  0.1566
10691TIP3    H153564   4.466   3.228   0.398  0.7631  0.2772  1.3538
10691TIP3    H253565   4.529   3.248   0.262  3.0579 -1.1272  2.1625
10692TIP3   OH253566   0.294   3.312  11.933  0.1823  0.2730  0.0906
10692TIP3    H153567   0.237   3.328  11.858 -1.5491  0.4507  1.3967
10692TIP3    H253568   0.354   3.244  11.903 -0.9372 -0.1835 -1.2150
10693TIP3   OH253569   5.132   3.571  15.025  0.1582 -0.2193 -0.8428
10693TIP3    H153570   5.179   3.502  14.978  2.1979 -0.5039  1.3868
10693TIP3    H253571   5.041   3.561  14.999  0.1857 -4.3185 -0.0815
10694TIP3   OH253572   3.178   3.041   0.309  0.3178  0.2490 -0.3488
10694TIP3    H153573   3.128   3.024   0.228 -0.2740  2.0263 -0.4096
10694TIP3    H253574   3.172   2.959   0.358 -2.0387  0.1144 -0.7132
10695TIP3   OH253575   6.438   5.226   4.614 -0.1549  0.2125 -0.2897
10695TIP3    H153576   6.373   5.249   4.548  0.0304  2.1259  0.1570
10695TIP3    H253577   6.503   5.296   4.611 -0.4026  0.6702  2.2649
10696TIP3   OH253578   6.592   1.180   6.643 -0.3574  0.4969 -0.7599
10696TIP3    H153579   6.503   1.215   6.640 -0.6457 -0.0338  0.8696
10696TIP3    H253580   6.632   1.224   6.719  0.2348 -0.4713 -0.5020
10697TIP3   OH253581   3.977   6.441   3.265 -0.4256  0.3065  0.0886
10697TIP3    H153582   3.982   6.356   3.309  2.7275  0.5849  0.5148
10697TIP3    H253583   3.898   6.482   3.301  0.0007 -0.9689  2.7746
10698TIP3   OH253584   2.400   0.952  13.495  0.1688  0.2154  0.7387
10698TIP3    H153585   2.420   1.039  13.530  0.6184  0.4517 -0.0806
10698TIP3    H253586   2.310   0.960  13.462  0.7575  0.8866 -0.8310
10699TIP3   OH253587   1.378   3.011  14.229  0.1709  0.1665 -0.1578
10699TIP3    H153588   1.310   3.067  14.191  0.8354 -0.6586 -2.7275
10699TIP3    H253589   1.330   2.952  14.288 -1.2429  0.1342 -1.2836
10700TIP3   OH253590   0.774   6.507   2.678 -0.2798  1.0961 -0.3918
10700TIP3    H153591   0.800   6.425   2.635  0.2064  0.6730  0.6662
10700TIP3    H253592   0.856   6.557   2.684 -0.1085  0.6871  0.9940
10701TIP3   OH253593   2.089   3.152  13.958  0.7041  0.0606  0.2610
10701TIP3    H153594   2.068   3.142  13.865  2.0059 -0.6531  0.0250
10701TIP3    H253595   2.012   3.117  14.004  0.1017  0.3060 -0.5319
10702TIP3   OH253596   6.251   5.566   4.459  0.5161 -0.1057  0.2785
10702TIP3    H153597   6.287   5.580   4.372 -0.5340  0.5077 -0.0655
10702TIP3    H253598   6.231   5.473   4.462  2.3685 -0.5474  0.5935
10703TIP3   OH253599   3.971   5.448   1.961 -0.5263 -0.0170 -0.0525
10703TIP3    H153600   4.013   5.496   1.889  1.6790 -0.4688  0.8670
10703TIP3    H253601   4.028   5.373   1.976 -1.1834 -0.1666  1.8866
10704TIP3   OH253602   1.341   0.895   3.118  0.1460 -0.2169  0.1437
10704TIP3    H153603   1.414   0.946   3.153  1.0510 -1.5296  0.2210
10704TIP3    H253604   1.315   0.942   3.039  1.8083 -0.3117 -0.5041
10705TIP3   OH253605   1.584   5.451   4.156  0.1417 -0.5537  0.2671
10705TIP3    H153606   1.616   5.467   4.068 -1.8967  1.1681 -0.2383
10705TIP3    H253607   1.611   5.528   4.207  1.1963 -1.4727  1.1657
10706TIP3   OH253608   2.139   5.081  14.471  0.1383 -0.0244  0.3124
10706TIP3    H153609   2.164   5.058  14.381  1.1090 -0.4142  0.6719
10706TIP3    H253610   2.044   5.072  14.472 -0.0645  1.3737 -1.0698
10707TIP3   OH253611   2.066   6.361   4.243  0.0367  0.3464  0.1989
10707TIP3    H153612   2.031   6.395   4.325  1.3877  1.9406  0.1709
10707TIP3    H253613   2.156   6.333   4.265  0.5042  1.0338 -0.7705
10708TIP3   OH253614   3.350   1.828   0.425 -0.6051 -0.6353 -0.0598
10708TIP3    H153615   3.334   1.741   0.388 -0.5858 -0.8398  0.4140
10708TIP3    H253616   3.265   1.855   0.459 -1.2800  0.6435 -2.5008
10709TIP3   OH253617   0.710   3.851  16.409  0.7998  0.0660  0.0910
10709TIP3    H153618   0.706   3.758  16.431 -0.0332 -0.1191 -0.7214
10709TIP3    H253619   0.623   3.884  16.432  0.8623  0.4768 -0.2497
10710TIP3   OH253620   2.456   6.310   0.398 -0.6340  0.8609 -0.1985
10710TIP3    H153621   2.372   6.288   0.359 -1.2704  1.2113  0.9354
10710TIP3    H253622   2.435   6.336   0.487  0.8158 -0.4526  0.5868
10711TIP3   OH253623   6.076   4.865   3.610 -0.2917  0.4998 -0.9307
10711TIP3    H153624   5.996   4.826   3.575  0.6273 -1.0489 -1.3934
10711TIP3    H253625   6.050   4.954   3.636 -2.3550 -0.2415 -0.2521
10712TIP3   OH253626   6.013   5.915  15.345 -0.2843  0.0118  0.2114
10712TIP3    H153627   5.967   5.846  15.394 -0.5359 -1.4137 -1.9122
10712TIP3    H253628   5.943   5.961  15.298  0.2274 -1.0472 -1.6722
10713TIP3   OH253629   1.359   0.559  14.501  0.5661  0.0342 -0.4918
10713TIP3    H153630   1.295   0.535  14.568  1.3528  0.1388  0.3142
10713TIP3    H253631   1.403   0.477  14.480 -0.9293 -0.3886 -2.2904
10714TIP3   OH253632   0.557   1.452   4.456 -0.0741  0.2720  0.3475
10714TIP3    H153633   0.535   1.541   4.483 -0.3712 -0.1591  1.5662
10714TIP3    H253634   0.508   1.395   4.515  0.8261 -0.7049  0.1991
10715TIP3   OH253635   5.123   5.128   4.152  0.4614  0.5728 -0.4229
10715TIP3    H153636   5.218   5.138   4.157  0.5410 -0.2014 -0.2008
10715TIP3    H253637   5.110   5.048   4.100 -0.0021 -0.3371  1.0135
10716TIP3   OH253638   5.001   4.478  14.996 -0.3442 -0.5175  0.2670
10716TIP3    H153639   5.047   4.395  15.011 -0.6335 -0.2596  3.4152
10716TIP3    H253640   4.908   4.456  15.005 -0.5253 -0.1461 -0.6535
10717TIP3   OH253641   4.341   2.507   1.233  0.2931  0.5382 -0.3951
10717TIP3    H153642   4.302   2.436   1.283  0.4974  2.1819  2.3267
10717TIP3    H253643   4.434   2.507   1.260  0.7373  0.6217 -1.8667
10718TIP3   OH253644   0.966   6.275  14.773 -0.4942 -0.3490  0.1042
10718TIP3    H153645   1.046   6.234  14.804 -0.5464 -1.0218 -0.6018
10718TIP3    H253646   0.963   6.359  14.818 -1.0193 -1.5937  2.5628
10719TIP3   OH253647   6.442   6.434  16.683  0.2864  0.0549  0.3013
10719TIP3    H153648   6.418   6.520  16.718  0.2455  0.2086 -0.1010
10719TIP3    H253649   6.491   6.392  16.754  0.5585  0.5221  0.3919
10720TIP3   OH253650   0.072   4.116  15.628  0.2210 -0.4135  0.3167
10720TIP3    H153651   0.018   4.194  15.616  0.8384 -0.0598 -0.1799
10720TIP3    H253652   0.067   4.070  15.545 -0.0255 -0.8393  0.5611
10721TIP3   OH253653   5.311   4.101  13.606  0.1801  0.2506 -0.3645
10721TIP3    H153654   5.317   4.154  13.526  1.1462  1.1669  0.2873
10721TIP3    H253655   5.396   4.112  13.649 -0.7442  0.8193  1.4308
10722TIP3   OH253656   5.322   3.811   3.919  0.3554  0.9533  0.0354
10722TIP3    H153657   5.320   3.818   3.824  3.4958 -1.2071 -0.3467
10722TIP3    H253658   5.393   3.869   3.947  1.5715 -0.7319  0.6318
10723TIP3   OH253659   1.690   4.469   2.504  0.0907  0.3119  0.8376
10723TIP3    H153660   1.696   4.518   2.422  0.1162 -0.9922  0.0363
10723TIP3    H253661   1.781   4.451   2.527  0.0436 -0.4552  0.4421
10724TIP3   OH253662   0.834   1.437  11.280  0.0570  0.9789 -0.6403
10724TIP3    H153663   0.869   1.347  11.278  0.7589  1.2245 -0.0719
10724TIP3    H253664   0.772   1.437  11.353  0.5393  1.1067 -0.2152
10725TIP3   OH253665   4.889   4.470  14.308  0.3045  0.5432  0.4929
10725TIP3    H153666   4.944   4.396  14.282  0.8756  0.7423  1.1103
10725TIP3    H253667   4.905   4.537  14.241  0.0133  0.2324  0.1008
10726TIP3   OH253668   6.206   5.984  16.278  0.2371 -0.1504  0.4304
10726TIP3    H153669   6.242   5.931  16.349  0.4726 -0.3861  0.1360
10726TIP3    H253670   6.186   6.069  16.319  3.0449  0.7367  0.1826
10727TIP3   OH253671   0.198   2.014  12.636  0.1107  0.4315 -0.1502
10727TIP3    H153672   0.227   1.997  12.546  0.7413 -1.1575  0.3089
10727TIP3    H253673   0.117   1.963  12.645 -0.0832  0.7833  0.1078
10728TIP3   OH253674   6.404   6.044  11.459  0.1482  0.2346  0.3528
10728TIP3    H153675   6.382   5.960  11.420 -1.0359  0.4292  0.5500
10728TIP3    H253676   6.411   6.026  11.553  0.2319  0.2992  0.3598
10729TIP3   OH253677   4.223   3.132   5.522 -0.1640  0.1598 -0.2221
10729TIP3    H153678   4.228   3.160   5.431  0.8532  1.4330  0.2078
10729TIP3    H253679   4.273   3.050   5.524  0.7898  0.7195 -0.5940
10730TIP3   OH253680   4.898   4.900   5.805  0.2837  0.3740 -0.0393
10730TIP3    H153681   4.991   4.876   5.808 -0.3025 -2.0481  0.6239
10730TIP3    H253682   4.852   4.818   5.789 -1.6532  1.8577 -3.3166
10731TIP3   OH253683   3.583   5.026  16.759  0.3002  0.3472 -0.1886
10731TIP3    H153684   3.648   4.974  16.806  1.9718  2.2739 -0.2378
10731TIP3    H253685   3.592   5.000  16.667  2.1542  1.6576 -0.4285
10732TIP3   OH253686   0.133   6.277  13.704 -0.0327 -0.3196 -0.8456
10732TIP3    H153687   0.077   6.199  13.708  0.0152 -0.3710 -1.1957
10732TIP3    H253688   0.220   6.244  13.727 -0.6227  0.2890  3.1054
10733TIP3   OH253689   5.337   1.342  16.906  0.0087  0.7793 -0.3013
10733TIP3    H153690   5.252   1.341  16.950  0.4986  1.4013  0.7164
10733TIP3    H253691   5.372   1.254  16.921  0.3315  1.0904  0.9501
10734TIP3   OH253692   0.199   3.691  15.146 -0.0911  0.1115  0.4620
10734TIP3    H153693   0.222   3.707  15.054  1.1731  0.7782  0.8677
10734TIP3    H253694   0.274   3.644  15.182 -0.3917  0.2302  1.2693
10735TIP3   OH253695   1.958   5.590  13.254  1.0372 -0.3966  0.5598
10735TIP3    H153696   1.926   5.522  13.195  0.5727 -1.0187  1.5018
10735TIP3    H253697   1.987   5.660  13.196 -1.6552  0.0395 -0.4100
10736TIP3   OH253698   0.824   2.919   1.575 -0.1946 -0.0571 -0.4021
10736TIP3    H153699   0.777   2.931   1.492 -0.2066  0.4685 -0.3256
10736TIP3    H253700   0.901   2.976   1.566 -0.5285  0.5048  0.2017
10737TIP3   OH253701   5.532   6.205  11.488  0.3212 -0.3327  0.5925
10737TIP3    H153702   5.508   6.145  11.418 -0.1313 -0.7176  1.0705
10737TIP3    H253703   5.540   6.291  11.445 -0.5659 -0.4465  0.1896
10738TIP3   OH253704   1.572   5.232   2.160 -0.8665  0.4389  0.3469
10738TIP3    H153705   1.591   5.148   2.118 -2.1793 -0.0395  0.6587
10738TIP3    H253706   1.609   5.224   2.248  0.2500  0.7467 -0.0674
10739TIP3   OH253707   2.810   2.736  17.014 -0.0031  0.3754  0.1113
10739TIP3    H153708   2.827   2.642  17.010  0.8540  0.5493 -0.5750
10739TIP3    H253709   2.743   2.752  16.947  1.4953  0.5787 -1.3962
10740TIP3   OH253710   2.923   0.969  16.556  0.8838  0.0236  0.3554
10740TIP3    H153711   3.003   0.985  16.507  1.2122 -1.5269  0.3479
10740TIP3    H253712   2.870   0.913  16.499 -0.0756  0.7485  0.4965
10741TIP3   OH253713   4.501   6.226   1.513 -0.5483 -0.1133  0.0304
10741TIP3    H153714   4.452   6.281   1.574  1.1451  1.7857 -0.2326
10741TIP3    H253715   4.466   6.249   1.427 -0.9521 -0.6731  0.0390
10742TIP3   OH253716   1.415   5.701  17.092  0.2780 -0.6386  0.1359
10742TIP3    H153717   1.322   5.721  17.098  0.3602 -0.1777 -0.0727
10742TIP3    H253718   1.440   5.677  17.181  0.1965  0.3206  0.4342
10743TIP3   OH253719   2.959   3.758  16.919  0.5528  0.4991 -0.3993
10743TIP3    H153720   3.026   3.720  16.976  0.6049  2.1960  0.7115
10743TIP3    H253721   2.977   3.852  16.919 -1.2832  0.8838 -0.8073
10744TIP3   OH253722   6.303   2.114  11.948 -0.4584  0.0714 -0.3506
10744TIP3    H153723   6.363   2.188  11.961  0.2160 -0.4082 -0.6332
10744TIP3    H253724   6.345   2.062  11.879 -1.5113  0.0346 -0.9893
10745TIP3   OH253725   3.706   2.264  15.120  0.1190  0.3327  0.1543
10745TIP3    H153726   3.676   2.192  15.175  1.9044  0.5826  1.5659
10745TIP3    H253727   3.780   2.301  15.168  0.7069  1.6407 -1.6499
10746TIP3   OH253728   4.075   0.011   2.387 -0.4613 -0.0423 -0.1662
10746TIP3    H153729   4.079   0.069   2.463 -0.1565 -2.3866  1.7013
10746TIP3    H253730   4.104   0.066   2.314  1.8274  1.6208  1.8285
10747TIP3   OH253731   2.283   4.227  16.354 -0.4103  0.4651 -0.5155
10747TIP3    H153732   2.283   4.322  16.364 -1.0248  0.2738  1.8170
10747TIP3    H253733   2.306   4.194  16.440 -1.3754 -1.5266 -0.9664
10748TIP3   OH253734   6.229   6.355   0.527  0.0724  1.0467  0.6402
10748TIP3    H153735   6.320   6.368   0.500 -0.2938  0.6038 -0.9421
10748TIP3    H253736   6.200   6.278   0.478 -0.9585  0.7616  1.6457
10749TIP3   OH253737   5.054   5.174  16.722 -0.0659  0.3297  0.2299
10749TIP3    H153738   5.080   5.082  16.731  1.7626  0.6313 -1.2512
10749TIP3    H253739   5.037   5.202  16.811  1.8838 -0.8036  1.0396
10750TIP3   OH253740   4.908   4.931   4.733  0.1975  0.2654  0.3313
10750TIP3    H153741   4.956   4.918   4.815 -0.0634  1.0748  0.6255
10750TIP3    H253742   4.843   4.999   4.754  2.0332  2.7254 -1.2839
10751TIP3   OH253743   3.448   0.168   4.371  0.1469  0.1226 -0.0226
10751TIP3    H153744   3.469   0.227   4.298 -1.6325  1.1527  0.2518
10751TIP3    H253745   3.355   0.149   4.361  0.6052 -2.4940  0.0566
10752TIP3   OH253746   0.864   2.126  14.559  0.4623 -0.2544 -0.2725
10752TIP3    H153747   0.848   2.203  14.505  0.0917 -0.6704 -0.7665
10752TIP3    H253748   0.836   2.152  14.647  0.5095  0.2300 -0.3972
10753TIP3   OH253749   5.558   6.303  16.159 -0.4649 -0.5364  0.0594
10753TIP3    H153750   5.563   6.220  16.112  0.2773  0.6782 -2.2208
10753TIP3    H253751   5.468   6.333  16.147 -0.2168 -0.1199 -0.8661
10754TIP3   OH253752   4.651   4.561  16.533 -0.5459 -0.1720 -0.0449
10754TIP3    H153753   4.573   4.596  16.491 -0.0259  0.1869 -0.7200
10754TIP3    H253754   4.641   4.466  16.529  0.6265 -0.2649 -3.2315
10755TIP3   OH253755   0.118   3.249   1.251  0.3457 -0.2556 -0.2574
10755TIP3    H153756   0.096   3.337   1.220  1.2310 -0.1085 -0.4785
10755TIP3    H253757   0.110   3.193   1.174 -2.1132 -0.7388  0.2711
10756TIP3   OH253758   5.805   5.102  16.201 -0.2180 -0.1575 -0.0804
10756TIP3    H153759   5.841   5.169  16.259  1.1838 -0.3391 -0.7098
10756TIP3    H253760   5.879   5.046  16.179 -0.7813 -0.3228 -1.7324
10757TIP3   OH253761   4.748   0.395   3.994  0.0276  0.1557 -0.1363
10757TIP3    H153762   4.820   0.428   4.049  0.9646  1.2797 -1.9355
10757TIP3    H253763   4.764   0.301   3.988  0.7895  0.2508  0.2652
10758TIP3   OH253764   5.141   2.758  13.535  0.4737 -0.3266  0.4846
10758TIP3    H153765   5.072   2.825  13.534 -1.7028 -2.4145  1.1837
10758TIP3    H253766   5.206   2.791  13.596  1.2073  2.6547 -1.6790
10759TIP3   OH253767   5.781   1.875  14.293 -0.1930 -0.3904 -0.0641
10759TIP3    H153768   5.783   1.834  14.207 -1.5023  1.8377 -1.2420
10759TIP3    H253769   5.690   1.905  14.303 -0.4017 -1.6493  2.6575
10760TIP3   OH253770   4.509   3.519  15.553  0.2178 -0.2791  0.1220
10760TIP3    H153771   4.564   3.475  15.487 -0.8562  1.7507 -2.3127
10760TIP3    H253772   4.431   3.464  15.559 -0.0864 -0.0264 -1.0865
10761TIP3   OH253773   6.134   2.847   3.526 -0.4263 -0.5114  0.7570
10761TIP3    H153774   6.085   2.927   3.508 -0.3938 -0.6278  0.1220
10761TIP3    H253775   6.177   2.863   3.610 -1.2080 -0.2423  1.1145
10762TIP3   OH253776   3.925   3.002  13.735  0.1761 -0.2814  0.6661
10762TIP3    H153777   3.907   3.053  13.655 -0.3030  0.3552  1.1647
10762TIP3    H253778   3.844   2.956  13.753  0.7740 -1.6604 -0.0736
10763TIP3   OH253779   5.361   1.059   5.628 -0.9245  0.4324 -1.2164
10763TIP3    H153780   5.322   1.072   5.542  0.4938  1.5800 -1.7363
10763TIP3    H253781   5.329   1.132   5.681  0.0243  1.0709 -1.4887
10764TIP3   OH253782   3.625   0.861  14.356 -0.2682  0.4363 -0.1872
10764TIP3    H153783   3.575   0.780  14.352 -0.4226  0.4310  1.2038
10764TIP3    H253784   3.714   0.837  14.329 -0.7239  0.1972 -1.5084
10765TIP3   OH253785   4.591   5.382   3.896 -0.5296 -0.2323 -0.1763
10765TIP3    H153786   4.558   5.471   3.887 -0.3777 -0.3051 -1.6259
10765TIP3    H253787   4.613   5.374   3.989  0.4128  1.5550 -0.2140
10766TIP3   OH253788   3.456   1.999  16.420  0.4477  0.0780 -0.2180
10766TIP3    H153789   3.373   1.953  16.412 -0.2788  1.0788  1.0658
10766TIP3    H253790   3.499   1.957  16.494  1.1769 -0.5418 -0.9790
10767TIP3   OH253791   6.821   6.577  14.363  0.0108  0.5649 -0.2048
10767TIP3    H153792   6.829   6.619  14.277 -2.5095  0.7643 -0.4349
10767TIP3    H253793   6.746   6.621  14.403  0.4032 -0.3587  1.6169
10768TIP3   OH253794   3.740   5.269   3.285 -0.6775  0.5825 -0.7382
10768TIP3    H153795   3.835   5.273   3.274 -0.5030  0.7837  0.6541
10768TIP3    H253796   3.716   5.181   3.255  0.0165  0.3493 -0.6196
10769TIP3   OH253797   3.719   2.376   2.172  0.1335 -0.4004 -0.6022
10769TIP3    H153798   3.632   2.336   2.180  0.6264 -1.2367  0.9632
10769TIP3    H253799   3.703   2.461   2.131 -1.4423 -0.4630 -0.1802
10770TIP3   OH253800   5.671   2.877  17.002  0.0980  0.2288  0.2494
10770TIP3    H153801   5.644   2.932  17.075  1.3416  1.0126  0.1455
10770TIP3    H253802   5.594   2.874  16.944 -1.0120 -0.6533  1.6920
10771TIP3   OH253803   3.318   5.190   2.283 -0.3228 -0.4606 -0.1297
10771TIP3    H153804   3.248   5.248   2.314 -1.1367  0.1431 -2.8283
10771TIP3    H253805   3.279   5.143   2.209  1.1610 -2.5317  0.3396
10772TIP3   OH253806   6.581   2.768   4.235  0.4678  0.4623 -0.1150
10772TIP3    H153807   6.655   2.821   4.206 -0.2347  0.8214 -1.3558
10772TIP3    H253808   6.591   2.761   4.330  1.8566  0.8350 -0.2134
10773TIP3   OH253809   3.903   2.839  12.712  0.2541  0.0814 -0.5159
10773TIP3    H153810   3.812   2.810  12.720  0.2007  0.5447  0.8326
10773TIP3    H253811   3.899   2.920  12.662 -0.0264 -0.0794 -0.7582
10774TIP3   OH253812   1.036   1.094  14.368 -0.0622 -0.0752  0.5715
10774TIP3    H153813   0.956   1.103  14.317  0.1640 -0.2378  0.1853
10774TIP3    H253814   1.025   1.011  14.415  0.1973 -0.4630 -0.0489
10775TIP3   OH253815   4.937   5.974  15.117  1.1451  0.3305 -0.0329
10775TIP3    H153816   4.906   6.009  15.033  0.7754  1.4338  0.5437
10775TIP3    H253817   4.993   5.901  15.092 -0.2430 -0.4133 -1.1891
10776TIP3   OH253818   1.587   0.117   0.354  0.7017 -0.3069 -0.4515
10776TIP3    H153819   1.491   0.126   0.351  0.2049 -3.5976  0.9497
10776TIP3    H253820   1.611   0.092   0.265 -0.2302 -2.2983 -0.2106
10777TIP3   OH253821   2.057   1.118  11.157  0.6560  0.3846  0.0784
10777TIP3    H153822   2.102   1.189  11.112  1.4630  0.5249  1.0604
10777TIP3    H253823   2.125   1.051  11.169 -0.2576 -0.8981 -1.4703
10778TIP3   OH253824   5.325   1.437  13.662  0.3094 -0.4880 -0.2480
10778TIP3    H153825   5.255   1.395  13.712  0.1309  0.7005  0.5582
10778TIP3    H253826   5.310   1.409  13.572 -2.2392  0.9663 -0.4056
10779TIP3   OH253827   1.869   6.587  12.769  0.6615  0.5022 -0.0914
10779TIP3    H153828   1.867   6.581  12.674  0.7309  1.5395 -0.1726
10779TIP3    H253829   1.777   6.594  12.795  0.6739  0.9252 -0.1472
10780TIP3   OH253830   1.185   4.199   2.129 -0.0114  0.1742  0.5092
10780TIP3    H153831   1.191   4.240   2.043  1.5721 -0.6727  0.1581
10780TIP3    H253832   1.156   4.109   2.111  0.5504 -0.0774  0.8186
10781TIP3   OH253833   2.630   3.805  11.404  0.1715 -0.6625 -0.0260
10781TIP3    H153834   2.605   3.880  11.458  1.6726 -0.0187 -0.1499
10781TIP3    H253835   2.606   3.830  11.315 -2.1120 -1.6372  0.2518
10782TIP3   OH253836   6.246   2.362  17.203 -0.3801 -0.1289  0.1897
10782TIP3    H153837   6.216   2.288  17.150 -1.9112  0.7676 -0.2753
10782TIP3    H253838   6.294   2.417  17.141  0.2947 -0.4640  0.4102
10783TIP3   OH253839   6.382   0.057   5.449 -0.8397  0.6281 -0.3969
10783TIP3    H153840   6.318  -0.013   5.460  0.5605 -0.8833 -1.3688
10783TIP3    H253841   6.413   0.077   5.537  0.6721 -1.9292 -0.2592
10784TIP3   OH253842   5.111   6.746  12.254 -0.8184  0.3915  0.2193
10784TIP3    H153843   5.072   6.773  12.171 -0.2992 -0.2413 -0.2375
10784TIP3    H253844   5.080   6.811  12.317 -0.6292  1.2997 -0.6042
10785TIP3   OH253845   6.435   5.432   2.643 -0.0780  0.0931 -0.2591
10785TIP3    H153846   6.424   5.337   2.651 -1.5959  0.3282  0.8163
10785TIP3    H253847   6.364   5.460   2.587  1.4060  0.4285 -2.0677
10786TIP3   OH253848   3.934   1.521   0.579  0.7515 -0.5625 -0.0144
10786TIP3    H153849   3.973   1.474   0.506 -0.8672 -0.5150 -0.9476
10786TIP3    H253850   3.840   1.516   0.564  0.3140 -1.1893  2.4738
10787TIP3   OH253851   3.015   5.208   3.625  0.1257  0.8071  0.0991
10787TIP3    H153852   3.022   5.163   3.541  1.5748  1.8200 -0.3674
10787TIP3    H253853   3.091   5.266   3.627 -0.0754  1.0595  1.9664
10788TIP3   OH253854   2.202   4.170  15.187  0.2734  0.5456 -0.3988
10788TIP3    H153855   2.181   4.171  15.280 -0.2882  3.9857 -0.4330
10788TIP3    H253856   2.239   4.083  15.172  0.4656 -0.1112  3.0235
10789TIP3   OH253857   0.579   1.908  13.339  0.1561 -0.4171 -0.1504
10789TIP3    H153858   0.553   1.999  13.324  0.3159 -0.2734  0.4132
10789TIP3    H253859   0.577   1.898  13.434  2.4564 -0.2868 -0.0249
10790TIP3   OH253860   0.120   5.225  16.360  0.3651 -0.1043  0.2329
10790TIP3    H153861   0.179   5.162  16.401 -0.4470 -1.4106 -0.5097
10790TIP3    H253862   0.078   5.175  16.289  0.2713  1.4978 -0.9005
10791TIP3   OH253863   3.761   1.481  15.384 -0.5504  0.5191  0.2439
10791TIP3    H153864   3.692   1.526  15.336 -2.3755  1.8693  3.7365
10791TIP3    H253865   3.827   1.460  15.318 -2.9264  1.8287 -2.7962
10792TIP3   OH253866   0.733   0.994   0.873 -0.5853 -0.4400  0.2811
10792TIP3    H153867   0.812   0.953   0.908 -0.1869  0.7574  0.8303
10792TIP3    H253868   0.765   1.059   0.811 -1.2357 -1.5306 -1.2578
10793TIP3   OH253869   3.032   3.376   6.546 -0.2254 -0.1045 -0.1669
10793TIP3    H153870   3.110   3.427   6.525 -1.0898  1.6687  0.7000
10793TIP3    H253871   3.064   3.286   6.553  2.0281  0.7018  1.3785
10794TIP3   OH253872   0.030   4.009   3.415  0.0768 -0.0707 -0.1504
10794TIP3    H153873  -0.062   3.999   3.391 -1.3183  0.4332  4.1163
10794TIP3    H253874   0.058   3.921   3.440  0.9072 -0.2527 -1.5769
10795TIP3   OH253875   3.579   4.629  13.530  0.0864  0.0398 -0.2082
10795TIP3    H153876   3.492   4.596  13.509 -0.5208  1.3046  0.2408
10795TIP3    H253877   3.568   4.678  13.612  1.4637 -0.7868  0.5249
10796TIP3   OH253878   6.508   5.517  10.694  0.1238 -0.2127  0.1454
10796TIP3    H153879   6.441   5.473  10.746 -1.1681  0.7387 -0.6681
10796TIP3    H253880   6.504   5.608  10.721  0.6076 -0.0193 -0.4122
10797TIP3   OH253881   1.670   3.587  12.487 -0.5277 -0.2921 -0.6100
10797TIP3    H153882   1.689   3.592  12.581 -1.7008 -0.2391 -0.3609
10797TIP3    H253883   1.617   3.509  12.477 -0.6392 -0.1465 -1.1964
10798TIP3   OH253884   2.645   2.784  15.981 -0.0124 -0.7135  0.1819
10798TIP3    H153885   2.709   2.712  15.972 -0.3901 -1.0379  0.0482
10798TIP3    H253886   2.580   2.750  16.042 -0.0303 -0.3635  0.3548
10799TIP3   OH253887   4.202   6.329  16.498  0.4761 -0.2672 -0.2395
10799TIP3    H153888   4.184   6.410  16.451 -0.8435 -1.2898 -1.5858
10799TIP3    H253889   4.137   6.327  16.568  0.7890  0.0362  0.0620
10800TIP3   OH253890   5.117   5.432  12.816 -0.1036 -0.1059 -0.3901
10800TIP3    H153891   5.107   5.373  12.890 -0.1502 -0.3964 -0.6238
10800TIP3    H253892   5.211   5.451  12.813 -0.1179  0.0018 -0.1890
10801TIP3   OH253893   6.727   4.340   6.263  0.1626  0.2585  0.1388
10801TIP3    H153894   6.727   4.432   6.289  0.2375  0.4658 -0.5588
10801TIP3    H253895   6.795   4.300   6.316 -0.3114  0.4639  0.9124
10802TIP3   OH253896   3.556   1.036   0.761 -0.4198  0.0789  0.0781
10802TIP3    H153897   3.466   1.052   0.733 -0.4870 -0.5204 -0.0670
10802TIP3    H253898   3.609   1.051   0.683 -0.1769  2.2300  0.5968
10803TIP3   OH253899   5.266   1.258   3.292 -0.0044  0.5778 -0.2194
10803TIP3    H153900   5.201   1.192   3.315  0.6937 -0.0123  0.0751
10803TIP3    H253901   5.329   1.212   3.236  1.5793  0.4405  1.5975
10804TIP3   OH253902   1.268   1.403   2.327  0.1664  0.1821 -0.0132
10804TIP3    H153903   1.325   1.336   2.289  2.7971  2.3805 -0.2274
10804TIP3    H253904   1.243   1.459   2.254  0.1793  0.9310  0.5416
10805TIP3   OH253905   3.755   3.965   3.652  0.1820 -0.1676 -0.9646
10805TIP3    H153906   3.849   3.974   3.665  0.2996 -3.1344  0.9418
10805TIP3    H253907   3.746   3.903   3.579 -0.2413 -1.1223 -0.1202
10806TIP3   OH253908   3.221   2.813  16.010  0.6379  0.0831  0.1898
10806TIP3    H153909   3.172   2.759  16.072  0.5982 -0.3090 -0.1687
10806TIP3    H253910   3.169   2.808  15.929  0.4425  0.9648  0.2547
10807TIP3   OH253911   4.614   3.161  13.370 -0.7268  0.2969  0.0627
10807TIP3    H153912   4.669   3.191  13.442 -1.4211  1.5671  0.0898
10807TIP3    H253913   4.554   3.097  13.410  0.3181 -0.6664  0.1435
10808TIP3   OH253914   2.270   3.660   3.623 -0.1521  0.0047  0.2782
10808TIP3    H153915   2.222   3.742   3.629  1.2805  0.8374  0.9044
10808TIP3    H253916   2.353   3.678   3.666  0.7378 -1.3715 -0.7783
10809TIP3   OH253917   2.438   1.600  17.010  0.2912 -0.4678  0.0287
10809TIP3    H153918   2.373   1.536  16.982 -0.2781  0.8410 -1.8234
10809TIP3    H253919   2.387   1.674  17.041  0.8894  0.1496 -0.4265
10810TIP3   OH253920   5.815   6.787   2.489  0.2660 -0.0590  0.0100
10810TIP3    H153921   5.772   6.717   2.537  1.4938 -0.5273  0.4784
10810TIP3    H253922   5.777   6.867   2.525  1.5811 -0.3699  2.3038
10811TIP3   OH253923   1.002   1.061   0.804 -0.3533  0.2435  0.0722
10811TIP3    H153924   1.067   1.065   0.875 -1.8791 -0.6752  1.6081
10811TIP3    H253925   1.031   0.989   0.749 -0.2173 -0.3707  0.9196
10812TIP3   OH253926   3.584   6.636   0.407 -0.2971  0.3598 -0.0733
10812TIP3    H153927   3.605   6.729   0.417  0.5040 -0.0087  2.2186
10812TIP3    H253928   3.511   6.621   0.466 -0.6614 -0.4065 -0.7023
10813TIP3   OH253929   6.052   0.810   3.020 -0.1257 -0.4795  0.0395
10813TIP3    H153930   6.007   0.894   3.019 -1.4005 -1.1365 -0.8590
10813TIP3    H253931   6.110   0.815   3.096 -1.1389  0.7204  0.7850
10814TIP3   OH253932   6.109   1.115   2.109  0.0432  0.5485  0.2313
10814TIP3    H153933   6.123   1.065   2.028 -0.2841  0.7387  0.0517
10814TIP3    H253934   6.020   1.149   2.100  0.6006  1.9654 -0.0856
10815TIP3   OH253935   2.783   2.103   3.652  1.0294 -0.2861 -0.1590
10815TIP3    H153936   2.792   2.176   3.591  1.6919 -0.5884 -0.4300
10815TIP3    H253937   2.721   2.135   3.718 -0.2766 -0.2216 -1.3703
10816TIP3   OH253938   4.786   6.677  12.607 -0.1051 -0.1079 -0.3804
10816TIP3    H153939   4.857   6.614  12.599 -0.2517 -0.3125 -0.0752
10816TIP3    H253940   4.710   6.625  12.634  0.0800  0.3622  1.1649
10817TIP3   OH253941   0.651   1.952   0.590 -0.2341  0.2694 -0.4236
10817TIP3    H153942   0.601   1.972   0.511 -0.0319  0.5291 -0.4871
10817TIP3    H253943   0.730   2.006   0.583 -0.5021  0.7655  0.2584
10818TIP3   OH253944   0.753   2.513  17.163  0.4270  0.3907 -0.4928
10818TIP3    H153945   0.764   2.596  17.210  1.4599 -0.0056  0.0026
10818TIP3    H253946   0.659   2.497  17.163  0.2277  1.4757 -0.4501
10819TIP3   OH253947   5.347   1.283  11.784  0.6911 -0.3795 -0.5015
10819TIP3    H153948   5.335   1.376  11.768 -0.0642  0.1645  2.6028
10819TIP3    H253949   5.424   1.278  11.841  0.3182 -1.5539 -0.0641
10820TIP3   OH253950   5.892   5.442  13.021 -0.1427 -0.3149 -0.4800
10820TIP3    H153951   5.867   5.373  12.959 -1.2575 -1.4875  1.2065
10820TIP3    H253952   5.864   5.410  13.106 -1.1074  2.4214  0.3338
10821TIP3   OH253953   5.480   2.487   1.021  0.4353  0.6241  0.0435
10821TIP3    H153954   5.466   2.579   1.042  0.5258  0.0996  2.8556
10821TIP3    H253955   5.573   2.482   0.998  1.1853  0.9139  2.6265
10822TIP3   OH253956   5.607   4.567   0.142  0.1767 -0.2254 -0.0231
10822TIP3    H153957   5.522   4.524   0.131  0.9789 -1.9604  0.2281
10822TIP3    H253958   5.585   4.659   0.156 -1.6272 -0.5338 -0.5066
10823TIP3   OH253959   5.518   4.284   2.182 -0.1019 -0.1662  0.2054
10823TIP3    H153960   5.539   4.247   2.096  0.1166  0.1830  0.1063
10823TIP3    H253961   5.584   4.352   2.196  0.4587 -0.8667  1.0771
10824TIP3   OH253962   6.480   5.050  16.177 -0.3377 -0.4485  0.3513
10824TIP3    H153963   6.507   5.085  16.092  2.9469 -1.2342  0.9378
10824TIP3    H253964   6.483   4.955  16.166 -1.3870 -0.5641  0.9545
10825TIP3   OH253965   1.023   0.979  10.897  0.2806  0.4852 -0.2367
10825TIP3    H153966   1.001   0.924  10.822  0.6229 -0.1412  0.1041
10825TIP3    H253967   1.119   0.984  10.896  0.3185  0.0917  0.4042
10826TIP3   OH253968   5.990   5.363   1.294  0.5950  0.2346 -0.1462
10826TIP3    H153969   6.031   5.327   1.216  0.4853 -0.4928  0.1289
10826TIP3    H253970   6.009   5.300   1.363 -0.0481  0.4326  0.2237
10827TIP3   OH253971   4.814   0.103  14.511 -0.4076 -0.3195  0.1562
10827TIP3    H153972   4.852   0.057  14.436 -1.0384 -0.1512 -0.2785
10827TIP3    H253973   4.883   0.103  14.577 -0.3810 -1.8647  0.1602
10828TIP3   OH253974   3.358   2.305   5.711  0.2604 -0.0543  0.2017
10828TIP3    H153975   3.438   2.295   5.763  0.1531  0.2057  0.4229
10828TIP3    H253976   3.375   2.383   5.658  0.3891 -0.3495 -0.1870
10829TIP3   OH253977   2.214   0.459   1.561  0.4025 -0.3512  0.5217
10829TIP3    H153978   2.290   0.514   1.543  1.0159 -1.6157 -1.0780
10829TIP3    H253979   2.221   0.387   1.497 -0.3926 -2.2338  2.4215
10830TIP3   OH253980   3.099   4.362  16.297 -0.0413  0.2281  0.5534
10830TIP3    H153981   3.025   4.346  16.239  0.1063 -1.6622  0.8060
10830TIP3    H253982   3.069   4.330  16.382  1.0371 -0.5449  0.6577
10831TIP3   OH253983   3.135   0.773   4.690  0.1749 -0.3333 -0.1132
10831TIP3    H153984   3.175   0.697   4.648 -1.1368 -0.3204 -1.4375
10831TIP3    H253985   3.206   0.810   4.744  1.2516 -1.6291 -0.5777
10832TIP3   OH253986   4.358   2.596   1.646  0.4992  0.4228 -0.7448
10832TIP3    H153987   4.285   2.534   1.643  0.3300  0.5259  0.6333
10832TIP3    H253988   4.421   2.556   1.705  1.0864  0.8442 -1.0777
10833TIP3   OH253989   6.317   4.483  11.546 -0.4822 -0.1759 -0.0883
10833TIP3    H153990   6.351   4.394  11.538 -0.9872 -0.2085 -2.4548
10833TIP3    H253991   6.230   4.472  11.583 -1.0048 -0.7917 -1.4545
10834TIP3   OH253992   4.231   2.778  16.581  0.2383  0.6016 -0.4741
10834TIP3    H153993   4.320   2.786  16.547 -0.0352  0.4391 -1.2496
10834TIP3    H253994   4.174   2.797  16.506 -0.3930  2.0142  0.3251
10835TIP3   OH253995   2.003   5.238  12.216  0.3532  0.5510  0.0586
10835TIP3    H153996   2.092   5.273  12.212 -0.0257  1.5851  0.4285
10835TIP3    H253997   1.993   5.208  12.307  1.0087 -1.4972 -0.4814
10836TIP3   OH253998   1.852   2.809  11.034 -0.3528  0.3739 -0.4951
10836TIP3    H153999   1.846   2.731  10.979  1.5945 -1.4810  1.7066
10836TIP3    H254000   1.865   2.881  10.971 -1.2147 -1.1657 -2.5512
10837TIP3   OH254001   6.254   5.708   5.822 -0.0533  0.5984  0.2206
10837TIP3    H154002   6.214   5.625   5.798  0.1421  0.3714  0.6789
10837TIP3    H254003   6.189   5.774   5.796 -0.9662  0.2117  1.4191
10838TIP3   OH254004   1.946   4.649   4.871 -0.3355 -0.2977  0.0688
10838TIP3    H154005   2.014   4.605   4.821  0.4936  0.5238  0.4356
10838TIP3    H254006   1.990   4.725   4.909 -1.3464 -0.0109  0.7051
10839TIP3   OH254007   3.956   0.070   3.906  0.5220 -0.3488 -0.9475
10839TIP3    H154008   4.046   0.048   3.882  0.5176 -0.5868 -0.7476
10839TIP3    H254009   3.903   0.005   3.861  0.4296 -0.0402 -1.2885
10840TIP3   OH254010   4.055   4.077   5.542 -0.3576  0.3936 -0.0783
10840TIP3    H154011   4.128   4.018   5.522 -0.4935  0.0866  0.3260
10840TIP3    H254012   3.976   4.026   5.521 -0.4557  1.5308 -2.8263
10841TIP3   OH254013   6.235   1.055   0.658  0.4766  0.0930  1.0597
10841TIP3    H154014   6.197   0.985   0.711 -2.6260  1.3324  0.6655
10841TIP3    H254015   6.208   1.035   0.568  0.7153  1.0632  0.7511
10842TIP3   OH254016   6.515   5.675  12.690  0.3042  1.0451  0.0402
10842TIP3    H154017   6.475   5.744  12.744  1.3948  0.6673  1.3782
10842TIP3    H254018   6.607   5.701  12.682  0.4694  0.3475 -0.4365
10843TIP3   OH254019   5.606   6.214  10.932 -0.4053 -0.3695  0.7144
10843TIP3    H154020   5.684   6.168  10.963 -0.4364 -0.6770  0.3405
10843TIP3    H254021   5.608   6.298  10.978  0.4242 -0.1610  0.3245
10844TIP3   OH254022   0.935   0.412  14.066  0.4587  0.3225  0.7025
10844TIP3    H154023   0.945   0.433  14.159 -0.7340  0.9849  0.7042
10844TIP3    H254024   0.903   0.494  14.027 -2.6560 -0.9211  0.3912
10845TIP3   OH254025   1.866   0.821   5.922 -0.1410  0.4342  0.1336
10845TIP3    H154026   1.930   0.846   5.989  1.5224  0.5445 -1.4055
10845TIP3    H254027   1.917   0.770   5.859 -1.3181  1.4338 -1.7053
10846TIP3   OH254028   6.221   5.481   2.982 -0.2374  0.3485 -0.1195
10846TIP3    H154029   6.284   5.453   3.048  1.1576  2.4150 -0.4605
10846TIP3    H254030   6.149   5.418   2.989  2.0529 -2.5023 -0.0810
10847TIP3   OH254031   2.306   4.214  13.958 -1.0700  0.5010 -0.5081
10847TIP3    H154032   2.229   4.270  13.947 -0.7144  1.3626  1.0199
10847TIP3    H254033   2.277   4.128  13.929 -1.8547  1.3073 -2.2409
10848TIP3   OH254034   3.813   2.896  12.265 -0.1966  0.6409  1.0753
10848TIP3    H154035   3.772   2.825  12.314  1.8032 -1.4983 -0.1188
10848TIP3    H254036   3.904   2.898  12.297  0.2448  1.4662 -0.1466
10849TIP3   OH254037   0.158   4.849   3.737  0.3965  0.0998  0.4259
10849TIP3    H154038   0.167   4.792   3.661  1.3728  0.3807  0.3032
10849TIP3    H254039   0.073   4.828   3.775  0.5014 -1.0217  0.0569
10850TIP3   OH254040   4.978   0.510   4.717 -0.1437  0.5421  0.0054
10850TIP3    H154041   4.971   0.548   4.805 -1.8292 -0.0538  0.1827
10850TIP3    H254042   4.975   0.416   4.732 -1.2859  0.4426 -0.7179
10851TIP3   OH254043   0.442   4.541  12.237 -0.1200  0.4472 -0.3227
10851TIP3    H154044   0.414   4.566  12.149  0.9639 -0.3022 -0.9047
10851TIP3    H254045   0.495   4.614  12.267  0.8219  0.0411 -0.9449
10852TIP3   OH254046   3.870   6.000  16.092 -0.2156  0.5216  0.0909
10852TIP3    H154047   3.936   6.052  16.137 -0.8869  1.9657 -0.5140
10852TIP3    H254048   3.909   5.980  16.007 -0.3202  0.8913 -0.0479
10853TIP3   OH254049   3.774   4.223  11.546  0.3351  0.1586  0.3424
10853TIP3    H154050   3.723   4.222  11.627  0.8841  0.3500  0.6974
10853TIP3    H254051   3.865   4.227  11.576  0.5159  1.0145 -0.2992
10854TIP3   OH254052   5.962   4.660  15.470 -0.1357  0.0086  0.7225
10854TIP3    H154053   5.918   4.659  15.385  1.7610 -0.5896 -0.3130
10854TIP3    H254054   5.916   4.593  15.522 -2.1272  1.2608  0.6646
10855TIP3   OH254055   6.472   2.752  17.203 -0.0493  1.0038  0.2033
10855TIP3    H154056   6.420   2.826  17.171 -2.1746 -1.2462 -2.0790
10855TIP3    H254057   6.423   2.721  17.280 -1.4729 -0.2945 -1.1524
10856TIP3   OH254058   5.614   3.953   2.874  0.2000  0.2424 -0.6164
10856TIP3    H154059   5.535   3.904   2.898  0.2356  1.0649  1.4517
10856TIP3    H254060   5.580   4.032   2.831  0.0781 -0.8178 -2.5471
10857TIP3   OH254061   3.352   4.964   4.886  0.3764  0.1157 -0.7580
10857TIP3    H154062   3.268   4.962   4.840 -0.3290  0.9353  0.4385
10857TIP3    H254063   3.334   4.923   4.971  1.1326  0.4739 -0.4147
10858TIP3   OH254064   1.338   5.257  15.078 -0.0116  0.8348 -0.3717
10858TIP3    H154065   1.258   5.203  15.074  0.1832  0.5933 -3.2515
10858TIP3    H254066   1.310   5.337  15.123 -1.6308  0.3542 -0.4462
10859TIP3   OH254067   3.648   0.655  12.930 -0.1578 -0.4077 -0.0953
10859TIP3    H154068   3.577   0.713  12.902  0.2273  0.4669  0.6746
10859TIP3    H254069   3.605   0.571  12.946 -0.5646 -0.6171 -2.1323
10860TIP3   OH254070   1.111   2.316  10.148  0.0609  0.4387  0.0919
10860TIP3    H154071   1.087   2.230  10.180 -0.5952 -0.3516 -2.3118
10860TIP3    H254072   1.031   2.368  10.154  0.1091  0.4913  0.2992
10861TIP3   OH254073   6.206   2.003  12.160 -0.3709  0.2907 -0.5750
10861TIP3    H154074   6.110   2.010  12.161 -0.5116 -0.9324  2.1145
10861TIP3    H254075   6.231   2.034  12.073 -2.9999  2.9505 -0.5402
10862TIP3   OH254076   5.150   0.633   2.524 -0.3075  0.1620 -0.0293
10862TIP3    H154077   5.160   0.629   2.429  0.6799  0.3543  0.0563
10862TIP3    H254078   5.228   0.589   2.558  0.4489  1.9353  0.6955
10863TIP3   OH254079   0.062   0.367   4.816 -0.2795  0.2988 -0.1820
10863TIP3    H154080   0.081   0.274   4.807 -1.0866  0.0942  0.0527
10863TIP3    H254081   0.087   0.406   4.732  1.3388  0.1149  0.1906
10864TIP3   OH254082   2.373   5.941  10.756  0.5582  0.1592  0.0752
10864TIP3    H154083   2.287   5.934  10.798  0.6121  1.0463  0.3556
10864TIP3    H254084   2.365   6.017  10.698  0.9394 -0.1821 -0.4337
10865TIP3   OH254085   2.225   4.163   3.947  0.4451 -0.2810 -0.0186
10865TIP3    H154086   2.251   4.215   3.871 -1.0960  1.7524  0.7371
10865TIP3    H254087   2.134   4.188   3.963 -0.5177 -3.5105  0.2552
10866TIP3   OH254088   1.320   3.655   4.023  0.4163 -0.2883 -0.7555
10866TIP3    H154089   1.347   3.745   4.007  1.2359 -0.6902 -1.7450
10866TIP3    H254090   1.362   3.632   4.106  0.0104  0.2992 -0.3764
10867TIP3   OH254091   4.639   5.196  16.228  0.0328  0.4237 -0.0900
10867TIP3    H154092   4.696   5.224  16.157 -1.1112 -0.2889 -1.3538
10867TIP3    H254093   4.554   5.235  16.207  0.0054  1.4656  1.7428
10868TIP3   OH254094   1.621   6.065  10.259  0.1007 -0.4173  0.5287
10868TIP3    H154095   1.545   6.009  10.246 -1.5342  1.8971 -0.7164
10868TIP3    H254096   1.685   6.010  10.304 -1.7148 -2.9205  0.2288
10869TIP3   OH254097   3.772   3.995   2.462  0.4062 -0.2997 -0.0351
10869TIP3    H154098   3.692   3.946   2.442  1.1598 -1.8923  0.6962
10869TIP3    H254099   3.810   4.015   2.376 -0.4839 -0.0116 -0.3716
10870TIP3   OH254100   3.959   3.146   2.783 -0.3228 -0.1716 -0.5073
10870TIP3    H154101   3.965   3.191   2.867 -0.1963  0.2219 -0.7241
10870TIP3    H254102   4.050   3.133   2.756 -0.3667  0.4823 -0.9923
10871TIP3   OH254103   4.951   3.545  16.997 -0.4550 -0.6271  0.4171
10871TIP3    H154104   4.952   3.507  17.085 -2.0458 -0.5515  0.4907
10871TIP3    H254105   4.908   3.479  16.943  1.0386 -0.9406 -0.4721
10872TIP3   OH254106   0.055   3.366   2.211 -0.4187  0.3679 -0.2742
10872TIP3    H154107   0.081   3.319   2.290 -0.4812 -0.8075 -0.9218
10872TIP3    H254108   0.134   3.413   2.183 -0.2033  0.2366  0.1105
10873TIP3   OH254109   0.029   4.739   1.379 -1.0901  0.3147  0.5498
10873TIP3    H154110   0.089   4.737   1.453 -1.3264 -0.8189  0.7286
10873TIP3    H254111  -0.058   4.728   1.419 -1.2794  0.3593  0.1565
10874TIP3   OH254112   2.463   4.184   5.529  0.2611 -0.4697  0.2382
10874TIP3    H154113   2.533   4.126   5.558 -0.4626 -0.7901  1.4351
10874TIP3    H254114   2.480   4.267   5.575  1.1455  0.2218 -1.2657
10875TIP3   OH254115   1.769   4.904  17.116  0.2761  0.3702 -0.2812
10875TIP3    H154116   1.823   4.878  17.191 -0.0083  0.7825  0.0722
10875TIP3    H254117   1.820   4.878  17.039  2.1266  2.9245 -0.0386
10876TIP3   OH254118   2.731   4.724  16.344 -1.2683 -0.1386 -0.0518
10876TIP3    H154119   2.664   4.792  16.356  0.1553  1.3811 -0.4086
10876TIP3    H254120   2.726   4.704  16.250 -1.7822 -0.6615  0.0773
10877TIP3   OH254121   5.391   0.104  13.453  0.3829  0.2730  0.1880
10877TIP3    H154122   5.408   0.196  13.434 -2.4779  1.1131  1.1931
10877TIP3    H254123   5.355   0.103  13.542 -0.2407 -1.7327 -0.0267
10878TIP3   OH254124   1.948   6.025   4.437 -0.3302 -0.3771 -0.0466
10878TIP3    H154125   1.863   6.065   4.420  0.7550  0.8321 -3.5944
10878TIP3    H254126   1.969   5.978   4.356  2.5555 -0.2162  0.4964
10879TIP3   OH254127   4.597   3.069  13.958  0.3513 -0.3043  0.0135
10879TIP3    H154128   4.626   3.001  14.020 -0.8936 -0.3001  0.6145
10879TIP3    H254129   4.592   3.149  14.010 -0.9912 -0.3621  0.0042
10880TIP3   OH254130   1.254   5.915   2.969 -0.3301  0.2904  0.0547
10880TIP3    H154131   1.181   5.976   2.963 -0.2348  0.6357  1.8471
10880TIP3    H254132   1.326   5.966   3.004  1.1485  0.1978 -2.5709
10881TIP3   OH254133   5.635   2.480  14.952  0.3329 -0.4344  0.4896
10881TIP3    H154134   5.585   2.448  15.027  0.7412  1.1393  1.4667
10881TIP3    H254135   5.625   2.575  14.955 -1.1007 -0.3641 -2.4996
10882TIP3   OH254136   5.003   0.496  12.297  0.4295 -0.2762 -0.3304
10882TIP3    H154137   4.963   0.567  12.348 -1.0495 -1.9993  1.0235
10882TIP3    H254138   4.929   0.451  12.256  1.1187 -2.2401  0.4769
10883TIP3   OH254139   6.016   2.546  17.028 -0.2486 -0.2066  0.1022
10883TIP3    H154140   5.955   2.475  17.011  1.0596 -1.3288 -0.0270
10883TIP3    H254141   6.066   2.518  17.104  0.1603  0.6581  0.1685
10884TIP3   OH254142   1.242   4.418  16.554  0.3876 -0.5244  0.7637
10884TIP3    H154143   1.168   4.449  16.607  0.2038  0.0543  0.1753
10884TIP3    H254144   1.201   4.366  16.485  0.5609 -0.5044  0.6462
10885TIP3   OH254145   6.072   3.943  14.737  0.4926  0.2731 -0.6366
10885TIP3    H154146   6.149   3.941  14.793  0.1712 -0.6676 -0.2119
10885TIP3    H254147   6.102   3.902  14.655  0.7496  0.9520 -0.8909
10886TIP3   OH254148   4.589   0.971  15.520  0.1519  0.1669 -0.4378
10886TIP3    H154149   4.671   1.016  15.541  0.3926 -0.5703  0.2695
10886TIP3    H254150   4.528   1.041  15.497  0.8744  0.7514 -0.6060
10887TIP3   OH254151   4.210   1.402  15.240 -0.6091  0.3390 -0.1237
10887TIP3    H154152   4.235   1.405  15.332 -0.0025 -3.6088 -0.0054
10887TIP3    H254153   4.117   1.422  15.240 -0.4968  0.9874  1.2303
10888TIP3   OH254154   3.401   1.751   2.801  0.3613  0.0263  0.4640
10888TIP3    H154155   3.400   1.752   2.897  1.1673 -0.6511  0.4885
10888TIP3    H254156   3.368   1.837   2.776 -0.1999  0.0792  1.3469
10889TIP3   OH254157   5.655   2.564   2.103 -0.3983 -0.6186 -0.1514
10889TIP3    H154158   5.586   2.625   2.076 -1.6103 -2.5734 -1.8734
10889TIP3    H254159   5.728   2.584   2.045 -0.2446  0.1348  0.2924
10890TIP3   OH254160   1.527   3.516  15.595  0.2126 -0.1635 -0.9509
10890TIP3    H154161   1.562   3.599  15.561  3.9186 -0.9512  0.4946
10890TIP3    H254162   1.521   3.459  15.518 -1.0008  0.9406 -1.7233
10891TIP3   OH254163   0.168   4.373   0.224 -0.2936  0.8112  0.0639
10891TIP3    H154164   0.092   4.363   0.166  0.9387 -1.2786 -1.3091
10891TIP3    H254165   0.223   4.437   0.180 -0.5988  1.2767  0.3488
10892TIP3   OH254166   2.815   6.593  15.394 -0.7973  1.0789  0.0401
10892TIP3    H154167   2.893   6.552  15.432 -0.5563 -0.2226 -1.7532
10892TIP3    H254168   2.845   6.678  15.363  0.1040  0.3384 -1.1929
10893TIP3   OH254169   2.639   2.749   0.764  0.0559 -0.1091 -0.2866
10893TIP3    H154170   2.550   2.781   0.783 -0.8756 -1.2259 -2.4076
10893TIP3    H254171   2.674   2.725   0.850 -0.6806  2.7188  0.9278
10894TIP3   OH254172   2.234   4.358   2.872  0.5145 -0.0864 -0.1332
10894TIP3    H154173   2.279   4.432   2.913  0.2485 -0.5360  0.9953
10894TIP3    H254174   2.146   4.391   2.853 -0.5523 -0.8889  2.9471
10895TIP3   OH254175   0.305   1.228   5.361  0.6638  0.0333  0.3154
10895TIP3    H154176   0.322   1.313   5.319 -0.2890  0.6416  1.1201
10895TIP3    H254177   0.233   1.191   5.312  0.0875  0.3796  0.8823
10896TIP3   OH254178   1.107   5.857   5.066 -0.3255  0.6572  0.2547
10896TIP3    H154179   1.061   5.911   5.130 -1.2318 -0.2012  0.3572
10896TIP3    H254180   1.057   5.870   4.985  0.7251  1.6213 -0.2645
10897TIP3   OH254181   0.865   0.685  13.948  0.2238 -0.2081 -0.1645
10897TIP3    H154182   0.897   0.744  13.880  1.0371  0.1926  0.5343
10897TIP3    H254183   0.929   0.695  14.019 -0.6505 -0.5521  0.6826
10898TIP3   OH254184   0.028   1.464   3.184  0.1545  0.1337 -0.7191
10898TIP3    H154185   0.084   1.387   3.191  3.3306  2.3375  0.3652
10898TIP3    H254186   0.087   1.538   3.196 -2.8975  2.7634 -0.4957
10899TIP3   OH254187   5.428   0.234  14.222  0.4237 -0.1720  0.0027
10899TIP3    H154188   5.367   0.162  14.207 -0.4530  0.8846 -1.9191
10899TIP3    H254189   5.371   0.308  14.246  1.1656  0.2492  0.4983
10900TIP3   OH254190   3.659   5.916  17.201 -0.0674 -0.3466  0.0892
10900TIP3    H154191   3.578   5.966  17.195  0.7388  1.0850  0.7071
10900TIP3    H254192   3.656   5.856  17.127 -2.4975 -1.5780  1.0595
10901TIP3   OH254193   6.067   1.576   1.042  0.0774  0.3342 -0.2690
10901TIP3    H154194   6.052   1.648   0.981  0.5159 -0.7188 -1.6560
10901TIP3    H254195   6.152   1.539   1.016 -0.5410 -1.2360 -0.1777
10902TIP3   OH254196   6.109   4.637  11.111 -0.0759 -0.1323 -0.7731
10902TIP3    H154197   6.089   4.609  11.200 -0.8676  0.7149 -0.6740
10902TIP3    H254198   6.108   4.732  11.114 -0.1330 -0.0883 -1.6962
10903TIP3   OH254199   4.619   4.015   1.763 -0.6779 -0.1738  0.3423
10903TIP3    H154200   4.557   3.979   1.700  2.1255 -2.2339 -1.4470
10903TIP3    H254201   4.653   4.094   1.721  0.5242 -1.0551 -0.4129
10904TIP3   OH254202   0.395   4.499   4.059 -0.6291  0.0208 -0.4242
10904TIP3    H154203   0.391   4.409   4.026  0.8568 -0.0721 -0.4387
10904TIP3    H254204   0.444   4.546   3.992  1.2090  0.1529  0.9342
10905TIP3   OH254205   6.425   0.789  15.960 -0.4627 -0.2535 -0.5361
10905TIP3    H154206   6.367   0.765  16.032  0.7395  0.1064  0.5736
10905TIP3    H254207   6.473   0.865  15.991  0.8106 -0.7008 -1.3198
10906TIP3   OH254208   1.591   1.129   0.585 -0.2561 -0.0939  0.4753
10906TIP3    H154209   1.522   1.133   0.651 -0.7207 -0.1397  0.0019
10906TIP3    H254210   1.598   1.219   0.552 -0.0425 -0.0755  0.5699
10907TIP3   OH254211   1.729   1.295  12.970  0.9008  0.1706 -0.1598
10907TIP3    H154212   1.789   1.254  13.033 -0.4263  0.9531  1.6628
10907TIP3    H254213   1.691   1.369  13.016 -0.6398  0.3828 -1.6558
10908TIP3   OH254214   5.976   3.691   5.279  0.4365 -0.0187 -0.1674
10908TIP3    H154215   5.885   3.701   5.306  0.3553 -0.1959 -0.3772
10908TIP3    H254216   5.981   3.603   5.244  1.3082 -1.0769  2.3553
10909TIP3   OH254217   1.724   2.912  13.106  0.0685 -0.6550  0.4552
10909TIP3    H154218   1.684   2.995  13.131 -0.3486  0.3164 -2.8887
10909TIP3    H254219   1.816   2.921  13.129  0.1696  1.0841 -0.4924
10910TIP3   OH254220   6.529   3.397  16.180  0.3290 -0.2183  0.5619
10910TIP3    H154221   6.624   3.407  16.183  0.3551 -0.6260  1.4604
10910TIP3    H254222   6.515   3.311  16.141  0.1927  1.3903 -3.4218
10911TIP3   OH254223   4.014   5.813  14.898 -0.0613  0.3541 -0.5822
10911TIP3    H154224   3.999   5.789  14.990  0.7683 -0.4923 -0.6548
10911TIP3    H254225   4.087   5.874  14.901 -0.1403  0.4535 -0.6705
10912TIP3   OH254226   3.069   5.053   2.149  0.0992  0.3324  0.6013
10912TIP3    H154227   3.076   4.959   2.135 -0.3758  0.3686  0.0856
10912TIP3    H254228   2.976   5.068   2.168 -0.5431  1.0922 -2.6230
10913TIP3   OH254229   4.932   4.919   2.616  0.5064  0.5368  0.1157
10913TIP3    H154230   4.866   4.860   2.651 -0.4532  1.0527 -0.7662
10913TIP3    H254231   4.896   4.950   2.533  1.7278  1.0648 -0.2528
10914TIP3   OH254232   2.673   0.615  15.844 -0.0148 -0.6501  0.6591
10914TIP3    H154233   2.765   0.591  15.848 -0.0561 -0.7019  1.4570
10914TIP3    H254234   2.634   0.575  15.922 -0.8311 -1.1056  0.0333
10915TIP3   OH254235   4.507   3.829  13.200  0.2936 -0.4002  0.2157
10915TIP3    H154236   4.487   3.918  13.171  0.0436 -0.0101  1.4855
10915TIP3    H254237   4.494   3.832  13.295 -0.2487 -1.9347  0.2182
10916TIP3   OH254238   6.034   0.195  11.229 -0.5177  0.7273  0.2121
10916TIP3    H154239   5.961   0.244  11.191 -0.5855  2.6736  2.6267
10916TIP3    H254240   6.110   0.249  11.212 -0.1241  0.2634  0.4900
10917TIP3   OH254241   4.682   4.103  13.800  0.6230 -0.3967  0.1318
10917TIP3    H154242   4.662   4.067  13.886 -1.2343 -0.4883 -0.2905
10917TIP3    H254243   4.621   4.176  13.790  1.0835 -0.1397 -0.9476
10918TIP3   OH254244   5.922   6.165   0.718 -0.1972  0.0818  0.5888
10918TIP3    H154245   5.954   6.119   0.796  0.8533  0.3982  0.3670
10918TIP3    H254246   5.926   6.258   0.741  0.5047  0.2001  0.0323
10919TIP3   OH254247   5.488   4.322  11.575 -0.4897 -1.0134 -0.6302
10919TIP3    H154248   5.445   4.263  11.637 -1.5703 -1.0220 -1.3658
10919TIP3    H254249   5.509   4.400  11.627 -1.4438 -0.9893 -0.2671
10920TIP3   OH254250   5.449   0.541  15.167  0.0662 -0.4080 -0.0229
10920TIP3    H154251   5.358   0.566  15.183  0.7185  1.3270  1.2227
10920TIP3    H254252   5.459   0.546  15.072 -1.3256 -1.4621 -0.2676
10921TIP3   OH254253   2.198   4.736   1.036 -0.0469  0.6102 -0.4329
10921TIP3    H154254   2.278   4.790   1.038  0.3656  0.0552  2.2358
10921TIP3    H254255   2.227   4.653   0.996  0.6881  0.4984  0.2908
10922TIP3   OH254256   3.346   5.961  12.036 -0.1873 -0.1369 -0.3671
10922TIP3    H154257   3.362   6.047  11.996 -0.5251 -0.4549 -1.2226
10922TIP3    H254258   3.336   5.978  12.129 -0.1837  0.7446 -0.5255
10923TIP3   OH254259   0.765   6.692  10.982  0.5194 -0.3830 -0.7284
10923TIP3    H154260   0.695   6.683  11.047 -1.0616 -0.7243 -2.4071
10923TIP3    H254261   0.730   6.755  10.919  1.1492 -1.5991 -2.3262
10924TIP3   OH254262   4.350   4.780  13.645 -0.7740  0.6110  0.4576
10924TIP3    H154263   4.363   4.793  13.739 -0.5226  2.4685  0.1960
10924TIP3    H254264   4.334   4.867  13.610 -4.4440 -0.3616 -0.7412
10925TIP3   OH254265   5.786   6.514  16.005  0.6586 -0.2914  0.0295
10925TIP3    H154266   5.716   6.545  15.948  0.8098 -0.3494 -0.1875
10925TIP3    H254267   5.741   6.479  16.082  0.4800  0.4071  0.2519
10926TIP3   OH254268   1.152   5.505  12.353  0.2328 -0.6819  0.0674
10926TIP3    H154269   1.139   5.420  12.312  0.0731  0.7790 -3.1743
10926TIP3    H254270   1.245   5.524  12.341 -0.1436  0.5017 -1.3252
10927TIP3   OH254271   1.554   2.883   1.617  0.8756  0.0764  0.3809
10927TIP3    H154272   1.467   2.868   1.654  0.6153  2.0772  0.6825
10927TIP3    H254273   1.564   2.978   1.617  1.8166  0.0634 -2.5411
10928TIP3   OH254274   5.619   5.281   0.366 -0.4317  0.1486 -0.8163
10928TIP3    H154275   5.567   5.247   0.439  0.1878 -1.0816 -0.9172
10928TIP3    H254276   5.686   5.335   0.408  0.9518 -1.8667 -0.2604
10929TIP3   OH254277   4.766   2.992  15.987  0.4447 -0.5348  0.2250
10929TIP3    H154278   4.748   3.086  15.985 -1.8965 -0.9048 -2.4210
10929TIP3    H254279   4.713   2.959  16.059  0.8155  0.0769  0.7907
10930TIP3   OH254280   3.973   0.635   3.823  0.2182  0.2650  0.0485
10930TIP3    H154281   4.065   0.658   3.827 -0.0099  1.0755  1.0002
10930TIP3    H254282   3.950   0.614   3.914 -0.8358  1.3359  0.0549
10931TIP3   OH254283   2.857   6.334   5.473 -0.1057  0.0269 -0.0201
10931TIP3    H154284   2.813   6.253   5.500  0.0983  0.8168  3.0471
10931TIP3    H254285   2.939   6.305   5.434  0.6056 -1.2917  2.2665
10932TIP3   OH254286   4.296   0.710  16.634  0.0336 -0.2069  0.1749
10932TIP3    H154287   4.387   0.690  16.657 -0.1972 -0.3825  0.9563
10932TIP3    H254288   4.301   0.742  16.544  1.1088  1.6453  0.8449
10933TIP3   OH254289   3.756   3.292  11.419 -0.2164 -0.2787  0.2646
10933TIP3    H154290   3.734   3.206  11.456 -0.0315 -0.7087 -0.5787
10933TIP3    H254291   3.800   3.338  11.490 -1.0271 -0.5826  0.9807
10934TIP3   OH254292   1.909   4.061  14.496 -0.1718 -0.4447 -0.0361
10934TIP3    H154293   1.977   4.094  14.437 -3.1368  0.2575 -3.4100
10934TIP3    H254294   1.860   4.139  14.523 -0.2822 -1.0191  1.5816
10935TIP3   OH254295   1.165   2.513  13.052  0.2580  0.8585 -0.1663
10935TIP3    H154296   1.108   2.501  12.976  1.3684 -0.0087 -0.9062
10935TIP3    H254297   1.189   2.424  13.078 -0.6150  1.1146  1.6295
10936TIP3   OH254298   3.643   2.752  12.766  0.3185  0.4033  0.0046
10936TIP3    H154299   3.638   2.833  12.817 -0.2452 -0.0529  0.6973
10936TIP3    H254300   3.556   2.741  12.729  0.7354  0.7541 -1.1337
10937TIP3   OH254301   3.060   2.719  14.435  0.3938 -0.3436 -0.0072
10937TIP3    H154302   3.057   2.815  14.429  0.1756 -0.2712  1.0562
10937TIP3    H254303   3.048   2.689  14.345 -2.1222  0.5781 -0.0527
10938TIP3   OH254304   3.643   4.987   2.049 -0.5972 -0.2609  0.0011
10938TIP3    H154305   3.677   4.993   1.960 -0.7081  1.0243  0.0313
10938TIP3    H254306   3.552   5.016   2.043 -0.2412  1.1109  0.7182
10939TIP3   OH254307   2.818   2.020  17.099  0.1519 -0.3174 -0.5256
10939TIP3    H154308   2.761   1.958  17.054 -0.8206 -0.8105  1.2888
10939TIP3    H254309   2.853   1.971  17.174  0.4957  0.8909  0.1432
10940TIP3   OH254310   1.743   0.481  12.420 -0.2107  0.1087 -0.2127
10940TIP3    H154311   1.681   0.532  12.472 -1.5274 -0.4445 -1.1658
10940TIP3    H254312   1.795   0.546  12.372  0.2821  0.5898  0.9435
10941TIP3   OH254313   2.966   0.242   2.629  0.0380  0.2392  0.4287
10941TIP3    H154314   3.050   0.229   2.673 -0.5911 -1.3794  1.2311
10941TIP3    H254315   2.952   0.161   2.580 -0.1846  1.2545 -1.2685
10942TIP3   OH254316   6.044   0.885   0.727  0.3003  0.0512  0.3347
10942TIP3    H154317   5.968   0.867   0.671  0.5550  0.7493 -0.2425
10942TIP3    H254318   6.007   0.892   0.815 -0.6875  2.7417 -0.2191
10943TIP3   OH254319   3.119   6.609   0.715  0.3300  0.1264 -0.5059
10943TIP3    H154320   3.055   6.538   0.727  2.3818 -1.5241  1.5199
10943TIP3    H254321   3.108   6.664   0.793 -0.1407  1.1967 -1.2927
10944TIP3   OH254322   5.603   4.610   2.869  0.1194  0.2782 -0.2851
10944TIP3    H154323   5.538   4.586   2.802 -1.9986  0.9683  1.4200
10944TIP3    H254324   5.564   4.580   2.951  2.2083  0.3327  0.7752
10945TIP3   OH254325   5.796   6.508  12.805  0.1971 -0.4036  0.0539
10945TIP3    H154326   5.773   6.436  12.746  1.9821 -0.4988 -0.5861
10945TIP3    H254327   5.850   6.566  12.752  2.6270 -0.9366  1.7979
10946TIP3   OH254328   4.284   0.922  17.217 -0.7030 -0.0205  0.6380
10946TIP3    H154329   4.213   0.924  17.281 -0.7633 -0.1233  0.5732
10946TIP3    H254330   4.317   0.832  17.220  0.7766  0.5009  2.1820
10947TIP3   OH254331   0.958   5.686  11.280  0.1983 -0.3634 -0.3949
10947TIP3    H154332   0.904   5.675  11.202 -0.7687 -1.5532  0.4027
10947TIP3    H254333   0.985   5.598  11.304  1.0886  0.0570  0.2047
10948TIP3   OH254334   0.945   3.132   2.639 -0.0361 -0.3126  0.1774
10948TIP3    H154335   0.901   3.049   2.656  1.4273 -1.7096 -2.2023
10948TIP3    H254336   0.963   3.131   2.545 -0.3319  2.9463 -0.0385
10949TIP3   OH254337   3.533   3.223   2.474  0.4157  0.1465 -0.4281
10949TIP3    H154338   3.590   3.275   2.417 -0.0472 -0.7977 -1.8259
10949TIP3    H254339   3.593   3.183   2.537  0.7689  2.3619  0.7295
10950TIP3   OH254340   1.607   2.699   1.870 -0.2072 -0.6202 -0.5410
10950TIP3    H154341   1.628   2.626   1.812  2.1408 -0.5381  0.1049
10950TIP3    H254342   1.602   2.775   1.812  0.2920 -0.8342 -0.8723
10951TIP3   OH254343   3.532   6.422  16.104  0.0304 -0.0659 -0.1066
10951TIP3    H154344   3.518   6.334  16.141  0.4403 -0.1725 -0.2030
10951TIP3    H254345   3.572   6.405  16.019 -0.3193  0.2031 -0.3252
10952TIP3   OH254346   5.263   3.444  17.060  0.0933  0.0075  0.2257
10952TIP3    H154347   5.308   3.527  17.045  1.0345 -0.4098  0.6511
10952TIP3    H254348   5.195   3.441  16.992 -0.4431  1.4490  0.6523
10953TIP3   OH254349   5.484   3.210  14.944  0.1798 -0.1104 -0.0045
10953TIP3    H154350   5.461   3.134  14.890  0.5803  0.0305 -0.3830
10953TIP3    H254351   5.566   3.242  14.906  1.4764 -1.0993  1.7660
10954TIP3   OH254352   4.008   0.024  16.974 -0.8773 -0.1517  0.2561
10954TIP3    H154353   3.989  -0.004  16.885 -2.4201  0.7826  0.2502
10954TIP3    H254354   3.997  -0.055  17.027 -1.3070 -0.4220 -0.2321
10955TIP3   OH254355   5.574   6.452  11.343  0.4633  0.1615 -0.4114
10955TIP3    H154356   5.653   6.469  11.291  1.6846  1.1388  1.6407
10955TIP3    H254357   5.550   6.538  11.378 -0.3865 -0.4554  0.5528
10956TIP3   OH254358   6.811   2.194   0.861 -0.2662 -0.3192 -0.0403
10956TIP3    H154359   6.822   2.258   0.932 -0.1081  1.0254 -1.2135
10956TIP3    H254360   6.878   2.128   0.878 -1.5151 -1.1335  2.1363
10957TIP3   OH254361   5.117   5.278   0.029 -0.2630 -0.0390 -0.5181
10957TIP3    H154362   5.138   5.233   0.111  1.0470 -1.2603 -1.4645
10957TIP3    H254363   5.068   5.355   0.056 -0.4069 -0.7276  1.3667
10958TIP3   OH254364   3.485   1.709   4.856 -0.0607 -0.3296 -0.2243
10958TIP3    H154365   3.415   1.644   4.858  0.7564 -1.2183  0.3065
10958TIP3    H254366   3.554   1.668   4.803 -0.0734  0.6767 -1.0441
10959TIP3   OH254367   1.945   3.798   2.424  0.4266  0.0993  0.3436
10959TIP3    H154368   1.955   3.870   2.361  2.6281 -1.2873 -1.0260
10959TIP3    H254369   1.866   3.752   2.396  1.0223 -0.1211 -1.0516
10960TIP3   OH254370   3.741   5.769   4.871 -0.4567  0.1932  0.5834
10960TIP3    H154371   3.670   5.705   4.875 -0.7323  0.5482  2.4615
10960TIP3    H254372   3.742   5.798   4.780 -0.7656 -1.9637 -0.1550
10961TIP3   OH254373   4.592   4.893  12.435  0.5633  0.1043 -0.0159
10961TIP3    H154374   4.635   4.885  12.350 -0.4129 -0.9576 -0.4405
10961TIP3    H254375   4.654   4.854  12.497  0.0869 -1.8439 -0.6796
10962TIP3   OH254376   4.604   5.920  10.721  0.7740  0.4886 -0.3628
10962TIP3    H154377   4.532   5.858  10.729  1.4493 -0.1928  0.6968
10962TIP3    H254378   4.682   5.870  10.748  1.6283  1.2278 -1.3883
10963TIP3   OH254379   0.914   2.705   2.490 -0.2821 -0.0400  0.0087
10963TIP3    H154380   0.985   2.645   2.470 -0.2190  0.1576 -0.3659
10963TIP3    H254381   0.953   2.792   2.480 -0.2202  0.0659  1.0834
10964TIP3   OH254382   5.379   5.284   6.621  0.9486  0.2809 -0.2849
10964TIP3    H154383   5.356   5.272   6.529  0.1275  0.4604 -0.1160
10964TIP3    H254384   5.346   5.371   6.642 -0.6702 -0.5006  0.6817
10965TIP3   OH254385   3.486   0.905   4.509  0.3043 -0.2943  0.1714
10965TIP3    H154386   3.469   0.823   4.463 -0.2665  1.1870 -2.4868
10965TIP3    H254387   3.419   0.965   4.477  1.0703  1.4143  1.5501
10966TIP3   OH254388   3.245   6.498  15.180  0.2365  0.5264  0.7432
10966TIP3    H154389   3.159   6.540  15.182 -1.3337 -2.2159 -1.2142
10966TIP3    H254390   3.296   6.549  15.117 -0.9595  0.6678 -0.1522
10967TIP3   OH254391   2.523   3.358  12.755 -0.4666  0.4503 -0.1385
10967TIP3    H154392   2.528   3.433  12.815  0.5149  0.6785 -0.4842
10967TIP3    H254393   2.487   3.288  12.809  0.2292  0.7026  0.6947
10968TIP3   OH254394   4.697   3.116  11.210  0.1641  0.0350 -0.6519
10968TIP3    H154395   4.695   3.035  11.261  1.0637 -0.0595 -0.7573
10968TIP3    H254396   4.781   3.114  11.163 -0.3618  0.4158 -1.6523
10969TIP3   OH254397   1.314   3.504  13.748  0.3485  0.0653  0.1957
10969TIP3    H154398   1.346   3.486  13.660 -0.1622 -0.9173  0.1950
10969TIP3    H254399   1.226   3.465  13.750  0.2476  0.3118  1.0500
10970TIP3   OH254400   0.902   1.340  14.794 -0.3775 -0.4418  0.6070
10970TIP3    H154401   0.840   1.296  14.852  1.3075 -0.7257  2.2840
10970TIP3    H254402   0.944   1.269  14.745  0.1522 -0.4529  1.0680
10971TIP3   OH254403   5.801   5.432   5.487 -0.7083  0.0877 -0.2691
10971TIP3    H154404   5.770   5.455   5.575  3.2453  1.9421  0.8755
10971TIP3    H254405   5.814   5.337   5.491  0.6810  0.2837  1.7598
10972TIP3   OH254406   1.436   6.322  16.473  0.1021 -0.2561 -0.1037
10972TIP3    H154407   1.511   6.326  16.412 -0.9629 -0.4565 -1.4816
10972TIP3    H254408   1.443   6.236  16.513 -0.4642 -1.0965 -1.7097
10973TIP3   OH254409   3.923   6.231   2.553  0.5495  0.5766  0.1371
10973TIP3    H154410   3.832   6.245   2.527  1.1053  1.5191 -1.3812
10973TIP3    H254411   3.963   6.318   2.549  1.5661  0.1430  0.6088
10974TIP3   OH254412   4.929   6.609   1.299 -0.5265 -0.5058  0.2416
10974TIP3    H154413   5.002   6.613   1.360 -0.7416 -0.8252  0.5258
10974TIP3    H254414   4.885   6.694   1.309 -0.9483 -0.7996  1.0302
10975TIP3   OH254415   6.113   6.182  17.054  0.0160 -0.8271 -0.9330
10975TIP3    H154416   6.084   6.094  17.079  1.4717 -1.0062  0.2385
10975TIP3    H254417   6.035   6.237  17.063 -0.7508 -1.8762 -1.0509
10976TIP3   OH254418   6.385   2.899  13.095  0.0676 -0.1149  0.6555
10976TIP3    H154419   6.415   2.944  13.173 -1.7911  0.0113  1.3545
10976TIP3    H254420   6.290   2.911  13.095 -0.5477 -3.6901  0.7266
10977TIP3   OH254421   2.375   5.181   4.358  0.3119 -0.2113 -0.4102
10977TIP3    H154422   2.389   5.264   4.312 -0.3468 -0.4453 -1.0475
10977TIP3    H254423   2.378   5.114   4.290 -0.4565 -0.5844 -0.0939
10978TIP3   OH254424   2.414   6.253  11.972  0.1327 -0.1490 -0.0582
10978TIP3    H154425   2.423   6.347  11.984  2.7316 -0.1319 -1.4131
10978TIP3    H254426   2.486   6.215  12.024  0.8003 -1.1561 -1.6536
10979TIP3   OH254427   4.923   2.138  15.303 -0.5466  0.5102  0.7594
10979TIP3    H154428   4.831   2.162  15.292 -1.2916 -2.7846 -1.3537
10979TIP3    H254429   4.970   2.201  15.249 -1.7410  0.9906  0.2324
10980TIP3   OH254430   0.851   2.044  13.788 -0.1228 -0.0688 -0.1260
10980TIP3    H154431   0.873   1.994  13.867 -2.1620  0.7368  1.0545
10980TIP3    H254432   0.867   2.135  13.812  0.5623  0.0822 -1.1405
10981TIP3   OH254433   6.246   2.462  12.543  0.0789 -0.1183 -0.3589
10981TIP3    H154434   6.164   2.440  12.499  1.7593 -0.9199 -3.4019
10981TIP3    H254435   6.240   2.418  12.627 -1.4953 -2.5545 -1.6213
10982TIP3   OH254436   3.085   6.115  16.876 -0.1398  0.2889 -0.2834
10982TIP3    H154437   3.162   6.154  16.918 -0.9257  1.3636  0.2122
10982TIP3    H254438   3.018   6.115  16.944 -0.7364 -0.1644 -0.8606
10983TIP3   OH254439   0.412   2.642  13.686 -0.2447  0.0211 -0.1362
10983TIP3    H154440   0.436   2.684  13.769 -0.7720  1.6668 -0.7758
10983TIP3    H254441   0.329   2.599  13.704 -0.4910  0.6011  0.1211
10984TIP3   OH254442   4.028   3.920   3.662 -0.4816  0.0013 -0.2642
10984TIP3    H154443   4.064   3.880   3.741 -2.6431 -1.9614 -0.1535
10984TIP3    H254444   4.004   3.846   3.606 -1.4427  1.2596 -1.6084
10985TIP3   OH254445   3.040   2.172   5.032 -0.0877 -0.0862 -0.0458
10985TIP3    H154446   3.025   2.079   5.016 -2.3755  0.0070  1.1114
10985TIP3    H254447   3.135   2.182   5.028  0.2450 -2.5104  0.0920
10986TIP3   OH254448   1.709   5.971   3.409 -0.0459 -0.6077  0.1640
10986TIP3    H154449   1.792   5.929   3.385 -0.1371 -0.7217  0.0429
10986TIP3    H254450   1.727   6.065   3.403  0.8426 -0.5410  2.7184
10987TIP3   OH254451   2.637   1.456  14.795 -0.1215  0.1388 -0.0420
10987TIP3    H154452   2.652   1.544  14.762 -0.9023  0.4453  0.4089
10987TIP3    H254453   2.604   1.468  14.884  2.9882 -0.6759  1.3559
10988TIP3   OH254454   0.540   5.710   2.476 -0.3264 -0.2839 -0.2030
10988TIP3    H154455   0.601   5.749   2.538  0.4939 -1.5671 -0.1619
10988TIP3    H254456   0.576   5.732   2.390 -0.9241  0.6578 -0.2242
10989TIP3   OH254457   0.366   5.454  11.588 -0.7171 -0.3470  0.5922
10989TIP3    H154458   0.300   5.523  11.581 -1.7187 -1.2146  1.1829
10989TIP3    H254459   0.325   5.377  11.551  0.4302 -0.6289 -0.1517
10990TIP3   OH254460   1.072   4.777   6.111  0.0924 -0.6836 -0.2023
10990TIP3    H154461   1.084   4.859   6.159 -1.7779 -0.1645 -0.5223
10990TIP3    H254462   1.101   4.709   6.171  1.6103  0.1919  0.0967
10991TIP3   OH254463   1.035   2.615  13.374 -0.1580 -0.3770  0.3660
10991TIP3    H154464   1.100   2.561  13.329 -0.1901  1.2597 -1.8120
10991TIP3    H254465   0.955   2.604  13.322 -0.7420  0.0834  1.1505
10992TIP3   OH254466   3.738   4.371   2.222 -0.1245  0.2325 -0.1369
10992TIP3    H154467   3.669   4.400   2.163  1.6700  1.2355 -1.8635
10992TIP3    H254468   3.816   4.365   2.167  1.2509 -0.6066  1.7753
10993TIP3   OH254469   1.185   4.045  13.290  0.1709  0.3868 -0.6305
10993TIP3    H154470   1.115   4.079  13.235  2.4450  2.3460 -2.5534
10993TIP3    H254471   1.225   3.975  13.239 -0.3296 -0.7258  0.4502
10994TIP3   OH254472   3.243   1.291   0.178  0.0391  0.5410  0.7107
10994TIP3    H154473   3.293   1.326   0.104 -0.1616 -1.0534 -0.2154
10994TIP3    H254474   3.151   1.305   0.153 -0.2394 -3.6625 -1.3980
10995TIP3   OH254475   4.783   0.446   2.447  0.7936 -0.1528 -0.1359
10995TIP3    H154476   4.833   0.425   2.526  0.0613  1.1481  0.6971
10995TIP3    H254477   4.705   0.491   2.479  1.3380  2.0480 -1.6765
10996TIP3   OH254478   3.705   2.166  10.552  0.0600  0.3563  0.4093
10996TIP3    H154479   3.668   2.211  10.476  1.3230  1.3782  0.3706
10996TIP3    H254480   3.629   2.132  10.599 -0.8388  1.2998 -0.3317
10997TIP3   OH254481   2.931   3.236  13.434  0.4516  0.1945 -0.3276
10997TIP3    H154482   2.857   3.261  13.489  0.9359  0.7802  0.0641
10997TIP3    H254483   2.952   3.315  13.385  1.4983  0.3560  0.3507
10998TIP3   OH254484   1.395   2.787   4.808 -0.1773  0.4788 -0.5410
10998TIP3    H154485   1.300   2.785   4.798 -0.2508  1.5663 -0.2013
10998TIP3    H254486   1.428   2.765   4.722 -0.7402  0.2078 -0.6954
10999TIP3   OH254487   5.842   6.618   3.760 -0.0834 -0.4380 -0.3883
10999TIP3    H154488   5.775   6.607   3.827  0.1645 -0.9419 -0.2186
10999TIP3    H254489   5.915   6.564   3.789  1.0668  1.3824  0.2928
11000TIP3   OH254490   6.811   4.218  14.396 -0.1535  0.1008 -0.3066
11000TIP3    H154491   6.768   4.183  14.318 -1.7341 -1.0259  1.0093
11000TIP3    H254492   6.744   4.217  14.463  1.2447  0.7796  1.1667
11001TIP3   OH254493   5.597   3.980  12.960 -0.1958 -0.5618 -0.0808
11001TIP3    H154494   5.602   4.004  13.053 -1.3692  0.1508 -0.1797
11001TIP3    H254495   5.665   4.032  12.918 -0.8483  0.4971  0.1318
11002TIP3   OH254496   5.768   0.001   1.790  0.6696  0.4338  0.0212
11002TIP3    H154497   5.789   0.056   1.715 -1.1068  1.1473 -0.0065
11002TIP3    H254498   5.734   0.062   1.856 -3.3404 -0.7077 -0.7374
11003TIP3   OH254499   5.109   6.381  15.334  0.4340  0.2061 -0.2566
11003TIP3    H154500   5.057   6.352  15.409  0.1434  2.4672  0.5077
11003TIP3    H254501   5.167   6.308  15.315 -0.5600 -1.0079  1.1861
11004TIP3   OH254502   0.144   5.417  13.262 -0.5873 -0.3184 -0.4506
11004TIP3    H154503   0.166   5.324  13.260 -0.2458 -0.3069  1.2112
11004TIP3    H254504   0.187   5.454  13.185  3.2449 -0.7298  1.2599
11005TIP3   OH254505   3.995   1.850  13.517 -0.1119 -0.1327 -0.6350
11005TIP3    H154506   3.957   1.893  13.593 -0.8140 -0.4331 -0.8096
11005TIP3    H254507   4.088   1.873  13.520 -0.1669  0.0007  0.2112
11006TIP3   OH254508   3.050   0.515   0.529  0.2051  0.6771 -0.5311
11006TIP3    H154509   3.064   0.554   0.443 -2.4908  1.8435 -0.5350
11006TIP3    H254510   2.981   0.449   0.515 -0.3575  0.9657  0.7287
11007TIP3   OH254511   5.284   0.195  16.074 -0.6357  0.1410  0.0104
11007TIP3    H154512   5.269   0.130  16.006 -3.3501 -1.1329  1.6526
11007TIP3    H254513   5.212   0.257  16.065 -1.4327 -0.4037  2.0190
11008TIP3   OH254514   0.841   4.137  12.399  0.1105 -0.2657 -0.1765
11008TIP3    H154515   0.826   4.164  12.308  0.4805 -0.8029 -0.4011
11008TIP3    H254516   0.753   4.131  12.437 -0.3460 -3.2361 -1.4429
11009TIP3   OH254517   3.466   2.323   0.837 -0.3078  0.3314  0.0619
11009TIP3    H154518   3.501   2.295   0.753  2.1594  2.4916  0.2270
11009TIP3    H254519   3.497   2.257   0.899  0.3607  0.2498 -0.3448
11010TIP3   OH254520   0.945   1.940   3.907  0.0941 -0.0093  0.0617
11010TIP3    H154521   0.898   1.950   3.990 -0.4811  0.2532 -0.2857
11010TIP3    H254522   0.991   2.023   3.896  0.2786 -0.0948  0.1806
11011TIP3   OH254523   6.440   4.658   4.187  0.4120  0.2449 -0.3560
11011TIP3    H154524   6.352   4.622   4.181  0.2063 -0.1413  2.9556
11011TIP3    H254525   6.477   4.649   4.099 -2.2850 -0.9817 -1.4549
11012TIP3   OH254526   6.750   4.782  11.156  0.8085 -0.0886 -0.3228
11012TIP3    H154527   6.834   4.737  11.160 -0.0400 -1.6431  2.2097
11012TIP3    H254528   6.685   4.715  11.176 -0.8452  1.5260  0.0473
11013TIP3   OH254529   0.525   4.499  13.045 -0.1399 -0.2033  0.7329
11013TIP3    H154530   0.456   4.549  13.089  0.3618  0.8567  0.3633
11013TIP3    H254531   0.521   4.412  13.085 -0.3156  0.4514  2.2069
11014TIP3   OH254532   3.038   0.236  15.695 -0.1529 -0.0881 -0.2864
11014TIP3    H154533   2.980   0.261  15.767  0.1462  0.6554 -0.2953
11014TIP3    H254534   2.979   0.202  15.627 -0.3794 -1.5330  0.5883
11015TIP3   OH254535   0.776   4.575  14.491  0.2057  0.5400  0.7836
11015TIP3    H154536   0.781   4.621  14.407 -2.7391  1.0250  0.7612
11015TIP3    H254537   0.835   4.500  14.481 -1.5589 -0.5952 -2.5313
11016TIP3   OH254538   3.438   4.965  12.470  0.4966 -0.3735 -0.6774
11016TIP3    H154539   3.457   5.053  12.503  0.7748  0.2828 -2.5196
11016TIP3    H254540   3.348   4.971  12.437  0.6294 -0.7021 -1.0975
11017TIP3   OH254541   2.900   1.796   3.001 -0.6477 -0.2982  0.0462
11017TIP3    H154542   2.825   1.854   3.011 -0.2765  0.5999 -1.9850
11017TIP3    H254543   2.936   1.788   3.090 -3.7263 -1.6811  1.2953
11018TIP3   OH254544   0.248   1.912  12.366 -0.6810 -0.3175  0.3466
11018TIP3    H154545   0.224   1.835  12.417 -2.7717 -0.0292 -0.1231
11018TIP3    H254546   0.283   1.877  12.284  0.2971 -0.7536  0.9336
11019TIP3   OH254547   6.742   6.428  16.470 -0.2543  0.3800 -0.0424
11019TIP3    H154548   6.693   6.356  16.430 -1.3917  1.7838 -1.2893
11019TIP3    H254549   6.776   6.392  16.552 -1.6873 -1.2430 -0.1252
11020TIP3   OH254550   2.813   6.773  11.721 -0.2166  0.2053  0.1717
11020TIP3    H154551   2.908   6.786  11.713 -0.2927  0.4637 -0.3481
11020TIP3    H254552   2.802   6.728  11.805  0.5759 -1.9181 -0.7778
11021TIP3   OH254553   4.283   6.303  16.813  0.2881  0.1524 -0.0168
11021TIP3    H154554   4.193   6.268  16.811 -0.6654  2.4234 -0.1738
11021TIP3    H254555   4.276   6.383  16.865  1.8291  1.3809 -1.5805
11022TIP3   OH254556   3.595   3.618   5.203 -0.2840  0.1531  0.3508
11022TIP3    H154557   3.552   3.687   5.153  0.8811  1.7743  1.4568
11022TIP3    H254558   3.630   3.558   5.138 -0.9763  0.8187 -0.6561
11023TIP3   OH254559   5.813   0.360  11.391 -0.0043  0.3682 -0.5086
11023TIP3    H154560   5.831   0.270  11.418 -0.7001  0.6672  1.0816
11023TIP3    H254561   5.866   0.414  11.450 -1.1868  1.0424 -0.0243
11024TIP3   OH254562   5.767   4.089   2.665 -0.2322  0.5757  0.2131
11024TIP3    H154563   5.785   4.022   2.599 -0.9192 -1.3626  1.8964
11024TIP3    H254564   5.677   4.118   2.646 -0.0473  0.8191 -0.3226
11025TIP3   OH254565   5.887   3.602  15.916  0.2604 -0.3366  0.3027
11025TIP3    H154566   5.802   3.626  15.878  0.1172 -0.8137  0.3182
11025TIP3    H254567   5.914   3.680  15.964 -0.7494 -0.5861  1.3346
11026TIP3   OH254568   4.385   4.971   1.496 -0.0049 -0.5188  0.2986
11026TIP3    H154569   4.431   4.905   1.444  2.4301  1.8750 -0.8712
11026TIP3    H254570   4.365   4.927   1.578  3.1017 -2.2950  0.2818
11027TIP3   OH254571   4.518   2.450   4.350 -0.1165  0.4361 -0.3749
11027TIP3    H154572   4.601   2.413   4.319 -0.0726  0.0656  0.1638
11027TIP3    H254573   4.464   2.374   4.370 -0.1999  0.6604  0.2862
11028TIP3   OH254574   0.884   2.634  15.989 -0.4948 -0.3978 -0.6934
11028TIP3    H154575   0.869   2.644  16.083  0.7623  0.9835 -0.5963
11028TIP3    H254576   0.959   2.575  15.983  0.6108  0.9409 -0.7027
11029TIP3   OH254577   0.972   5.855  15.878 -0.5346  0.2201  0.3435
11029TIP3    H154578   0.998   5.948  15.877  0.5774 -0.0716 -0.5978
11029TIP3    H254579   0.964   5.834  15.971 -0.1001  1.0809  0.5949
11030TIP3   OH254580   2.951   0.778  10.960 -0.2431  0.5289  0.6900
11030TIP3    H154581   2.959   0.710  11.027 -0.9209 -0.5106 -0.2585
11030TIP3    H254582   3.036   0.778  10.915 -0.0352  0.7294  1.0822
11031TIP3   OH254583   3.415   3.223  10.733 -0.6508  0.1933 -0.7491
11031TIP3    H154584   3.367   3.288  10.784 -0.3105 -1.3882  1.7104
11031TIP3    H254585   3.495   3.268  10.705 -0.3699  0.8486  0.9978
11032TIP3   OH254586   2.240   5.451   0.774  0.1210  0.2774 -0.1314
11032TIP3    H154587   2.230   5.537   0.814  2.0825  0.7604 -0.5766
11032TIP3    H254588   2.274   5.469   0.686  1.6427 -0.9406  0.1546
11033TIP3   OH254589   1.037   5.101  10.332 -0.7468 -0.2295  0.2162
11033TIP3    H154590   0.985   5.180  10.321 -2.3314 -1.1590  0.7199
11033TIP3    H254591   0.992   5.034  10.280  0.9523 -0.6671 -0.7811
11034TIP3   OH254592   4.953   1.151  16.861  0.3614 -0.5064  0.6489
11034TIP3    H154593   4.972   1.058  16.869  0.7642 -0.3260  1.9095
11034TIP3    H254594   4.857   1.156  16.859  0.3061 -0.8689  1.7731
11035TIP3   OH254595   1.612   2.497  12.756  0.0548 -0.3735  0.1358
11035TIP3    H154596   1.615   2.488  12.851  0.2437 -0.0340  0.1637
11035TIP3    H254597   1.518   2.506  12.736  0.0589  0.2368  0.3595
11036TIP3   OH254598   5.977   4.463   2.166 -0.2603 -0.2519 -0.2051
11036TIP3    H154599   6.040   4.403   2.126  0.3075 -0.1097  0.4659
11036TIP3    H254600   5.995   4.458   2.259 -1.3654 -0.3448  0.0184
11037TIP3   OH254601   4.500   1.190  15.134  0.0978 -0.2058  0.1605
11037TIP3    H154602   4.420   1.147  15.103  1.2373 -3.8533  1.8216
11037TIP3    H254603   4.474   1.231  15.217 -0.0787 -1.3430  0.6791
11038TIP3   OH254604   4.678   3.305   0.981  0.7140 -0.3810  0.1230
11038TIP3    H154605   4.651   3.279   0.893 -1.3499  2.3174 -0.1696
11038TIP3    H254606   4.598   3.301   1.033  1.3125  0.7032  1.1737
11039TIP3   OH254607   2.530   3.114   3.228  0.1771  0.4746  0.4303
11039TIP3    H154608   2.568   3.069   3.153  1.8680  0.6631  1.1431
11039TIP3    H254609   2.514   3.045   3.293 -0.8036  0.3883  0.1218
11040TIP3   OH254610   4.609   3.666  14.948 -0.3877  0.1161 -0.4692
11040TIP3    H154611   4.575   3.722  14.880 -1.6012 -0.6132 -0.4885
11040TIP3    H254612   4.539   3.604  14.966  1.2712 -2.1542 -1.2756
11041TIP3   OH254613   5.257   6.626   0.142 -0.0220 -0.2615 -0.1889
11041TIP3    H154614   5.202   6.679   0.200 -2.2858 -0.6735 -1.8247
11041TIP3    H254615   5.200   6.604   0.069  2.5970 -0.0367 -2.4458
11042TIP3   OH254616   5.681   5.568   4.997 -0.3875 -0.2061  0.2970
11042TIP3    H154617   5.770   5.602   5.002 -0.7819  1.6334 -2.8384
11042TIP3    H254618   5.692   5.472   4.996  1.3738 -0.0686  1.5015
11043TIP3   OH254619   1.336   5.721  11.858 -0.2475 -0.0766 -0.6459
11043TIP3    H154620   1.391   5.799  11.864 -0.3008 -0.1257  1.0182
11043TIP3    H254621   1.280   5.725  11.936  0.1517 -2.0511 -0.2100
11044TIP3   OH254622   1.509   2.125   2.960  0.4522  0.1483  0.3462
11044TIP3    H154623   1.547   2.069   2.893 -0.8797  2.9405 -3.0615
11044TIP3    H254624   1.440   2.174   2.915 -0.3677  2.4849  3.7027
11045TIP3   OH254625   1.457   4.773   1.992  0.4262  0.6835 -0.7379
11045TIP3    H154626   1.385   4.710   1.990  0.1783  0.9446 -0.2686
11045TIP3    H254627   1.522   4.733   2.049  0.8485  0.2483 -1.5109
11046TIP3   OH254628   4.856   0.901  16.164 -0.0761 -0.1419 -0.1223
11046TIP3    H154629   4.787   0.885  16.229  0.2742  0.9061  0.5354
11046TIP3    H254630   4.862   0.997  16.159  0.9749 -0.2178 -0.5499
11047TIP3   OH254631   5.871   2.116  14.382 -0.2880  0.4789  0.0948
11047TIP3    H154632   5.849   2.044  14.323  2.3082 -0.3395 -0.0055
11047TIP3    H254633   5.885   2.074  14.467 -0.2588  1.1128  0.4116
11048TIP3   OH254634   3.568   6.702  13.849  0.2167 -0.0099 -1.0099
11048TIP3    H154635   3.520   6.619  13.845  0.6182 -0.2692 -0.5013
11048TIP3    H254636   3.511   6.760  13.900  0.7920 -0.5769  0.3442
11049TIP3   OH254637   0.880   1.917   3.075 -0.1550 -0.4637 -0.3984
11049TIP3    H154638   0.836   1.991   3.116  0.8247  0.2813 -0.6710
11049TIP3    H254639   0.940   1.956   3.012  1.3700 -1.4105  0.4117
11050TIP3   OH254640   6.302   1.942   2.528 -0.3160  0.3065  0.6305
11050TIP3    H154641   6.250   2.019   2.507  0.2485  0.6723  0.5677
11050TIP3    H254642   6.285   1.925   2.620 -0.7009  0.2991  0.5612
11051TIP3   OH254643   3.161   5.566   5.387  0.0278  0.5702  0.1087
11051TIP3    H154644   3.257   5.564   5.386  0.0263 -0.1550 -1.0733
11051TIP3    H254645   3.136   5.478   5.415 -0.3567  1.6681  3.8015
11052TIP3   OH254646   1.273   1.764   2.290 -0.0494  0.7007  0.5672
11052TIP3    H154647   1.192   1.816   2.292 -1.5657 -1.4718 -0.1250
11052TIP3    H254648   1.257   1.699   2.222  2.5083  0.4496  0.1053
11053TIP3   OH254649   1.845   5.774  16.337 -0.3938  0.5332  0.2114
11053TIP3    H154650   1.867   5.828  16.261  3.5648  0.1748  0.8904
11053TIP3    H254651   1.843   5.685  16.304 -2.3661  0.6284 -0.0543
11054TIP3   OH254652   5.618   5.159  14.653 -0.0353  0.1577  0.0117
11054TIP3    H154653   5.666   5.081  14.680  0.6753  0.7552  0.5523
11054TIP3    H254654   5.554   5.173  14.722  1.6576  1.5791  1.3909
11055TIP3   OH254655   4.044   3.795   0.523  0.1371 -0.5029  0.0333
11055TIP3    H154656   4.048   3.701   0.505 -0.3510 -0.2324 -1.6898
11055TIP3    H254657   4.127   3.830   0.490  0.3752 -0.3505  0.7913
11056TIP3   OH254658   6.794   5.072  13.430 -0.3513  0.1270 -0.6501
11056TIP3    H154659   6.889   5.070  13.444 -0.4400 -0.7950 -0.1026
11056TIP3    H254660   6.767   5.159  13.459 -0.2609 -0.9871  3.4357
11057TIP3   OH254661   4.098   5.994   3.522  0.7760 -0.0562  0.4926
11057TIP3    H154662   4.040   5.977   3.596  0.2789 -0.2588  0.0666
11057TIP3    H254663   4.064   6.075   3.484  0.8765 -0.0835  0.3451
11058TIP3   OH254664   2.246   2.885  11.563 -0.2065 -0.5568  0.0097
11058TIP3    H154665   2.271   2.970  11.599 -0.6925 -0.0699 -0.7672
11058TIP3    H254666   2.154   2.895  11.540 -1.1039 -2.1846  2.4806
11059TIP3   OH254667   4.805   2.605  12.020 -0.8416  0.0707  0.0855
11059TIP3    H154668   4.848   2.683  11.986  2.1287 -1.1133  0.8603
11059TIP3    H254669   4.756   2.570  11.945 -0.6702  1.5958 -0.7830
11060TIP3   OH254670   6.576   1.401   3.209 -0.0120 -0.3247  0.2764
11060TIP3    H154671   6.671   1.395   3.221  0.0337 -1.9407 -0.6154
11060TIP3    H254672   6.552   1.484   3.250  2.0359  0.9596 -0.9496
11061TIP3   OH254673   1.492   4.275  12.028  0.7009 -0.4851  0.0584
11061TIP3    H154674   1.439   4.326  11.968  2.1722  0.4426 -0.4955
11061TIP3    H254675   1.438   4.266  12.106 -0.1925  0.5772 -0.4159
11062TIP3   OH254676   4.379   6.537  11.606 -0.2242  0.2503 -0.2087
11062TIP3    H154677   4.288   6.553  11.583  0.4909  2.1324 -1.9299
11062TIP3    H254678   4.380   6.541  11.702 -1.9872 -0.2496 -0.1311
11063TIP3   OH254679   0.821   5.769   6.554  0.7611  0.1778 -1.0732
11063TIP3    H154680   0.896   5.710   6.547  2.0231  1.7695 -1.5891
11063TIP3    H254681   0.804   5.797   6.464  0.7730  1.2988 -0.7402
11064TIP3   OH254682   0.478   5.994   2.719  0.0454  0.3300  0.3025
11064TIP3    H154683   0.444   5.974   2.806  0.4367  0.3460  0.4585
11064TIP3    H254684   0.554   6.050   2.735  0.0866  0.3781 -0.0520
11065TIP3   OH254685   5.678   3.471  12.268 -0.7665  0.4998 -0.0411
11065TIP3    H154686   5.621   3.427  12.331  1.9403 -0.6798  1.8373
11065TIP3    H254687   5.753   3.500  12.321  0.7349  1.2242 -2.4105
11066TIP3   OH254688   1.057   4.711   4.668 -0.3093 -0.3753  0.3953
11066TIP3    H154689   1.019   4.746   4.748 -0.3517  0.7226 -0.0869
11066TIP3    H254690   1.084   4.621   4.691 -0.0082  0.0313  1.7244
11067TIP3   OH254691   4.331   6.676  16.030 -0.4017  0.1008 -0.2766
11067TIP3    H154692   4.297   6.600  16.076 -0.9009 -0.1271 -1.0152
11067TIP3    H254693   4.288   6.751  16.072 -0.8072 -0.1024 -0.3289
11068TIP3   OH254694   1.662   5.907  14.684 -0.1369  0.2270 -0.4805
11068TIP3    H154695   1.692   5.998  14.681  0.6081  0.0657  0.9579
11068TIP3    H254696   1.658   5.886  14.777 -0.4135 -1.1869 -0.7801
11069TIP3   OH254697   1.962   2.561   3.086 -0.5200  0.2182  0.0772
11069TIP3    H154698   2.048   2.565   3.044 -0.1029 -2.5118  0.5040
11069TIP3    H254699   1.900   2.560   3.013  0.0613 -1.8468 -0.4429
11070TIP3   OH254700   1.469   0.386  15.650 -0.0246  0.3496 -0.3327
11070TIP3    H154701   1.458   0.292  15.663  2.5478  0.1852  1.5758
11070TIP3    H254702   1.431   0.425  15.729  0.6161  0.7482 -0.2185
11071TIP3   OH254703   4.125   5.224   4.187 -0.2521  0.2559  0.2794
11071TIP3    H154704   4.147   5.137   4.221  0.9573  0.1299 -0.7411
11071TIP3    H254705   4.106   5.209   4.094  1.1855  1.2195 -0.2088
11072TIP3   OH254706   4.589   3.441  14.681 -0.0982  0.4821  0.1705
11072TIP3    H154707   4.499   3.412  14.696 -0.5098  1.3779 -0.4690
11072TIP3    H254708   4.643   3.365  14.703 -1.1275 -0.7580 -1.3888
11073TIP3   OH254709   2.497   4.877   3.436 -0.1444 -0.9354 -0.3680
11073TIP3    H154710   2.558   4.809   3.465  1.7429  0.5760 -0.5574
11073TIP3    H254711   2.480   4.929   3.515  2.2625  1.1298 -1.0625
11074TIP3   OH254712   0.581   4.533  10.215 -0.0490  0.2167  0.0584
11074TIP3    H154713   0.488   4.522  10.234 -0.7815  0.9585 -2.6773
11074TIP3    H254714   0.610   4.445  10.189  0.1486 -0.0941  1.2601
11075TIP3   OH254715   4.232   3.298  11.429  0.0790  0.3650  0.0445
11075TIP3    H154716   4.269   3.351  11.358  0.5228 -0.1502 -0.1081
11075TIP3    H254717   4.159   3.251  11.388 -0.4634  1.0153  0.2343
11076TIP3   OH254718   5.613   6.494  16.708 -0.1075  0.1348 -0.3274
11076TIP3    H154719   5.670   6.570  16.713 -0.9222  0.7511 -0.2810
11076TIP3    H254720   5.621   6.464  16.617  0.9728 -0.3402 -0.0958
11077TIP3   OH254721   0.445   4.941  11.259 -0.4730  0.0608 -0.1612
11077TIP3    H154722   0.526   4.926  11.209 -0.5166 -0.2136 -0.1504
11077TIP3    H254723   0.382   4.971  11.193 -0.6424 -0.6846 -0.3420
11078TIP3   OH254724   4.612   6.575  12.367  0.1864 -1.0272 -0.1888
11078TIP3    H154725   4.613   6.543  12.277  0.4178 -0.1049 -0.5312
11078TIP3    H254726   4.669   6.515  12.414  0.7016 -1.0595 -0.8292
11079TIP3   OH254727   6.526   4.819  16.032  0.3194  0.2240 -0.0395
11079TIP3    H154728   6.501   4.819  15.939 -2.3644  0.2394  0.5869
11079TIP3    H254729   6.551   4.729  16.050 -2.6168 -0.7127 -0.0635
11080TIP3   OH254730   3.869   0.523   2.065 -0.7522  0.1536 -0.2606
11080TIP3    H154731   3.950   0.537   2.016 -1.5089 -1.5643 -2.1557
11080TIP3    H254732   3.830   0.445   2.025 -2.7804  0.2636  1.3453
11081TIP3   OH254733   5.763   3.224   0.954  0.3932  0.1351  0.4323
11081TIP3    H154734   5.743   3.232   0.860 -1.8961 -1.6823  0.6836
11081TIP3    H254735   5.727   3.303   0.993 -4.2099 -1.6738  0.4322
11082TIP3   OH254736   2.519   3.923   2.474 -0.0299 -0.1396  0.2270
11082TIP3    H154737   2.469   3.985   2.528 -0.9221 -1.2091  0.6575
11082TIP3    H254738   2.472   3.921   2.391 -0.0249 -0.2698  0.2270
11083TIP3   OH254739   5.606   0.693  14.225 -0.2054 -0.0617  0.2752
11083TIP3    H154740   5.615   0.627  14.157 -2.7896 -0.2888  0.0605
11083TIP3    H254741   5.650   0.771  14.189 -0.1703 -0.6410 -0.9612
11084TIP3   OH254742   1.581   6.037   4.890  0.2387 -0.9630 -0.8368
11084TIP3    H154743   1.576   5.941   4.894  1.7037 -1.0657 -0.9913
11084TIP3    H254744   1.672   6.057   4.909 -0.5921  0.6041  1.9807
11085TIP3   OH254745   6.043   6.435  16.182  0.4345  0.1917 -0.6798
11085TIP3    H154746   5.972   6.381  16.150 -0.2012  0.5349  0.1023
11085TIP3    H254747   6.068   6.490  16.107  0.0474 -0.1031 -1.0261
11086TIP3   OH254748   6.025   3.391   1.746  0.2969 -0.5424  0.0929
11086TIP3    H154749   6.094   3.388   1.679  0.1363 -1.5310 -0.0391
11086TIP3    H254750   5.995   3.301   1.753 -1.1538 -0.0945 -0.0149
11087TIP3   OH254751   4.312   6.117  16.140 -0.1874 -0.4632  0.1988
11087TIP3    H154752   4.353   6.067  16.210  2.5852  0.8759 -0.3023
11087TIP3    H254753   4.343   6.076  16.060 -0.0607  0.3843 -0.2022
11088TIP3   OH254754   4.998   4.872   4.980  0.0971  0.5980  0.3111
11088TIP3    H154755   4.991   4.815   5.057 -1.8191 -1.1827 -1.0895
11088TIP3    H254756   4.938   4.945   4.999 -1.8583 -0.8057 -0.2143
11089TIP3   OH254757   6.570   5.913   2.030 -0.2098 -0.2263 -0.1851
11089TIP3    H154758   6.547   5.942   2.118 -1.2118 -2.2734  0.3076
11089TIP3    H254759   6.548   5.987   1.973  0.5932  1.1839  1.2592
11090TIP3   OH254760   0.982   1.575   4.858  0.4736  0.1036  0.3328
11090TIP3    H154761   1.027   1.642   4.910  1.7493 -0.2518 -0.2675
11090TIP3    H254762   0.986   1.608   4.768  0.9785 -0.6869  0.0541
11091TIP3   OH254763   6.036   1.584  12.840 -0.2096 -0.0870  0.7264
11091TIP3    H154764   5.970   1.517  12.858 -0.7618  0.6104  1.4063
11091TIP3    H254765   5.996   1.639  12.773  0.7095 -1.0701 -0.6796
11092TIP3   OH254766   4.642   2.363  13.830  0.0133 -0.5484  0.2538
11092TIP3    H154767   4.582   2.306  13.782  1.7198 -1.9623 -0.3029
11092TIP3    H254768   4.655   2.438  13.773 -0.6627 -0.5613  0.0725
11093TIP3   OH254769   6.669   4.033  11.087  0.1960  0.4893 -0.2739
11093TIP3    H154770   6.688   4.125  11.104 -1.9874  0.7204  1.3638
11093TIP3    H254771   6.633   4.032  10.998 -0.1955  1.3098 -0.1325
11094TIP3   OH254772   0.706   4.723   4.815 -1.3569  0.4508 -0.4206
11094TIP3    H154773   0.741   4.637   4.835 -0.9594  0.0741 -2.5926
11094TIP3    H254774   0.769   4.784   4.855 -0.0480 -0.2543 -1.3326
11095TIP3   OH254775   1.172   6.442   2.503 -0.1717  0.6955  0.2111
11095TIP3    H154776   1.147   6.441   2.410 -0.6014  0.8258  0.3215
11095TIP3    H254777   1.130   6.521   2.537 -0.3109  0.4556  0.5973
11096TIP3   OH254778   6.181   0.468   1.334  0.3767 -0.5029 -0.9686
11096TIP3    H154779   6.098   0.420   1.326 -0.5084  1.0228 -1.2721
11096TIP3    H254780   6.224   0.455   1.249 -0.5890  0.5166 -1.6384
11097TIP3   OH254781   2.439   5.981   3.780  0.3458  0.0245 -0.0884
11097TIP3    H154782   2.489   5.938   3.850 -0.4991 -0.3514  0.2939
11097TIP3    H254783   2.488   6.062   3.762  1.5857 -0.7516 -0.3454
11098TIP3   OH254784   4.854   1.304  11.523  0.0421  0.4068  0.0958
11098TIP3    H154785   4.934   1.254  11.537  0.4693  1.3653  1.3064
11098TIP3    H254786   4.830   1.334  11.611 -1.1359  0.9064 -0.3806
11099TIP3   OH254787   5.602   4.465   3.489 -0.0642  0.0333 -0.6182
11099TIP3    H154788   5.552   4.516   3.553 -0.0546 -0.7989  0.0813
11099TIP3    H254789   5.538   4.445   3.420 -0.0161  1.1269 -0.9858
11100TIP3   OH254790   6.708   2.828   0.633  0.3802  0.1555 -0.5262
11100TIP3    H154791   6.639   2.852   0.572 -0.1669 -1.3059 -0.5442
11100TIP3    H254792   6.691   2.735   0.652  0.4779  0.5526  1.8776
11101TIP3   OH254793   0.413   3.062  15.993  0.0351 -0.0020 -0.1458
11101TIP3    H154794   0.355   2.986  15.990 -0.8929  0.6729 -0.0733
11101TIP3    H254795   0.500   3.026  16.007 -0.5785 -0.9645  1.4686
11102TIP3   OH254796   6.203   3.266  12.866 -0.0440  0.1358 -0.3640
11102TIP3    H154797   6.208   3.263  12.770 -0.3433  1.4206 -0.4459
11102TIP3    H254798   6.293   3.277  12.895 -0.1129  1.8109 -0.6448
11103TIP3   OH254799   4.041   4.432  15.405 -0.0164  0.2839 -0.0080
11103TIP3    H154800   4.112   4.395  15.353 -1.6751 -3.1593 -0.0647
11103TIP3    H254801   4.076   4.436  15.494  0.8756  0.5823 -0.3574
11104TIP3   OH254802   0.960   1.286  16.200 -0.0109  0.8937  0.1016
11104TIP3    H154803   0.913   1.209  16.166 -0.1553  1.0053  0.0485
11104TIP3    H254804   1.034   1.297  16.141 -1.0423  1.9506 -1.0580
11105TIP3   OH254805   5.868   3.676   0.346  0.4818 -0.1222  0.5308
11105TIP3    H154806   5.817   3.741   0.396  0.8565  0.4703  0.1487
11105TIP3    H254807   5.811   3.600   0.343  0.9722 -0.7017  3.0739
11106TIP3   OH254808   1.246   5.874   5.500  0.5923  0.2694  0.2532
11106TIP3    H154809   1.257   5.818   5.578  1.2419 -0.5444 -0.4032
11106TIP3    H254810   1.162   5.917   5.514 -2.1130 -3.9783 -1.0210
11107TIP3   OH254811   6.771   0.333   5.246 -0.2551  0.3397  0.4335
11107TIP3    H154812   6.747   0.425   5.253  2.5470  1.2095 -0.1164
11107TIP3    H254813   6.852   0.325   5.298  2.0371 -0.6902 -2.9528
11108TIP3   OH254814   2.818   5.245  15.431 -0.1295  0.2830  0.0008
11108TIP3    H154815   2.803   5.334  15.462 -0.7148  0.7163 -1.4461
11108TIP3    H254816   2.862   5.255  15.346 -0.2403 -0.7990 -0.2076
11109TIP3   OH254817   4.217   2.671   2.184  0.0083  0.3996 -0.1024
11109TIP3    H154818   4.132   2.692   2.223  0.4506 -0.8117  1.6435
11109TIP3    H254819   4.210   2.702   2.094 -1.9726  1.0938  0.2305
11110TIP3   OH254820   5.062   3.626   5.410  0.0702 -0.0709  0.0729
11110TIP3    H154821   5.013   3.566   5.354 -0.3986 -0.7055  1.1304
11110TIP3    H254822   5.066   3.708   5.360 -2.5272  0.1790  0.1383
11111TIP3   OH254823   3.113   5.563  14.517 -0.2985  0.0049  0.0530
11111TIP3    H154824   3.105   5.652  14.482 -1.1416 -0.3778 -0.7700
11111TIP3    H254825   3.070   5.567  14.602 -0.7487  0.2683 -0.1854
11112TIP3   OH254826   0.678   3.078  10.458  0.2173 -0.0923  0.0664
11112TIP3    H154827   0.750   3.024  10.426 -0.8171 -1.5468  0.0799
11112TIP3    H254828   0.713   3.167  10.461  1.7210 -0.6330 -0.7593
11113TIP3   OH254829   0.015   0.652   3.428  0.6289  0.4872  0.4447
11113TIP3    H154830   0.010   0.605   3.511  0.4229  2.2227  1.4666
11113TIP3    H254831  -0.075   0.680   3.412  0.3833 -1.0121 -1.1393
11114TIP3   OH254832   3.869   4.369   5.354 -0.2414  0.1663  0.0870
11114TIP3    H154833   3.862   4.326   5.439  1.0815  1.3961  0.8464
11114TIP3    H254834   3.963   4.383   5.341 -0.4831  0.7765 -1.1833
11115TIP3   OH254835   0.489   5.497   1.846  0.4360  0.2966  0.3210
11115TIP3    H154836   0.444   5.489   1.930 -3.4434  1.0785 -1.4700
11115TIP3    H254837   0.476   5.588   1.820 -1.1515 -0.5787 -2.3762
11116TIP3   OH254838   3.342   4.981  16.524  0.2458  0.1465 -0.1387
11116TIP3    H154839   3.307   4.934  16.599 -1.5235 -3.6312 -3.0065
11116TIP3    H254840   3.434   4.953  16.519  0.4173  0.5404  0.6443
11117TIP3   OH254841   3.490   0.427   0.362 -0.7097  0.2940  0.5017
11117TIP3    H154842   3.499   0.337   0.394 -1.1512  0.2689  0.5612
11117TIP3    H254843   3.409   0.427   0.312  0.8514 -0.1511 -2.2812
11118TIP3   OH254844   0.093   4.810  15.470  0.1893  0.1891 -0.6468
11118TIP3    H154845   0.174   4.851  15.499 -0.1321  2.7309 -2.8735
11118TIP3    H254846   0.069   4.750  15.540  1.7407  2.5176  2.0794
11119TIP3   OH254847   4.198   6.006  14.911 -0.0708 -0.0273 -0.1995
11119TIP3    H154848   4.224   6.025  15.002  0.5754 -1.1143 -0.1432
11119TIP3    H254849   4.278   6.020  14.860  0.2085 -1.6914 -0.2704
11120TIP3   OH254850   2.791   6.626   0.197 -0.1024 -0.2968 -0.1100
11120TIP3    H154851   2.799   6.635   0.292  0.2720 -0.0626 -0.1568
11120TIP3    H254852   2.703   6.593   0.182 -0.5276  0.6334  0.2662
11121TIP3   OH254853   0.680   3.391   5.156  0.5760  0.4919 -0.4853
11121TIP3    H154854   0.708   3.351   5.239  1.8010  1.1513 -0.5678
11121TIP3    H254855   0.612   3.454   5.182 -0.5337 -0.7551 -0.2327
11122TIP3   OH254856   0.657   5.171  14.357 -0.3715 -0.2113 -0.0755
11122TIP3    H154857   0.706   5.219  14.424 -1.3798 -1.5141  1.6897
11122TIP3    H254858   0.629   5.238  14.296  0.4274  1.0815  0.9124
11123TIP3   OH254859   3.620   3.784  11.229  0.2397  0.3459 -0.1654
11123TIP3    H154860   3.680   3.734  11.284  0.8606  1.3568  0.1260
11123TIP3    H254861   3.657   3.873  11.230 -0.1833  0.5564 -1.5706
11124TIP3   OH254862   6.699   0.635   0.562  0.0016 -0.2325  0.2428
11124TIP3    H154863   6.791   0.612   0.547 -0.2281 -2.0150  1.2730
11124TIP3    H254864   6.650   0.573   0.509 -0.6333  0.7902 -0.3948
11125TIP3   OH254865   2.526   4.365  13.495  0.4473  0.1907 -0.4004
11125TIP3    H154866   2.453   4.308  13.518  0.9481 -0.1526  0.3518
11125TIP3    H254867   2.485   4.450  13.478 -0.1137  0.0579  0.2427
11126TIP3   OH254868   5.464   1.182  16.528  0.2140  0.3024 -0.0983
11126TIP3    H154869   5.476   1.277  16.531  2.2995  0.1143 -0.6884
11126TIP3    H254870   5.456   1.161  16.435 -4.4107  0.2024  0.0706
11127TIP3   OH254871   2.152   5.317  13.259 -0.7360 -0.1784  0.0102
11127TIP3    H154872   2.148   5.407  13.227  1.4137 -0.2015 -0.4249
11127TIP3    H254873   2.222   5.317  13.323 -0.1635 -1.6997 -0.5757
11128TIP3   OH254874   2.121   1.360  14.875  0.4287 -0.1949 -0.6968
11128TIP3    H154875   2.189   1.393  14.933  0.6324 -0.9301 -0.5115
11128TIP3    H254876   2.039   1.381  14.919  0.5773 -3.4466  1.4484
11129TIP3   OH254877   2.563   6.352  16.536 -0.4191 -0.0276  0.2161
11129TIP3    H154878   2.581   6.420  16.471 -1.1108 -0.3089 -0.2814
11129TIP3    H254879   2.539   6.275  16.485 -1.6235 -0.0668  0.8122
11130TIP3   OH254880   2.302   1.581   3.086  0.7063  0.1191  0.0002
11130TIP3    H154881   2.296   1.538   3.001  0.0029  0.6627 -0.2324
11130TIP3    H254882   2.254   1.523   3.145  0.0383  0.4047 -0.2482
11131TIP3   OH254883   4.904   1.175  14.048 -0.5351  0.0914 -0.1597
11131TIP3    H154884   4.901   1.137  14.136 -0.5211  1.5578  0.4985
11131TIP3    H254885   4.982   1.231  14.049 -1.1555  0.9910 -0.7313
11132TIP3   OH254886   2.471   6.510  14.882  0.6398 -0.1812  0.3877
11132TIP3    H154887   2.488   6.415  14.882 -0.3188 -0.3646 -0.4421
11132TIP3    H254888   2.443   6.529  14.793  0.5134  0.8351  0.6376
11133TIP3   OH254889   2.688   2.430  12.198 -0.8499 -0.1572 -0.3540
11133TIP3    H154890   2.719   2.430  12.107  0.8601 -1.6511  0.1650
11133TIP3    H254891   2.745   2.492  12.243 -0.8284 -0.4025 -0.0403
11134TIP3   OH254892   1.900   4.619  13.561 -0.3816  0.2099 -0.0243
11134TIP3    H154893   1.860   4.689  13.612  2.5634  0.2745  2.4895
11134TIP3    H254894   1.856   4.539  13.592 -0.4739  0.5091  0.6345
11135TIP3   OH254895   4.356   3.538   5.416  0.1243 -0.4301 -0.9668
11135TIP3    H154896   4.419   3.610   5.422 -0.0361 -0.3288 -0.4121
11135TIP3    H254897   4.279   3.570   5.464 -0.4947 -0.3964 -1.9605
11136TIP3   OH254898   2.279   3.768  16.638  0.2129 -0.6624  0.4832
11136TIP3    H154899   2.257   3.830  16.707  0.0338  0.4955 -0.5740
11136TIP3    H254900   2.243   3.807  16.558 -0.0528 -2.2173 -0.2010
11137TIP3   OH254901   3.692   0.390  12.374  0.3901  0.1737  0.2367
11137TIP3    H154902   3.658   0.423  12.291  1.2982  1.5119  0.3620
11137TIP3    H254903   3.617   0.395  12.434  0.5343  2.4195  0.3361
11138TIP3   OH254904   3.979   0.519   2.936 -0.2601 -0.8984 -0.3751
11138TIP3    H154905   4.060   0.543   2.982 -1.1865 -0.3119  1.0012
11138TIP3    H254906   3.969   0.586   2.869  0.5801 -1.1827 -0.8010
11139TIP3   OH254907   6.684   1.046  12.079 -0.0659 -0.2760 -0.7884
11139TIP3    H154908   6.636   1.129  12.072 -2.5838 -1.4527  0.8303
11139TIP3    H254909   6.697   1.018  11.989 -1.2243  0.8070 -1.3320
11140TIP3   OH254910   0.384   1.096  15.891 -0.1201 -0.0551 -0.1456
11140TIP3    H154911   0.385   1.005  15.861  2.7243 -1.1416  2.6307
11140TIP3    H254912   0.299   1.107  15.932 -0.1612 -1.8453  0.3360
11141TIP3   OH254913   6.279   5.536   3.323 -0.0133  0.0670 -0.1148
11141TIP3    H154914   6.266   5.446   3.292  0.1824 -0.0614  0.1660
11141TIP3    H254915   6.368   5.557   3.297 -0.3646  0.5112 -0.9818
11142TIP3   OH254916   4.017   5.708   0.060  0.0885 -0.4636 -0.7463
11142TIP3    H154917   4.062   5.697   0.144  0.9867  0.9733 -1.0086
11142TIP3    H254918   4.077   5.759   0.007 -1.2277  0.2388 -1.6310
11143TIP3   OH254919   0.774   3.095   2.182 -0.0158 -0.5791 -0.4864
11143TIP3    H154920   0.862   3.098   2.144 -0.0652 -0.3230 -0.5801
11143TIP3    H254921   0.742   3.007   2.162 -0.0825 -0.4085 -1.1312
11144TIP3   OH254922   0.550   3.112  14.986  0.2944  0.2009  0.2337
11144TIP3    H154923   0.504   3.046  15.038  0.3366  0.1457  0.2002
11144TIP3    H254924   0.591   3.063  14.916 -3.0610  0.6356 -2.2768
11145TIP3   OH254925   6.125   0.780  15.891 -0.3109 -0.6646 -0.6891
11145TIP3    H154926   6.214   0.751  15.868  0.0469 -0.9601  0.9533
11145TIP3    H254927   6.068   0.731  15.831  0.5378 -1.7192 -0.6712
11146TIP3   OH254928   0.669   4.096  12.159 -0.3737  0.0094 -0.3338
11146TIP3    H154929   0.705   4.112  12.071  0.3245  1.3901  0.1704
11146TIP3    H254930   0.575   4.108  12.149 -0.3200 -0.0272 -0.9320
11147TIP3   OH254931   4.305   3.148   5.981 -0.1776 -0.1630  0.4528
11147TIP3    H154932   4.330   3.154   6.073 -1.5216 -1.2310  0.9223
11147TIP3    H254933   4.215   3.182   5.978 -0.8765 -1.9240 -0.0829
11148TIP3   OH254934   5.809   0.390  13.368  0.7110 -0.1921 -0.1145
11148TIP3    H154935   5.883   0.334  13.394  0.5533 -0.4240 -0.1598
11148TIP3    H254936   5.836   0.478  13.394  1.0036 -0.2747 -0.1294
11149TIP3   OH254937   5.431   2.481   5.618 -0.3933 -0.4524 -0.0801
11149TIP3    H154938   5.503   2.423   5.645 -0.5463 -0.7071 -0.2172
11149TIP3    H254939   5.361   2.461   5.679  0.3465  1.3151  1.4304
11150TIP3   OH254940   5.628   2.358   3.689  0.1809 -0.6325 -0.2016
11150TIP3    H154941   5.586   2.274   3.671  1.2721 -1.1319 -0.4791
11150TIP3    H254942   5.695   2.366   3.621  0.2243  0.3729 -0.0531
11151TIP3   OH254943   5.855   0.123   1.532  0.1618 -0.5521  0.0343
11151TIP3    H154944   5.944   0.145   1.502  0.2793 -0.4434  0.4500
11151TIP3    H254945   5.798   0.183   1.485  0.3789 -0.1158  0.3124
11152TIP3   OH254946   2.758   6.341  17.227 -0.4358 -0.3522 -0.1835
11152TIP3    H154947   2.680   6.396  17.238 -0.9960 -0.8848 -1.3235
11152TIP3    H254948   2.828   6.403  17.206 -1.0967 -0.0500 -1.6424
11153TIP3   OH254949   2.303   4.137   3.549  0.6082 -0.1693 -0.0323
11153TIP3    H154950   2.370   4.183   3.600  0.0822  0.1703  0.3558
11153TIP3    H254951   2.347   4.115   3.467  0.7101  1.5405 -0.4749
11154TIP3   OH254952   2.401   2.910  15.598 -0.9080 -0.7053  0.2057
11154TIP3    H154953   2.470   2.912  15.664 -1.1597  0.6096  0.4629
11154TIP3    H254954   2.428   2.842  15.536  0.0581 -0.9542  0.8858
11155TIP3   OH254955   6.287   0.917  14.223 -0.5324  0.1055  0.3130
11155TIP3    H154956   6.364   0.908  14.167  1.2150 -1.1151  2.7133
11155TIP3    H254957   6.321   0.951  14.306 -2.0231 -2.9635  2.3849
11156TIP3   OH254958   6.489   0.371  13.156 -0.0065  0.1038  0.2926
11156TIP3    H154959   6.473   0.376  13.062  0.7815  0.2580  0.1630
11156TIP3    H254960   6.584   0.378  13.165 -0.2224  4.3860  1.3599
11157TIP3   OH254961   1.608   0.628  13.111  0.8139 -0.0905 -0.0595
11157TIP3    H154962   1.594   0.533  13.116 -0.5285  0.1641  2.2719
11157TIP3    H254963   1.549   0.657  13.041 -0.4327 -0.7189  0.6966
11158TIP3   OH254964   5.698   5.387   1.524 -0.6409 -0.1447  0.4573
11158TIP3    H154965   5.706   5.477   1.556  2.0887  0.3366 -1.2482
11158TIP3    H254966   5.761   5.337   1.577 -0.3487 -0.5362 -0.2560
11159TIP3   OH254967   0.880   4.375  15.289  0.2710 -0.5194 -0.0917
11159TIP3    H154968   0.915   4.288  15.309 -0.2044 -0.1828  2.5824
11159TIP3    H254969   0.795   4.357  15.248 -0.2035 -1.3564  1.1884
11160TIP3   OH254970   5.997   0.237  13.501 -0.3726  0.4512  0.1944
11160TIP3    H154971   5.996   0.198  13.588  0.1604 -0.1813 -0.0714
11160TIP3    H254972   6.020   0.164  13.443 -2.3935  0.4370 -0.6923
11161TIP3   OH254973   6.657   5.773  14.458  0.7556 -0.3677 -0.1992
11161TIP3    H154974   6.648   5.829  14.381 -1.4743  0.3629  0.5190
11161TIP3    H254975   6.636   5.685  14.427  2.0496 -0.4673 -0.8547
11162TIP3   OH254976   6.208   2.098   2.963  0.2264 -0.3870  0.0070
11162TIP3    H154977   6.271   2.160   2.999  1.4084 -1.7531  0.4133
11162TIP3    H254978   6.135   2.097   3.025  0.8649 -0.4753  0.7650
11163TIP3   OH254979   2.128   0.388  14.626 -0.4514  0.0029  1.0299
11163TIP3    H154980   2.223   0.401  14.621 -0.4680  0.0349  0.7600
11163TIP3    H254981   2.114   0.347  14.711 -0.3111  1.0018  1.5471
11164TIP3   OH254982   2.501   3.847   0.466  0.1471 -0.3963 -0.1495
11164TIP3    H154983   2.519   3.932   0.506  0.2140 -0.9366  1.0265
11164TIP3    H254984   2.426   3.813   0.515  1.1357 -1.7058  0.5150
11165TIP3   OH254985   5.520   3.751  14.735  0.0580  0.2840 -0.3226
11165TIP3    H154986   5.606   3.720  14.705  0.4512 -0.1585  1.1790
11165TIP3    H254987   5.473   3.671  14.759  0.0481  0.6430  0.9300
11166TIP3   OH254988   4.939   1.035  13.816  0.0189  0.3545  0.2040
11166TIP3    H154989   4.919   1.083  13.896  0.7955  2.5836 -0.8411
11166TIP3    H254990   4.873   1.063  13.753 -1.1452 -2.0647  0.2362
11167TIP3   OH254991   4.671   6.225   5.592  0.0053  0.0484  0.0872
11167TIP3    H154992   4.715   6.201   5.511  1.0996 -2.7100  1.3618
11167TIP3    H254993   4.578   6.225   5.570  0.2626 -0.9903 -1.0923
11168TIP3   OH254994   4.525   2.138   2.976  0.0072  0.6822 -0.0558
11168TIP3    H154995   4.559   2.223   2.948  0.4415  0.2164 -1.0049
11168TIP3    H254996   4.548   2.132   3.069 -0.2297  1.6904  0.0730
11169TIP3   OH254997   6.404   2.654   1.393 -0.2462  0.2611  0.2133
11169TIP3    H154998   6.400   2.718   1.465 -3.9388  1.5712 -0.8931
11169TIP3    H254999   6.434   2.704   1.318 -0.3523 -0.0309 -0.0250
11170TIP3   OH255000   4.563   0.309  16.484 -0.6087  0.8825  0.1556
11170TIP3    H155001   4.612   0.232  16.454 -0.9538 -0.0059  1.7918
11170TIP3    H255002   4.516   0.340  16.406 -0.2719 -0.4187 -0.5804
11171TIP3   OH255003   2.924   6.123   2.070 -0.1364  0.0837 -0.1720
11171TIP3    H155004   2.903   6.030   2.062 -0.3236  0.1492 -0.4329
11171TIP3    H255005   2.893   6.162   1.988 -2.2470  0.7980  0.8922
11172TIP3   OH255006   0.289   2.097  13.337 -0.1644 -0.1503  0.1919
11172TIP3    H155007   0.356   2.117  13.272  0.8008 -0.1977  1.1402
11172TIP3    H255008   0.231   2.173  13.336  0.4219  0.3010 -0.0097
11173TIP3   OH255009   1.632   4.902  16.534 -0.2253 -0.6887  0.0255
11173TIP3    H155010   1.634   4.969  16.466  1.2538 -1.1717 -0.4452
11173TIP3    H255011   1.540   4.875  16.539 -0.8486  1.3035  0.1938
11174TIP3   OH255012   6.056   5.497   6.023 -0.8227  0.3262 -0.3969
11174TIP3    H155013   6.019   5.464   6.105  0.5210 -0.9119 -0.2445
11174TIP3    H255014   5.982   5.539   5.978 -2.1719 -1.1653  0.3191
11175TIP3   OH255015   2.713   6.481  13.381  0.4951  0.4292  0.2204
11175TIP3    H155016   2.714   6.413  13.313 -0.1878  0.1622  0.4742
11175TIP3    H255017   2.805   6.488  13.408  1.2694  2.3590 -2.4939
11176TIP3   OH255018   5.325   3.737  11.424 -0.0995 -0.0298 -0.0381
11176TIP3    H155019   5.385   3.790  11.477 -0.4303  0.6019 -0.2857
11176TIP3    H255020   5.276   3.685  11.488 -3.7969  3.9777  0.8911
11177TIP3   OH255021   1.110   0.583  16.367 -0.3872  0.0182  0.0945
11177TIP3    H155022   1.136   0.495  16.341 -0.1486  0.7225 -2.2791
11177TIP3    H255023   1.155   0.598  16.450 -0.5131 -2.0897  0.6125
11178TIP3   OH255024   1.769   6.333   2.595 -0.4093  0.0186  0.3454
11178TIP3    H155025   1.753   6.417   2.553 -1.7833 -0.4819 -0.1831
11178TIP3    H255026   1.853   6.304   2.560 -0.9922  0.1394 -1.2261
11179TIP3   OH255027   6.389   1.927   0.746  0.2673 -0.1153  0.0817
11179TIP3    H155028   6.423   1.939   0.657  0.2037 -0.0774  0.0624
11179TIP3    H255029   6.335   1.848   0.740  0.5698 -0.3263  0.1755
11180TIP3   OH255030   1.168   4.904  16.759  0.4784  0.0231 -0.6373
11180TIP3    H155031   1.129   4.868  16.680  0.6360  0.8408 -1.1040
11180TIP3    H255032   1.247   4.949  16.728 -0.9420  2.8744 -0.5053
11181TIP3   OH255033   0.645   4.147   4.637  0.7647  0.5076 -0.0659
11181TIP3    H155034   0.602   4.212   4.581 -1.8611 -1.7352 -0.8905
11181TIP3    H255035   0.678   4.081   4.576  0.0075 -0.7864  0.8682
11182TIP3   OH255036   1.398   6.183  12.315 -0.2262 -0.4951  0.2483
11182TIP3    H155037   1.317   6.162  12.362 -0.2924  0.9257  0.8460
11182TIP3    H255038   1.384   6.149  12.227 -0.8023 -1.7031  0.7780
11183TIP3   OH255039   5.840   2.786   4.514  0.2898  0.3241 -0.3106
11183TIP3    H155040   5.927   2.750   4.495 -0.3750 -1.0791 -0.8144
11183TIP3    H255041   5.854   2.842   4.590  1.4335 -0.7849  0.3349
11184TIP3   OH255042   4.189   1.632  14.129  0.2953  0.2690 -0.0308
11184TIP3    H155043   4.172   1.720  14.162 -0.0432 -0.4534  1.8513
11184TIP3    H255044   4.253   1.595  14.191  1.3210 -0.4192 -1.4503
11185TIP3   OH255045   0.057   5.157   0.704  0.0514 -1.1587 -0.4893
11185TIP3    H155046   0.123   5.102   0.747  0.4229  0.5085  1.2026
11185TIP3    H255047  -0.023   5.142   0.754 -0.0697 -0.8228 -0.5833
11186TIP3   OH255048   2.617   1.390   2.710 -0.3309  0.8288 -0.5981
11186TIP3    H155049   2.545   1.332   2.687 -1.8101  3.0383 -1.9336
11186TIP3    H255050   2.601   1.414   2.801  1.2958 -2.0658  0.5954
11187TIP3   OH255051   6.067   2.361  11.726  0.5768 -0.3561  0.1405
11187TIP3    H155052   6.158   2.378  11.700 -0.0097  1.2108 -0.9791
11187TIP3    H255053   6.054   2.414  11.804  0.0819  0.9671 -0.8046
11188TIP3   OH255054   1.676   2.751   6.434  0.5059  0.3404  0.6446
11188TIP3    H155055   1.739   2.780   6.500  2.0120  1.5480 -1.2131
11188TIP3    H255056   1.680   2.655   6.437  1.2531  0.3886  1.6232
11189TIP3   OH255057   5.026   0.116  12.435 -0.2439 -0.2805 -0.6336
11189TIP3    H155058   5.008   0.202  12.471 -1.9406 -0.1306 -1.6764
11189TIP3    H255059   4.973   0.056  12.488  0.9529 -0.6949  0.1090
11190TIP3   OH255060   5.618   1.573  15.945  0.3464 -0.1961 -0.1146
11190TIP3    H155061   5.596   1.498  16.000  0.8144 -0.5460 -0.3920
11190TIP3    H255062   5.543   1.632  15.954 -0.0196 -0.6825  0.1321
11191TIP3   OH255063   3.943   4.558  14.771  0.0091  0.2993  0.8681
11191TIP3    H155064   3.893   4.565  14.689 -0.4535 -0.0661  1.1133
11191TIP3    H255065   3.972   4.647  14.790 -0.6898  0.5415  0.8048
11192TIP3   OH255066   1.288   0.250   1.630  0.6692  0.1325 -0.4218
11192TIP3    H155067   1.335   0.188   1.575 -0.5837 -0.8283 -0.4585
11192TIP3    H255068   1.210   0.203   1.658  0.1337  1.3927  0.2979
11193TIP3   OH255069   1.552   3.849   5.302 -0.0870  0.0506 -0.1086
11193TIP3    H155070   1.622   3.868   5.365 -0.3313 -0.3556  0.2978
11193TIP3    H255071   1.526   3.759   5.323 -1.0464  0.3559  0.0600
11194TIP3   OH255072   6.708   3.705  13.974 -0.5992 -0.2145  0.2902
11194TIP3    H155073   6.734   3.651  14.048 -0.3599 -1.1948 -0.4913
11194TIP3    H255074   6.755   3.668  13.899 -0.4259  1.0742 -0.2752
11195TIP3   OH255075   6.544   6.278  12.407 -0.1980  0.3115 -0.4109
11195TIP3    H155076   6.460   6.248  12.442  0.5583 -0.8240  0.5130
11195TIP3    H255077   6.602   6.282  12.483  0.6613  0.8096 -1.0738
11196TIP3   OH255078   2.329   0.401  12.772 -0.0091  0.3126 -0.4848
11196TIP3    H155079   2.296   0.333  12.713 -0.4966  0.8626 -0.8668
11196TIP3    H255080   2.339   0.358  12.856  1.7287 -0.7737 -1.2022
11197TIP3   OH255081   2.024   0.214  14.912 -0.4205 -0.6097  0.0067
11197TIP3    H155082   1.968   0.247  14.982  0.2182  3.6680 -1.2181
11197TIP3    H255083   2.109   0.200  14.953 -1.0339 -2.2873  0.8273
11198TIP3   OH255084   0.707   1.193   0.664 -0.0355 -0.4760 -0.5591
11198TIP3    H155085   0.651   1.126   0.626 -0.3643 -0.0831 -0.7747
11198TIP3    H255086   0.783   1.197   0.605 -0.8650  0.6235 -1.5936
11199TIP3   OH255087   0.120   5.332   6.139  0.0911 -0.1859  0.2239
11199TIP3    H155088   0.064   5.361   6.211  0.2710  0.2025  0.2111
11199TIP3    H255089   0.208   5.328   6.177  0.0229 -1.0499  0.3140
11200TIP3   OH255090   3.800   0.753   2.173  0.2108 -0.5190 -0.1516
11200TIP3    H155091   3.822   0.675   2.121  1.2030 -0.2081 -0.2216
11200TIP3    H255092   3.735   0.800   2.121 -0.3773 -1.2790 -0.1203
11201TIP3   OH255093   1.038   6.076   3.022 -0.0751  0.2586 -0.0420
11201TIP3    H155094   1.061   6.111   3.109 -0.8947 -2.6736  1.4822
11201TIP3    H255095   0.960   6.024   3.038 -0.5261  0.0152 -2.7042
11202TIP3   OH255096   0.347   0.926   4.461  0.4594  0.5009  0.6396
11202TIP3    H155097   0.361   0.833   4.443  2.2786  0.8937 -0.1990
11202TIP3    H255098   0.279   0.927   4.528 -0.4475 -1.3817 -0.1529
11203TIP3   OH255099   5.461   0.983   1.905  0.1388  0.5159  0.1026
11203TIP3    H155100   5.446   1.029   1.822  1.2382 -0.4846 -0.6867
11203TIP3    H255101   5.521   0.912   1.882 -2.0172 -1.7825  1.1343
11204TIP3   OH255102   5.637   3.330  11.644  0.3182  0.2840 -0.0931
11204TIP3    H155103   5.690   3.270  11.697  1.5982 -2.6675 -4.1705
11204TIP3    H255104   5.700   3.377  11.590 -0.9661  0.4045 -1.5713
11205TIP3   OH255105   1.941   3.939  11.791  0.5721 -0.4314 -0.1428
11205TIP3    H155106   1.865   3.937  11.849  0.0937 -0.1452 -0.7571
11205TIP3    H255107   1.949   4.030  11.764  0.8037 -0.5609 -0.5220
11206TIP3   OH255108   4.512   6.733   4.965 -0.3541 -0.1558  0.8736
11206TIP3    H155109   4.540   6.807   5.018 -0.4017  0.8104 -0.4173
11206TIP3    H255110   4.590   6.680   4.953 -0.2048 -0.0522  1.3874
11207TIP3   OH255111   1.071   6.470   5.329 -0.0181 -0.6021  0.4414
11207TIP3    H155112   1.125   6.410   5.380 -0.9790 -1.1168  0.8579
11207TIP3    H255113   0.981   6.448   5.351 -0.4501 -0.4862 -1.0758
11208TIP3   OH255114   3.007   4.927  10.509 -0.2948 -0.5560  0.9340
11208TIP3    H155115   3.004   4.866  10.583 -1.2806  0.1942  1.5332
11208TIP3    H255116   2.989   5.012  10.547 -2.9961 -0.4212 -0.4338
11209TIP3   OH255117   1.375   2.158  16.934 -0.4686 -0.5552  0.1103
11209TIP3    H155118   1.294   2.153  16.883 -0.9825  0.0350  0.8452
11209TIP3    H255119   1.350   2.204  17.015  0.7833  0.3996 -0.0162
11210TIP3   OH255120   6.342   0.141   1.856  0.1357 -0.4806 -0.0466
11210TIP3    H155121   6.351   0.053   1.821  1.1043 -0.9464  1.2785
11210TIP3    H255122   6.252   0.167   1.834  0.0216 -1.5730 -0.9390
11211TIP3   OH255123   0.146   1.154   2.809  0.1221 -0.8326 -0.1614
11211TIP3    H155124   0.080   1.201   2.859  1.2073 -0.0540  0.5817
11211TIP3    H255125   0.124   1.173   2.717 -1.5824 -1.8674 -0.0046
11212TIP3   OH255126   5.254   6.344   1.103  0.1474 -0.0601  0.1468
11212TIP3    H155127   5.201   6.303   1.171 -0.2506 -0.4642 -0.3972
11212TIP3    H255128   5.319   6.278   1.080  0.7449  0.3433  0.6366
11213TIP3   OH255129   2.057   2.253  13.702  0.0352 -0.0268 -0.1137
11213TIP3    H155130   2.098   2.272  13.786 -2.6075 -3.8010  2.3783
11213TIP3    H255131   2.093   2.168  13.677  0.4495  0.8181 -2.7003
11214TIP3   OH255132   1.812   4.667   0.714  0.2513  0.1429  0.0491
11214TIP3    H155133   1.726   4.637   0.744  0.2230  0.0096 -0.1619
11214TIP3    H255134   1.844   4.724   0.784 -0.0988  0.3584  0.0333
11215TIP3   OH255135   6.177   5.212   6.143 -0.7631  0.4468 -0.3411
11215TIP3    H155136   6.111   5.175   6.202 -0.1555 -0.7273 -0.3629
11215TIP3    H255137   6.157   5.305   6.141 -1.7927  0.2705  0.4509
11216TIP3   OH255138   4.891   5.598   5.201  0.1056 -0.6907  0.0951
11216TIP3    H155139   4.821   5.556   5.252 -1.2475 -0.3240 -1.3836
11216TIP3    H255140   4.901   5.542   5.124  1.4650 -0.7238  0.2689
11217TIP3   OH255141   0.311   2.012   5.970 -0.5260  0.0569  0.3984
11217TIP3    H155142   0.336   1.978   6.056 -0.8123  1.3916  1.0198
11217TIP3    H255143   0.334   2.105   5.973  0.2437 -0.0418 -1.2710
11218TIP3   OH255144   0.419   5.027  17.038  0.3633  0.1048 -0.6680
11218TIP3    H155145   0.332   5.054  17.067  0.6371 -0.8997  1.3018
11218TIP3    H255146   0.461   5.108  17.009 -1.2108  0.6021 -1.6621
11219TIP3   OH255147   0.570   1.835   1.629  0.7884 -0.2181  0.6988
11219TIP3    H155148   0.523   1.833   1.713 -1.6416  0.6156 -0.5496
11219TIP3    H255149   0.504   1.810   1.564  2.7776 -1.4982 -0.9351
11220TIP3   OH255150   5.695   0.512  14.017  0.4288 -0.1242  0.2783
11220TIP3    H155151   5.760   0.442  14.008  1.6553  0.7682  1.6360
11220TIP3    H255152   5.728   0.582  13.961  0.7689  0.4054  1.1216
11221TIP3   OH255153   4.695   2.415  11.359  0.0496 -0.2128  0.7086
11221TIP3    H155154   4.618   2.423  11.302  1.0690 -1.0142 -0.8702
11221TIP3    H255155   4.684   2.330  11.402 -0.7877  0.4520  1.8373
11222TIP3   OH255156   1.697   2.062  13.220 -0.6548 -0.3238 -0.2388
11222TIP3    H155157   1.677   1.994  13.156 -0.6547  0.8877 -1.5695
11222TIP3    H255158   1.613   2.079  13.263 -0.9570 -0.2270 -0.8533
11223TIP3   OH255159   1.463   6.115  15.968  0.1929  0.5391 -0.1285
11223TIP3    H155160   1.399   6.159  16.024 -0.2393  0.4284 -0.5334
11223TIP3    H255161   1.423   6.031  15.946 -0.0186  0.9250 -1.3036
11224TIP3   OH255162   5.652   1.560  15.141 -0.0523  0.7029  0.4815
11224TIP3    H155163   5.658   1.470  15.172 -1.3504  0.5264  0.2838
11224TIP3    H255164   5.722   1.568  15.077 -0.4376 -0.4384 -0.1170
11225TIP3   OH255165   1.084   2.532  15.105  0.3086 -0.0070  0.3069
11225TIP3    H155166   1.039   2.509  15.186  0.4426  1.8350  0.9525
11225TIP3    H255167   1.177   2.528  15.127  0.3386  0.9755  0.4176
11226TIP3   OH255168   0.821   3.982  14.131  0.4877  0.7749  0.5292
11226TIP3    H155169   0.733   3.950  14.113 -0.0366  2.3703  0.1219
11226TIP3    H255170   0.813   4.077  14.128  2.1388  0.9522  0.9346
11227TIP3   OH255171   1.268   1.072   3.690  0.2330  0.1954 -0.3647
11227TIP3    H155172   1.264   0.990   3.641  0.7862  0.2364 -0.4897
11227TIP3    H255173   1.360   1.080   3.716  0.1336  0.6509 -0.1394
11228TIP3   OH255174   5.517   3.933   0.086 -0.1089  0.3284 -0.7700
11228TIP3    H155175   5.535   3.943  -0.008 -0.9497 -0.4987 -1.0380
11228TIP3    H255176   5.469   3.851   0.092 -0.7775  0.7743  0.2918
11229TIP3   OH255177   2.225   6.706  16.418 -0.0486 -0.1588 -0.4337
11229TIP3    H155178   2.238   6.752  16.500  1.3224 -0.6256 -0.3559
11229TIP3    H255179   2.307   6.658  16.404 -0.7926 -1.2271 -1.3435
11230TIP3   OH255180   2.042   6.092  14.114  0.0765 -0.2116 -0.2585
11230TIP3    H155181   2.055   6.003  14.081 -1.0062 -0.5058  0.0717
11230TIP3    H255182   1.991   6.136  14.046  0.5278  0.1382 -0.3776
11231TIP3   OH255183   1.153   3.520   1.403 -0.2055 -0.3844 -0.1855
11231TIP3    H155184   1.148   3.570   1.321  1.7073 -0.0837 -0.1542
11231TIP3    H255185   1.196   3.438   1.378  1.8644  0.3565  0.7501
11232TIP3   OH255186   2.582   0.391  16.757 -0.2081 -0.0227  0.0598
11232TIP3    H155187   2.513   0.457  16.758  1.7745  2.2109  0.5277
11232TIP3    H255188   2.562   0.334  16.831 -1.0868  1.0827  0.7052
11233TIP3   OH255189   3.492   6.305  11.180 -0.3131 -0.2440  0.0194
11233TIP3    H155190   3.460   6.247  11.111  0.7908 -0.4677 -0.3224
11233TIP3    H255191   3.448   6.274  11.259 -0.0652 -1.3054 -0.2302
11234TIP3   OH255192   5.103   1.578   5.074  0.2826 -0.2875  0.0950
11234TIP3    H155193   5.175   1.546   5.130  0.7007 -1.6994 -1.1884
11234TIP3    H255194   5.147   1.623   5.002 -0.2759  2.0870  1.1405
11235TIP3   OH255195   2.363   3.231  14.983 -0.3500  0.0639 -0.2437
11235TIP3    H155196   2.318   3.185  15.054 -0.0112 -0.1899 -0.1908
11235TIP3    H255197   2.309   3.308  14.966 -0.6524 -0.0930  0.0103
11236TIP3   OH255198   3.149   4.171  15.276 -0.1555  0.0110  0.1558
11236TIP3    H155199   3.065   4.132  15.253 -1.1720  1.7277  0.8219
11236TIP3    H255200   3.153   4.252  15.225 -0.1176  1.2582  2.0612
11237TIP3   OH255201   2.712   0.796   3.570 -0.7312  0.4557  0.3514
11237TIP3    H155202   2.646   0.738   3.530  0.3807 -0.2650 -0.5118
11237TIP3    H255203   2.685   0.803   3.661 -0.6809 -1.8134  0.6156
11238TIP3   OH255204   3.213   3.938   0.812  0.1871  0.1044 -0.2838
11238TIP3    H155205   3.305   3.966   0.814  0.0542  0.6716 -1.5393
11238TIP3    H255206   3.206   3.885   0.732 -1.1246  2.0542 -1.5274
11239TIP3   OH255207   3.289   6.467   5.469  0.3006 -0.0162  0.3930
11239TIP3    H155208   3.375   6.435   5.443  0.2783  0.1737  0.0659
11239TIP3    H255209   3.299   6.494   5.560  1.1479  1.9093 -0.2121
11240TIP3   OH255210   2.573   6.161   2.445  0.0704 -0.5875 -0.3115
11240TIP3    H155211   2.510   6.168   2.374 -0.2086 -0.3213 -0.0402
11240TIP3    H255212   2.622   6.080   2.426  0.6972  0.0132 -1.3613
11241TIP3   OH255213   5.499   6.740  11.336  0.2128 -0.3185  0.3353
11241TIP3    H155214   5.434   6.750  11.266 -0.0281 -0.0390  0.5964
11241TIP3    H255215   5.581   6.766  11.296  0.4357 -2.0003 -0.4234
11242TIP3   OH255216   0.958   5.680  14.186 -1.0168 -0.5263  0.2309
11242TIP3    H155217   1.010   5.625  14.126  0.0442  0.1883  0.4598
11242TIP3    H255218   0.981   5.648  14.273  1.8007  1.9572  0.5728
11243TIP3   OH255219   0.729   0.294  11.636 -0.0883 -0.0629  0.0912
11243TIP3    H155220   0.769   0.284  11.550 -1.1236 -1.1577 -0.2963
11243TIP3    H255221   0.644   0.336  11.619 -0.8234 -1.3675  0.4063
11244TIP3   OH255222   5.575   6.396   3.735  0.0345 -0.0626 -0.4652
11244TIP3    H155223   5.498   6.420   3.684  1.5404  0.3017 -2.7118
11244TIP3    H255224   5.594   6.473   3.788 -0.7786  0.0763 -0.3741
11245TIP3   OH255225   1.489   3.065   3.022 -0.1214 -0.4638  0.2788
11245TIP3    H155226   1.490   3.103   3.110  0.7676  1.0802 -0.3445
11245TIP3    H255227   1.425   3.118   2.974  0.8566  0.0549 -0.5052
11246TIP3   OH255228   2.455   6.150   3.111  0.1771 -0.3853 -0.0929
11246TIP3    H155229   2.392   6.217   3.135  0.2749 -0.2231 -0.2890
11246TIP3    H255230   2.509   6.190   3.043  0.7769 -0.3676  0.3839
11247TIP3   OH255231   4.045   5.818  12.552 -0.0826 -0.3296 -0.2934
11247TIP3    H155232   3.989   5.746  12.582 -1.2515  1.1346  1.2532
11247TIP3    H255233   4.109   5.830  12.622  1.1100 -0.8599 -1.2638
11248TIP3   OH255234   6.603   3.453   0.723 -0.6031 -0.6697  0.6138
11248TIP3    H155235   6.539   3.406   0.671 -1.5817  1.6790 -0.4800
11248TIP3    H255236   6.551   3.494   0.793 -0.4537  1.4856 -0.4398
11249TIP3   OH255237   4.783   3.140   3.963 -0.2443 -0.3461  0.0089
11249TIP3    H155238   4.731   3.078   3.913 -1.3551  0.9239 -0.4693
11249TIP3    H255239   4.782   3.220   3.911  1.2720  0.0537  0.5408
11250TIP3   OH255240   6.612   3.097   6.086 -0.2595 -0.6761 -0.0386
11250TIP3    H155241   6.676   3.049   6.033  0.3563 -1.0579  1.0110
11250TIP3    H255242   6.624   3.062   6.175 -1.1963  0.0083  0.3732
11251TIP3   OH255243   5.832   2.251  11.639  0.1091 -0.0116  0.1009
11251TIP3    H155244   5.804   2.204  11.718 -1.6580 -1.1992 -1.1521
11251TIP3    H255245   5.902   2.309  11.669 -0.9207  0.0501  2.6588
11252TIP3   OH255246   2.994   3.584   1.141 -0.0406 -0.4120  0.3708
11252TIP3    H155247   2.988   3.496   1.179  0.9663  0.1141  1.8383
11252TIP3    H255248   2.939   3.638   1.198  0.7594  0.2208  0.5654
11253TIP3   OH255249   0.134   1.927  14.624 -0.2402 -0.2658  0.0880
11253TIP3    H155250   0.095   2.009  14.652 -0.8282 -0.1264 -1.0495
11253TIP3    H255251   0.083   1.902  14.546  0.4326 -1.3000 -0.0423
11254TIP3   OH255252   6.154   1.781   0.121 -0.3752  0.4975  0.1813
11254TIP3    H155253   6.245   1.802   0.097  0.1611  0.9441  2.3636
11254TIP3    H255254   6.150   1.798   0.215 -3.0602  1.6314 -0.0587
11255TIP3   OH255255   4.672   4.318   1.368  0.0518 -0.4999 -0.6521
11255TIP3    H155256   4.685   4.410   1.390 -0.6927 -0.4810 -0.2697
11255TIP3    H255257   4.721   4.306   1.286  0.3899  0.1603 -0.5522
11256TIP3   OH255258   3.519   5.576  10.761  0.2509 -0.6748  0.0958
11256TIP3    H155259   3.495   5.640  10.694 -1.8170  0.9231  2.1864
11256TIP3    H255260   3.437   5.531  10.781  0.7602 -0.9414  1.6960
11257TIP3   OH255261   0.419   5.880  10.381  0.3069 -0.3059  0.0765
11257TIP3    H155262   0.434   5.822  10.455 -0.1190 -1.8296 -1.0008
11257TIP3    H255263   0.487   5.857  10.318  0.9263  1.2573  0.1043
11258TIP3   OH255264   3.243   1.946  11.101 -0.4752 -0.5095  0.0825
11258TIP3    H155265   3.263   1.960  11.009 -0.6875  1.0880  0.2635
11258TIP3    H255266   3.160   1.991  11.115 -0.2040 -0.3190  1.1578
11259TIP3   OH255267   4.085   1.211  11.416  0.5693  0.0434  0.1822
11259TIP3    H155268   4.119   1.287  11.369 -2.4925  1.1704 -0.3695
11259TIP3    H255269   4.024   1.170  11.355  1.7137 -2.6320  0.6735
11260TIP3   OH255270   0.056   6.479  15.748  0.2506 -0.5301 -0.0117
11260TIP3    H155271   0.131   6.450  15.799  0.7222 -1.4828 -1.1917
11260TIP3    H255272  -0.020   6.447  15.797  0.7284 -2.9953 -0.7398
11261TIP3   OH255273   0.478   5.218   1.038  0.4343 -0.3077  0.2287
11261TIP3    H155274   0.500   5.310   1.024  0.0756 -0.2319  0.1592
11261TIP3    H255275   0.522   5.195   1.119 -1.0889  0.4800  1.3315
11262TIP3   OH255276   1.700   5.058   3.469 -0.0160  0.2503 -0.6596
11262TIP3    H155277   1.684   5.018   3.383 -3.4959 -0.4572  0.1254
11262TIP3    H255278   1.674   4.990   3.532  0.2811  1.5093  0.8967
11263TIP3   OH255279   5.117   4.446   2.941 -0.0147 -0.2802 -0.3589
11263TIP3    H155280   5.032   4.437   2.897 -0.8047  0.0511  1.0622
11263TIP3    H255281   5.116   4.534   2.977  1.6343  0.3476 -1.6944
11264TIP3   OH255282   3.255   2.795  14.916 -0.2662  0.3924 -0.2640
11264TIP3    H155283   3.169   2.816  14.881 -0.4297 -0.2688 -0.2721
11264TIP3    H255284   3.298   2.880  14.927 -0.7099  0.6892 -0.7819
11265TIP3   OH255285   1.130   0.835  15.644  0.0374  0.2710 -0.5072
11265TIP3    H155286   1.052   0.801  15.601 -0.1386  0.8056 -0.6100
11265TIP3    H255287   1.106   0.841  15.737  0.0299  0.2342 -0.5064
11266TIP3   OH255288   2.906   6.145  12.098  0.0806  0.2385 -0.3746
11266TIP3    H155289   2.814   6.171  12.103 -0.6235 -2.1870  0.7844
11266TIP3    H255290   2.945   6.181  12.178 -0.4130 -0.5206  0.2287
11267TIP3   OH255291   5.906   3.928   6.459 -0.3969 -0.2307  0.0024
11267TIP3    H155292   5.887   3.995   6.394  0.2986 -0.0050  0.0216
11267TIP3    H255293   5.837   3.938   6.524  1.0926  2.2634  1.3897
11268TIP3   OH255294   0.526   4.377   0.292 -0.0895 -0.0442  0.1901
11268TIP3    H155295   0.468   4.396   0.218  0.0104 -0.8428 -0.1003
11268TIP3    H255296   0.538   4.462   0.336 -0.8198  0.2770 -0.2199
11269TIP3   OH255297   0.817   5.974   3.740  0.3431  0.0809  0.5413
11269TIP3    H155298   0.775   6.056   3.713 -0.3543 -0.1557  0.8918
11269TIP3    H255299   0.770   5.948   3.819  0.5361 -0.6783  0.4077
11270TIP3   OH255300   5.703   5.127   3.976 -0.0371 -0.4422  0.2340
11270TIP3    H155301   5.773   5.109   4.039 -1.0407 -0.8950  1.2689
11270TIP3    H255302   5.695   5.046   3.926  1.1037  0.0915 -0.8491
11271TIP3   OH255303   5.701   4.952   5.703  0.3259  0.6133 -0.0229
11271TIP3    H155304   5.651   5.031   5.681 -0.6138 -0.0900 -0.4320
11271TIP3    H255305   5.673   4.930   5.791 -1.0777 -0.5097 -0.7166
11272TIP3   OH255306   1.616   0.224   3.420 -0.0676  0.2959  0.3055
11272TIP3    H155307   1.532   0.270   3.421 -0.9258 -1.1859  1.6753
11272TIP3    H255308   1.674   0.281   3.370 -1.3803  2.2521  0.8878
11273TIP3   OH255309   2.486   4.665   0.714  0.5616 -0.4401  0.5381
11273TIP3    H155310   2.416   4.654   0.650  1.0316 -0.4016  0.0147
11273TIP3    H255311   2.559   4.701   0.664  0.8835 -0.2666  1.1253
11274TIP3   OH255312   2.122   5.899  11.439 -0.2636 -0.3034 -0.5405
11274TIP3    H155313   2.087   5.816  11.406 -0.4912  0.5228 -2.4799
11274TIP3    H255314   2.208   5.876  11.475 -1.3846 -1.8015  1.4333
11275TIP3   OH255315   0.672   5.414   2.529  0.4092 -0.5327  0.3598
11275TIP3    H155316   0.758   5.424   2.488  0.0928  0.4061 -0.1228
11275TIP3    H255317   0.681   5.455   2.615  0.0992  0.7924 -0.2143
11276TIP3   OH255318   0.933   5.141   4.282  0.1495 -0.5659  0.8668
11276TIP3    H155319   0.862   5.084   4.312 -0.1145 -0.1323  1.0687
11276TIP3    H255320   0.996   5.081   4.241  0.2293 -1.0991  1.7462
11277TIP3   OH255321   1.657   0.528   4.298  0.3985 -0.6257 -0.0404
11277TIP3    H155322   1.731   0.467   4.297  0.6963 -0.2908  0.6860
11277TIP3    H255323   1.648   0.556   4.207  1.5013 -0.2795 -0.0605
11278TIP3   OH255324   2.688   3.669  13.803 -0.3801  0.6540  0.0394
11278TIP3    H155325   2.666   3.635  13.716 -0.0229  1.5439 -0.4112
11278TIP3    H255326   2.663   3.598  13.863 -1.6377  0.4399 -0.6887
11279TIP3   OH255327   5.891   2.627   1.046 -0.0208  0.0089 -0.2658
11279TIP3    H155328   5.916   2.663   0.961 -2.1391  0.6765 -0.6835
11279TIP3    H255329   5.839   2.549   1.025 -1.2311  0.6229  0.3487
11280TIP3   OH255330   4.250   0.030   3.932  0.2550 -0.0905  0.2396
11280TIP3    H155331   4.319   0.048   3.996  0.8858  0.3618 -0.5539
11280TIP3    H255332   4.281   0.071   3.851 -0.9004  0.0425 -0.1546
11281TIP3   OH255333   0.134   1.171  16.775  0.3454  0.2839 -0.2976
11281TIP3    H155334   0.136   1.169  16.870 -2.7581 -3.0035 -0.0855
11281TIP3    H255335   0.224   1.153  16.748  0.8674 -0.9706  2.0592
11282TIP3   OH255336   1.742   4.452  15.625 -0.2553  0.1853  0.5268
11282TIP3    H155337   1.752   4.496  15.541 -1.2850  0.8569  0.7397
11282TIP3    H255338   1.658   4.483  15.659  0.0354 -0.2474  1.6984
11283TIP3   OH255339   1.135   4.372  12.515  0.1311  1.2577  0.0731
11283TIP3    H155340   1.043   4.356  12.539  0.4079 -1.1252 -0.2471
11283TIP3    H255341   1.186   4.329  12.583  0.9909  0.9583 -0.7349
11284TIP3   OH255342   6.246   3.573  13.420  0.7107  0.1394 -0.8537
11284TIP3    H155343   6.202   3.658  13.424 -2.8804 -1.4789 -1.8729
11284TIP3    H255344   6.291   3.573  13.336 -1.2948  0.2632 -1.9984
11285TIP3   OH255345   3.425   5.232  11.109  0.2663  0.0764 -0.0648
11285TIP3    H155346   3.412   5.145  11.148 -0.4452  0.0219 -0.4014
11285TIP3    H255347   3.353   5.285  11.144  1.9908  1.2168  1.9872
11286TIP3   OH255348   3.178   2.817  10.945 -0.5873 -0.2154  0.1346
11286TIP3    H155349   3.252   2.877  10.955 -0.4476 -0.0344 -1.7035
11286TIP3    H255350   3.109   2.871  10.907 -1.1306 -0.7766  0.3082
11287TIP3   OH255351   3.248   0.928  15.509  0.2861  0.1230 -0.2796
11287TIP3    H155352   3.169   0.979  15.492  0.3989 -0.0373 -1.3225
11287TIP3    H255353   3.228   0.841  15.476  0.4730 -0.2438  0.5537
11288TIP3   OH255354   5.259   5.127  10.677 -0.2377  0.3380 -0.3578
11288TIP3    H155355   5.291   5.049  10.632 -1.8608  0.1881 -1.3183
11288TIP3    H255356   5.239   5.189  10.607 -1.0560  0.7966  0.2612
11289TIP3   OH255357   1.234   3.793  13.714  0.3323 -0.1081 -0.1145
11289TIP3    H155358   1.306   3.823  13.770 -1.2749 -0.5839  2.3921
11289TIP3    H255359   1.255   3.701  13.696  1.6001  0.4310 -1.6460
11290TIP3   OH255360   4.860   0.450  11.612 -0.2612  0.1067  1.0427
11290TIP3    H155361   4.810   0.505  11.673 -0.5788  0.5137  0.4248
11290TIP3    H255362   4.876   0.507  11.536  1.9953  0.3147  1.6030
11291TIP3   OH255363   6.032   5.575   4.161 -0.3348  0.2426 -0.2102
11291TIP3    H155364   5.969   5.600   4.227 -0.0567  0.5665 -0.0654
11291TIP3    H255365   6.042   5.480   4.172 -1.6398 -0.0085 -0.9812
11292TIP3   OH255366   6.696   0.992   5.540 -0.4720  0.0633  0.1261
11292TIP3    H155367   6.608   0.958   5.522 -1.6663  2.5356  0.8699
11292TIP3    H255368   6.720   0.956   5.625 -0.6375 -0.8202 -0.1945
11293TIP3   OH255369   4.618   2.260   1.187 -0.5723 -0.7661  0.2682
11293TIP3    H155370   4.675   2.307   1.126 -0.6273 -0.8978  0.1169
11293TIP3    H255371   4.673   2.190   1.221 -0.6552 -0.9138  0.0966
11294TIP3   OH255372   1.002   0.755   4.545  0.3358 -0.1169 -0.7082
11294TIP3    H155373   1.047   0.836   4.567 -0.1066 -0.1256  0.2536
11294TIP3    H255374   1.010   0.748   4.450 -0.0137  1.2898 -0.8565
11295TIP3   OH255375   5.452   0.486  13.870  0.7205 -0.5186  0.1332
11295TIP3    H155376   5.527   0.483  13.929  1.5876 -1.8350 -0.9788
11295TIP3    H255377   5.376   0.493  13.928  1.5950 -0.8512  1.3613
11296TIP3   OH255378   5.606   0.718  14.706  0.0265 -0.4118 -0.0388
11296TIP3    H155379   5.695   0.698  14.736 -0.2637  0.7686  1.7101
11296TIP3    H255380   5.608   0.811  14.684 -0.6122 -0.5378 -0.6994
11297TIP3   OH255381   5.498   2.504   5.039  0.4971 -0.4393  0.3965
11297TIP3    H155382   5.545   2.449   4.976  1.2526 -1.6979  1.9796
11297TIP3    H255383   5.481   2.446   5.113 -3.4496 -0.0274  0.0503
11298TIP3   OH255384   5.419   6.300  15.475  0.4218 -0.2394  0.5941
11298TIP3    H155385   5.352   6.358  15.513 -0.6226 -1.5920  0.9036
11298TIP3    H255386   5.379   6.268  15.395  1.1065 -0.3253  0.2810
11299TIP3   OH255387   2.030   0.523  12.049 -0.5904  0.4722 -0.7482
11299TIP3    H155388   1.938   0.535  12.028 -0.6867  2.0594  0.3667
11299TIP3    H255389   2.076   0.586  11.992 -0.5092  1.8818  0.7930
11300TIP3   OH255390   0.913   6.490   3.380  0.2508 -0.1048  0.6710
11300TIP3    H155391   0.922   6.571   3.431  0.3379 -0.7157  1.6571
11300TIP3    H255392   0.866   6.517   3.301 -0.2611  0.8059  1.2567
11301TIP3   OH255393   4.986   1.973   5.678  0.1278  0.0245  0.5593
11301TIP3    H155394   5.074   1.934   5.673 -0.7143 -1.8484 -0.4013
11301TIP3    H255395   4.927   1.898   5.684 -1.3498  1.2475  3.3746
11302TIP3   OH255396   2.740   0.054  12.446  0.2752 -0.4616  0.2168
11302TIP3    H155397   2.830   0.021  12.454  0.8765  0.7204 -1.3161
11302TIP3    H255398   2.687  -0.025  12.432  1.4741 -0.9919 -1.7504
11303TIP3   OH255399   1.811   3.246  12.881  0.4717  0.3439  0.5312
11303TIP3    H155400   1.800   3.151  12.872  1.5585  0.2787 -0.3725
11303TIP3    H255401   1.770   3.267  12.965 -1.1496 -0.6813  0.0370
11304TIP3   OH255402   2.118   6.747  13.827 -0.0714 -0.3414  0.0021
11304TIP3    H155403   2.059   6.819  13.851 -0.1992 -0.1722 -0.8076
11304TIP3    H255404   2.200   6.768  13.873  0.6411  1.5410 -1.9429
11305TIP3   OH255405   4.590   5.714  17.234  0.5397  0.2236  0.0556
11305TIP3    H155406   4.538   5.673  17.303  1.9068  0.8109  1.5033
11305TIP3    H255407   4.660   5.760  17.281 -1.0767  4.6024 -1.3124
11306TIP3   OH255408   6.369   5.199   0.653 -0.6698  0.0147  0.5820
11306TIP3    H155409   6.416   5.281   0.635  0.3196 -0.6668 -0.0485
11306TIP3    H255410   6.434   5.144   0.697  0.0284 -1.8759 -2.5241
11307TIP3   OH255411   5.511   1.682  14.903  0.5686  0.6474  0.4988
11307TIP3    H155412   5.576   1.690  14.832  1.0651 -0.6802  0.7777
11307TIP3    H255413   5.562   1.657  14.980 -0.1407  0.6606  0.9844
11308TIP3   OH255414   2.857   1.484  14.320 -0.1091  0.0012  0.5891
11308TIP3    H155415   2.782   1.426  14.331  0.5614 -1.1481 -0.6868
11308TIP3    H255416   2.933   1.431  14.346  0.7628 -0.5200 -2.5881
11309TIP3   OH255417   1.325   4.811   1.407  0.8827 -0.3824 -0.0272
11309TIP3    H155418   1.231   4.797   1.400  0.5800  0.4478  1.6720
11309TIP3    H255419   1.365   4.738   1.359 -0.5863  0.6551 -3.0615
11310TIP3   OH255420   0.594   1.593  10.235 -0.0851 -0.2100 -0.1424
11310TIP3    H155421   0.591   1.516  10.292 -0.9935  1.4369  2.1389
11310TIP3    H255422   0.632   1.662  10.288  1.3894  0.8142 -2.3749
11311TIP3   OH255423   6.197   1.927  13.580  0.0932  0.0737  0.1343
11311TIP3    H155424   6.164   1.865  13.645  2.0249 -0.9760  0.1996
11311TIP3    H255425   6.177   2.013  13.616  1.2591 -0.4728  2.2626
11312TIP3   OH255426   1.801   2.368  12.604 -0.2150  0.1873 -0.3727
11312TIP3    H155427   1.725   2.426  12.602 -0.1054  0.3234 -0.8487
11312TIP3    H255428   1.798   2.327  12.690  0.1133  1.4353  0.2529
11313TIP3   OH255429   0.870   4.714  15.084  0.1156 -0.1709 -0.6785
11313TIP3    H155430   0.951   4.726  15.133 -1.2494  1.8299  1.2633
11313TIP3    H255431   0.869   4.787  15.021  0.0956 -0.5656 -1.1462
11314TIP3   OH255432   1.849   5.381  12.987  0.0845 -0.1878  0.2162
11314TIP3    H155433   1.757   5.356  12.990 -0.4175  1.5316 -0.1365
11314TIP3    H255434   1.896   5.298  12.984 -1.4902 -1.0775 -0.9830
11315TIP3   OH255435   0.589   2.852   4.654  0.6987  0.3439 -0.2342
11315TIP3    H155436   0.524   2.893   4.596  0.4139  1.3859  0.8010
11315TIP3    H255437   0.620   2.923   4.709 -0.1261 -0.8988  1.9295
11316TIP3   OH255438   3.974   3.065   4.716 -0.2435 -0.1972 -0.1839
11316TIP3    H155439   4.004   3.002   4.782  1.5554  1.0495  0.2387
11316TIP3    H255440   4.025   3.144   4.732 -2.1911  1.2977 -0.9362
11317TIP3   OH255441   0.076   5.229   4.553  0.5337  0.1995  0.4245
11317TIP3    H155442   0.162   5.235   4.511  1.9441 -1.4414  2.8451
11317TIP3    H255443   0.055   5.136   4.554 -0.1364  0.3310  1.9803
11318TIP3   OH255444   6.695   4.285  15.515 -0.4936 -0.2300  0.2218
11318TIP3    H155445   6.683   4.308  15.423  1.5451 -0.0769 -0.0598
11318TIP3    H255446   6.610   4.250  15.542 -1.1529 -0.2803 -1.7066
11319TIP3   OH255447   0.911   5.265   1.791 -0.3020 -0.5900 -0.1708
11319TIP3    H155448   0.853   5.322   1.841 -1.7356  0.6896 -3.0735
11319TIP3    H255449   0.891   5.177   1.824 -0.7362  0.1913  1.8337
11320TIP3   OH255450   5.221   0.069  14.113  0.1578 -0.2486 -0.2522
11320TIP3    H155451   5.268  -0.002  14.069  0.4081 -0.4410  0.3070
11320TIP3    H255452   5.189   0.125  14.042 -2.3867 -2.3189 -0.8815
11321TIP3   OH255453   3.504   4.272  13.027 -0.2541 -0.2110  0.6082
11321TIP3    H155454   3.440   4.316  13.082  1.1181  3.8932 -0.6914
11321TIP3    H255455   3.487   4.306  12.939  2.7107 -0.1029 -0.0219
11322TIP3   OH255456   5.355   1.435  15.190 -0.2008  0.7127  0.0231
11322TIP3    H155457   5.381   1.368  15.127  1.1305 -0.4300  1.6917
11322TIP3    H255458   5.430   1.494  15.195 -0.8976  1.6646 -0.5524
11323TIP3   OH255459   4.883   4.614   0.779 -0.1734 -0.4304  0.3291
11323TIP3    H155460   4.955   4.554   0.797  0.0933  0.1933  1.4051
11323TIP3    H255461   4.876   4.668   0.857 -0.0104  1.3456 -0.8203
11324TIP3   OH255462   5.349   5.962  16.318 -0.3199  0.1575 -0.2530
11324TIP3    H155463   5.347   5.888  16.379  0.1206  0.2450 -0.1287
11324TIP3    H255464   5.259   5.969  16.286 -1.0029  1.2173  1.7048
11325TIP3   OH255465   4.309   2.499  12.923 -0.0656 -0.1138 -0.0033
11325TIP3    H155466   4.336   2.559  12.854  0.4227  1.1063  1.2131
11325TIP3    H255467   4.353   2.530  13.002 -1.6856 -0.6163  1.1664
11326TIP3   OH255468   5.377   3.530  15.661 -0.1794  0.2861  0.2651
11326TIP3    H155469   5.426   3.539  15.743 -0.8655 -1.6973  0.9497
11326TIP3    H255470   5.437   3.484  15.602 -0.0373  0.8588 -0.0501
11327TIP3   OH255471   6.510   1.807   0.424  0.2169 -0.1997 -0.0090
11327TIP3    H155472   6.579   1.753   0.386 -0.0940  0.2285 -1.2383
11327TIP3    H255473   6.525   1.803   0.518  2.3025  0.4066 -0.2624
11328TIP3   OH255474   6.817   6.614  11.955  0.0640 -0.4450  0.4759
11328TIP3    H155475   6.884   6.649  12.013 -0.2292 -2.1617  1.9581
11328TIP3    H255476   6.801   6.525  11.988 -2.7904 -0.1826  0.0688
11329TIP3   OH255477   1.080   3.638   5.921 -0.6692 -0.4980 -0.3511
11329TIP3    H155478   1.046   3.575   5.857 -0.9650 -0.9287  0.2143
11329TIP3    H255479   1.061   3.598   6.006  0.7223 -0.4740  0.0005
11330TIP3   OH255480   5.627   5.297  12.391  0.4460 -0.0044 -0.4436
11330TIP3    H155481   5.581   5.375  12.363  1.2997  0.1186 -1.5538
11330TIP3    H255482   5.558   5.231  12.403 -0.2072  0.7274 -0.1102
11331TIP3   OH255483   0.906   5.059  16.739  0.0909 -0.4194 -0.3260
11331TIP3    H155484   0.992   5.022  16.719 -0.7467 -1.7493 -1.8220
11331TIP3    H255485   0.906   5.073  16.833  2.1451  0.2149 -0.3822
11332TIP3   OH255486   1.719   3.905  11.213  0.0628 -0.9022 -0.0147
11332TIP3    H155487   1.784   3.943  11.154  0.1265  2.4614  1.9758
11332TIP3    H255488   1.635   3.918  11.169  0.2169  0.5067  0.0628
11333TIP3   OH255489   6.549   2.342   1.194  0.2966  0.0632 -0.1097
11333TIP3    H155490   6.456   2.333   1.171 -0.0698  2.0929  0.4513
11333TIP3    H255491   6.550   2.399   1.270  2.1164  2.0961 -1.5317
11334TIP3   OH255492   2.469   0.942  11.409 -0.3849 -0.1762  0.3500
11334TIP3    H155493   2.484   0.996  11.486 -0.8935 -0.2551  0.5087
11334TIP3    H255494   2.528   0.867  11.420  1.5361  1.1135 -0.6734
11335TIP3   OH255495   3.413   6.271  14.918 -0.3764  0.0026 -0.1178
11335TIP3    H155496   3.394   6.266  15.011 -0.6373 -0.1059 -0.1759
11335TIP3    H255497   3.503   6.240  14.910 -0.1605  0.5561  0.1624
11336TIP3   OH255498   4.544   3.668   2.806  0.1381 -0.6188 -0.4164
11336TIP3    H155499   4.529   3.757   2.773 -2.7752 -0.4162  1.2026
11336TIP3    H255500   4.545   3.677   2.901  3.9301 -1.8407 -0.1409
11337TIP3   OH255501   2.965   4.634  13.696  0.7769 -0.0948  0.3332
11337TIP3    H155502   2.996   4.691  13.625  1.5506 -0.4093  0.4097
11337TIP3    H255503   3.030   4.564  13.700  0.0579 -0.7624  0.5226
11338TIP3   OH255504   3.426   4.752  16.201 -0.3298  0.0529 -0.0245
11338TIP3    H155505   3.375   4.700  16.138  0.4921 -0.1786 -0.5113
11338TIP3    H255506   3.372   4.829  16.218 -0.4518  0.2399 -1.2133
11339TIP3   OH255507   6.332   0.385   0.359  0.5699  0.3051  0.0442
11339TIP3    H155508   6.348   0.342   0.443  0.5213  2.3481  1.1586
11339TIP3    H255509   6.342   0.315   0.294  0.6324 -1.3267  1.7243
11340TIP3   OH255510   6.399   3.640  15.668 -0.4716  0.0046 -0.7167
11340TIP3    H155511   6.435   3.717  15.623 -1.0382  0.7334  0.0435
11340TIP3    H255512   6.471   3.576  15.667  1.1447  1.6246  1.2637
11341TIP3   OH255513   3.498   2.776   0.656  0.3330  0.0993 -0.5685
11341TIP3    H155514   3.474   2.686   0.636  0.5345  0.0690 -0.6758
11341TIP3    H255515   3.510   2.817   0.570 -1.3570  0.6724 -0.5828
11342TIP3   OH255516   4.453   2.485   3.535 -0.4291  0.1177  0.0565
11342TIP3    H155517   4.501   2.562   3.506 -2.1587  0.8990 -0.8962
11342TIP3    H255518   4.479   2.472   3.626  2.9097 -0.6081 -0.8658
11343TIP3   OH255519   5.794   1.794   4.976 -0.1079  0.4668 -0.4231
11343TIP3    H155520   5.826   1.825   5.061 -1.6831  1.2525 -0.0649
11343TIP3    H255521   5.744   1.868   4.941 -1.5813 -0.7034 -0.8765
11344TIP3   OH255522   2.128   3.627   6.492  0.4111 -0.4479  0.0112
11344TIP3    H155523   2.057   3.566   6.474  0.0382  0.2063 -0.8326
11344TIP3    H255524   2.093   3.713   6.468  0.9341  0.1096  1.1154
11345TIP3   OH255525   5.217   3.049   1.647  0.2272 -0.6040 -0.0040
11345TIP3    H155526   5.225   3.013   1.736 -2.3846  0.5654  0.8282
11345TIP3    H255527   5.262   3.134   1.651 -0.2058 -0.3871  0.3304
11346TIP3   OH255528   2.730   2.558  10.962  0.0298  0.1849 -0.5245
11346TIP3    H155529   2.790   2.491  10.993 -0.0941  0.1696 -0.3124
11346TIP3    H255530   2.699   2.526  10.878  0.4476  0.2760 -0.7152
11347TIP3   OH255531   4.172   5.850   0.837  0.0515  0.8143  0.1870
11347TIP3    H155532   4.076   5.852   0.843  0.0421  3.8377  0.5667
11347TIP3    H255533   4.194   5.931   0.790  2.4977  1.2230  1.8786
11348TIP3   OH255534   5.302   0.775   3.894  0.5451  0.0394 -0.3133
11348TIP3    H155535   5.269   0.699   3.845 -1.7591  0.1652  0.8969
11348TIP3    H255536   5.358   0.737   3.963  2.2504 -0.2557 -1.7892
11349TIP3   OH255537   6.747   4.667   5.942 -0.6370  0.0383  0.1019
11349TIP3    H155538   6.668   4.662   5.995 -0.5390  1.4232  0.4222
11349TIP3    H255539   6.767   4.576   5.919 -2.2921 -0.3362  0.0368
11350TIP3   OH255540   4.046   2.735   0.271 -0.1367 -0.9871 -0.2252
11350TIP3    H155541   4.043   2.656   0.325 -0.5086 -1.0444 -0.3237
11350TIP3    H255542   4.095   2.710   0.193 -1.4417 -1.5404 -0.9041
11351TIP3   OH255543   0.298   2.226   5.462  0.0007 -0.4069 -0.2380
11351TIP3    H155544   0.336   2.231   5.550 -1.8747  2.6040  0.5664
11351TIP3    H255545   0.347   2.290   5.411 -1.0433  0.2780 -0.4118
11352TIP3   OH255546   4.589   3.677  16.775  0.4092 -0.0408  0.9489
11352TIP3    H155547   4.676   3.715  16.766  0.1260  0.8015  1.6264
11352TIP3    H255548   4.529   3.744  16.741  0.0156 -0.5366  0.6533
11353TIP3   OH255549   0.638   1.219   1.052  0.0487  0.1433  0.5443
11353TIP3    H155550   0.573   1.198   1.118 -0.7175 -0.7650 -0.4625
11353TIP3    H255551   0.715   1.168   1.076  0.1429  0.6297  1.3072
11354TIP3   OH255552   2.638   0.296  10.270 -0.2153 -0.0016  0.0030
11354TIP3    H155553   2.588   0.259  10.197  0.2952 -1.9848  0.5937
11354TIP3    H255554   2.571   0.333  10.328 -0.6015  2.0713 -1.6445
11355TIP3   OH255555   2.822   6.348  13.961  0.6824 -0.3729 -0.0507
11355TIP3    H155556   2.783   6.352  13.874  1.2349 -0.2418 -0.2999
11355TIP3    H255557   2.749   6.329  14.020  0.3418 -0.7036 -0.5711
11356TIP3   OH255558   0.143   0.052  13.688  0.1101 -0.1309  0.3856
11356TIP3    H155559   0.066   0.094  13.728 -0.5665 -1.5122  0.6031
11356TIP3    H255560   0.109   0.009  13.610  1.2942  1.9179 -1.3770
11357TIP3   OH255561   6.078   1.716  12.116 -0.5336 -0.2558  0.1034
11357TIP3    H155562   6.153   1.773  12.133 -0.3882  0.1179 -1.5886
11357TIP3    H255563   6.004   1.761  12.158 -0.2599  0.7410 -0.4396
11358TIP3   OH255564   2.574   0.418  12.645  0.6808 -0.0294 -0.3376
11358TIP3    H155565   2.485   0.425  12.677  0.0670 -0.5594 -1.8395
11358TIP3    H255566   2.628   0.453  12.716 -0.7828  1.2541  0.1957
11359TIP3   OH255567   3.205   1.513   3.083 -0.7474 -0.7043 -0.5760
11359TIP3    H155568   3.203   1.463   3.002  0.1106 -3.0141  0.7350
11359TIP3    H255569   3.176   1.451   3.150  1.8060  0.0437  1.3672
11360TIP3   OH255570   2.850   5.346  15.178  0.2371 -0.5973  0.1626
11360TIP3    H155571   2.810   5.289  15.112  1.9634 -0.6870 -0.8415
11360TIP3    H255572   2.845   5.434  15.140 -0.5686 -0.3375  0.8228
11361TIP3   OH255573   3.951   6.618   0.942 -0.0683 -0.6400  0.7631
11361TIP3    H155574   3.946   6.708   0.910 -1.1953 -1.5616 -1.9107
11361TIP3    H255575   4.030   6.616   0.996  0.0597  1.8916  0.7783
11362TIP3   OH255576   4.922   4.915   1.218  0.0141 -0.9281  0.0162
11362TIP3    H155577   4.992   4.925   1.282 -0.2362 -1.5241  0.3919
11362TIP3    H255578   4.847   4.961   1.256  0.8069  1.6876 -1.4099
11363TIP3   OH255579   0.402   4.388  15.247 -0.0140 -0.1393  0.2766
11363TIP3    H155580   0.374   4.373  15.337 -1.7938 -0.4469 -0.2779
11363TIP3    H255581   0.361   4.470  15.222 -0.7892 -0.7866 -0.6943
11364TIP3   OH255582   1.033   0.515   3.294 -0.2486  0.1217 -0.1902
11364TIP3    H155583   1.101   0.581   3.280 -1.1221  0.8131 -1.2995
11364TIP3    H255584   1.065   0.437   3.250  1.2033 -0.5415  1.8660
11365TIP3   OH255585   6.575   4.344  13.543  0.3599 -0.5008  0.0589
11365TIP3    H155586   6.544   4.294  13.618  2.1540  0.9879  1.9154
11365TIP3    H255587   6.657   4.302  13.519  2.1833  1.6793  2.0010
11366TIP3   OH255588   6.730   4.958   4.235 -0.0305 -0.1612  0.4391
11366TIP3    H155589   6.673   5.031   4.259  0.0850 -0.2961  1.1453
11366TIP3    H255590   6.784   4.992   4.163  0.7303  0.7933  1.4296
11367TIP3   OH255591   1.306   2.570   1.947  0.5499  0.1938  0.5827
11367TIP3    H155592   1.326   2.478   1.963  0.8291  0.2267  0.4400
11367TIP3    H255593   1.215   2.581   1.974 -0.3470 -0.7416 -1.8229
11368TIP3   OH255594   2.499   2.672  12.047 -0.1449 -0.0698 -0.0941
11368TIP3    H155595   2.491   2.678  11.951  0.7543  1.9866 -0.0812
11368TIP3    H255596   2.408   2.670  12.078 -0.4850 -2.2442 -0.9910
11369TIP3   OH255597   6.169   5.187   3.932  0.0859 -0.5962  0.0044
11369TIP3    H155598   6.147   5.244   3.858  0.5252 -0.8076 -0.2936
11369TIP3    H255599   6.145   5.238   4.009 -0.8214 -0.5598 -0.2889
11370TIP3   OH255600   5.178   1.513   4.065 -0.4646 -0.7962 -0.1555
11370TIP3    H155601   5.102   1.532   4.120 -2.2323 -1.7052 -2.1536
11370TIP3    H255602   5.203   1.423   4.088 -1.6578 -1.4451 -1.2471
11371TIP3   OH255603   0.042   1.764   6.366 -0.1258  0.4685 -0.7667
11371TIP3    H155604   0.111   1.781   6.430  1.0891  0.0328 -1.9160
11371TIP3    H255605   0.024   1.671   6.374 -1.1333  0.7107  0.0311
11372TIP3   OH255606   5.638   0.210   3.542  0.0242 -0.4828 -0.5798
11372TIP3    H155607   5.663   0.302   3.542  1.0885 -0.7606 -0.1971
11372TIP3    H255608   5.663   0.178   3.629  0.0440 -1.2299 -0.8477
11373TIP3   OH255609   4.897   4.266  11.430  0.5844  0.3008  0.6429
11373TIP3    H155610   4.874   4.340  11.373  2.2205  0.1433 -0.3030
11373TIP3    H255611   4.936   4.307  11.507 -0.1383  0.4669  0.9243
11374TIP3   OH255612   3.282   2.486  15.927 -0.0177 -0.0658 -0.9520
11374TIP3    H155613   3.210   2.512  15.870 -0.3808  0.9391 -0.0872
11374TIP3    H255614   3.283   2.391  15.924  0.3168 -0.0255 -3.0129
11375TIP3   OH255615   0.325   1.545   4.999  0.0868  0.2378  0.9066
11375TIP3    H155616   0.354   1.628   5.037 -1.3416  0.2520  2.0504
11375TIP3    H255617   0.267   1.570   4.928  1.2904  0.1942 -0.1344
11376TIP3   OH255618   3.419   0.819   1.720 -0.0662 -0.2730 -0.3348
11376TIP3    H155619   3.409   0.736   1.766  0.4794 -1.3926 -2.1640
11376TIP3    H255620   3.411   0.885   1.789 -0.1727 -1.8306  1.2150
11377TIP3   OH255621   1.326   3.039  12.393 -0.3771 -0.2823  0.1873
11377TIP3    H155622   1.256   3.100  12.367  1.0635  1.1525 -0.5141
11377TIP3    H255623   1.315   2.964  12.334 -3.0011 -1.4112  1.9326
11378TIP3   OH255624   5.311   1.826  13.939 -0.3494  0.4250 -0.0065
11378TIP3    H155625   5.265   1.905  13.969  1.9795  1.8410  0.0952
11378TIP3    H255626   5.338   1.847  13.849  0.9893  0.0946  0.2967
11379TIP3   OH255627   4.431   2.643   2.339 -0.1463 -0.2599 -0.7608
11379TIP3    H155628   4.376   2.643   2.261 -1.0416 -0.6380 -0.1345
11379TIP3    H255629   4.518   2.619   2.307 -0.6984 -1.3273 -1.5090
11380TIP3   OH255630   2.350   6.127  16.622 -0.7340  0.3562 -0.0459
11380TIP3    H155631   2.390   6.158  16.703 -1.6609  0.1836  0.4835
11380TIP3    H255632   2.424   6.093  16.571 -0.2820 -0.5484  1.1719
11381TIP3   OH255633   0.209   0.800   4.155  0.3639 -0.5020  0.3753
11381TIP3    H155634   0.145   0.861   4.193 -1.0501 -1.8289  0.2095
11381TIP3    H255635   0.213   0.824   4.063  0.4398 -0.1254  0.4753
11382TIP3   OH255636   2.232   3.830   5.344 -0.5383  0.8386 -0.5381
11382TIP3    H155637   2.169   3.867   5.405 -1.3478  0.4698 -1.1273
11382TIP3    H255638   2.276   3.761   5.394 -2.6347 -0.8710 -0.9195
11383TIP3   OH255639   3.257   1.597   0.065 -0.0243 -0.0819  0.3326
11383TIP3    H155640   3.331   1.616   0.123 -0.6520  2.0009  0.5218
11383TIP3    H255641   3.180   1.624   0.113 -0.7880 -0.6382 -0.5327
11384TIP3   OH255642   3.635   6.813   1.628  0.0246 -0.2052 -0.2136
11384TIP3    H155643   3.601   6.789   1.542 -1.6370 -0.6988  0.5480
11384TIP3    H255644   3.689   6.738   1.655  0.3910 -0.1305 -0.7194
11385TIP3   OH255645   3.327   1.533  15.978 -0.5701  0.0927 -0.1412
11385TIP3    H155646   3.293   1.583  16.052 -1.4861 -1.4313  0.5353
11385TIP3    H255647   3.413   1.504  16.006 -0.1953  0.9540 -0.3857
11386TIP3   OH255648   6.757   2.930   4.115 -0.0185  0.5495 -0.1892
11386TIP3    H155649   6.711   2.983   4.049 -0.8396 -1.7925 -1.6258
11386TIP3    H255650   6.835   2.898   4.070  0.5683  0.6799  0.7114
11387TIP3   OH255651   6.087   4.406   0.960  0.5565  0.2933 -0.2052
11387TIP3    H155652   6.006   4.436   1.001  0.0084 -1.8966  0.4428
11387TIP3    H255653   6.133   4.487   0.935 -1.5606  1.5922 -0.1276
11388TIP3   OH255654   5.385   6.509   3.543 -0.0551  0.3041 -0.1954
11388TIP3    H155655   5.391   6.597   3.505 -0.3684  0.7183  0.6732
11388TIP3    H255656   5.294   6.483   3.530 -0.3043  0.6730  0.7200
11389TIP3   OH255657   3.367   1.717  13.944 -0.0497  0.0374  0.1671
11389TIP3    H155658   3.443   1.686  13.895 -0.2460  0.8284 -0.6502
11389TIP3    H255659   3.333   1.638  13.987  1.3418 -0.2955  0.7210
11390TIP3   OH255660   2.089   5.564  14.395 -0.2732  0.5973  0.3986
11390TIP3    H155661   2.100   5.495  14.330  0.4583  0.3433  0.7820
11390TIP3    H255662   2.172   5.612  14.394 -0.0084  0.2061  1.5683
11391TIP3   OH255663   0.694   1.836   0.131 -0.1457  0.0990 -0.1850
11391TIP3    H155664   0.744   1.790   0.063  0.3622  1.3777 -0.7124
11391TIP3    H255665   0.739   1.813   0.213  0.1111 -0.3278 -0.4409
11392TIP3   OH255666   6.329   3.720   1.485 -0.2653  0.3983  0.1406
11392TIP3    H155667   6.411   3.750   1.447 -1.5592  4.5998  0.1823
11392TIP3    H255668   6.303   3.646   1.430  3.1736 -0.7178 -0.2061
11393TIP3   OH255669   3.971   4.053  11.844 -0.2008 -0.5528 -0.2322
11393TIP3    H155670   3.894   4.012  11.886 -2.0104 -0.4792 -3.1716
11393TIP3    H255671   4.026   3.979  11.818 -0.0406 -0.7010  0.5149
11394TIP3   OH255672   5.820   6.134  12.487 -0.1840 -0.0045  0.6828
11394TIP3    H155673   5.782   6.205  12.540  0.9060 -0.7676  2.5843
11394TIP3    H255674   5.751   6.113  12.424 -1.7515  0.6550  2.0896
11395TIP3   OH255675   1.135   0.299  11.395 -0.3304  0.0253 -0.4751
11395TIP3    H155676   1.049   0.340  11.382 -0.5702 -0.1694  0.4263
11395TIP3    H255677   1.120   0.233  11.463  0.6491  0.3880  0.1175
11396TIP3   OH255678   2.195   1.905   1.375 -0.0581  0.2328 -0.4211
11396TIP3    H155679   2.279   1.861   1.367 -0.0498 -0.0050  0.8459
11396TIP3    H255680   2.176   1.904   1.469 -1.8605 -0.4598 -0.7487
11397TIP3   OH255681   1.081   4.219   3.869  0.5631 -0.1428 -0.1533
11397TIP3    H155682   1.052   4.146   3.923  1.5265 -1.4800 -1.3737
11397TIP3    H255683   1.003   4.275   3.862 -0.1948 -1.0308  0.8262
11398TIP3   OH255684   6.503   3.497   5.045 -0.8049  0.2563 -0.2410
11398TIP3    H155685   6.486   3.495   5.140 -1.2562 -2.5392 -0.2873
11398TIP3    H255686   6.456   3.574   5.014 -1.4607  0.6905  1.6767
11399TIP3   OH255687   2.771   2.206   5.735 -0.1753  0.1890 -0.0956
11399TIP3    H155688   2.864   2.214   5.711 -0.3870  0.5194 -0.8573
11399TIP3    H255689   2.724   2.229   5.654 -0.9168 -0.4092  0.1575
11400TIP3   OH255690   4.952   1.004   6.015 -0.4335 -0.5120  0.0567
11400TIP3    H155691   4.956   0.910   6.032  0.2925 -0.1519  2.2630
11400TIP3    H255692   4.881   1.036   6.070  0.1466  0.4002  0.2987
11401TIP3   OH255693   3.738   4.190   5.898  0.2915 -0.5020 -0.5544
11401TIP3    H155694   3.658   4.228   5.933  0.8696  0.1751  0.0468
11401TIP3    H255695   3.708   4.113   5.849 -0.5729 -1.2318  1.0557
11402TIP3   OH255696   3.919   4.667   3.190 -0.2384  0.9928 -0.1858
11402TIP3    H155697   3.989   4.731   3.176  1.0283 -0.2314  0.3113
11402TIP3    H255698   3.871   4.700   3.266  1.2357  0.6882  0.9185
11403TIP3   OH255699   0.948   4.701  12.346  0.1849  1.1355  0.4561
11403TIP3    H155700   0.989   4.615  12.339  1.2619  1.6450  0.2640
11403TIP3    H255701   0.941   4.716  12.440 -0.9365  0.4194  0.4956
11404TIP3   OH255702   6.680   4.450   2.241  0.3515  0.3240  0.4733
11404TIP3    H155703   6.682   4.374   2.182 -0.9797  0.8650 -0.3149
11404TIP3    H255704   6.685   4.412   2.329  2.9183 -0.4764  0.0772
11405TIP3   OH255705   0.449   4.082  15.591  0.6194  0.0601  0.1041
11405TIP3    H155706   0.542   4.102  15.583  1.1549 -2.0912  0.4465
11405TIP3    H255707   0.433   4.011  15.529 -0.6174 -0.1084  0.5758
11406TIP3   OH255708   1.202   2.712   5.420 -0.0790 -0.2407 -0.1268
11406TIP3    H155709   1.187   2.685   5.329  0.6088 -0.0730 -0.2950
11406TIP3    H255710   1.258   2.643   5.456 -3.0997 -2.2191  1.2388
11407TIP3   OH255711   5.450   6.712  13.048 -0.1608 -0.4725 -0.0344
11407TIP3    H155712   5.441   6.685  13.139 -1.4394  0.3981  0.1253
11407TIP3    H255713   5.361   6.725  13.018  0.2601 -0.4367 -1.3262
11408TIP3   OH255714   5.825   6.628  13.619 -0.0762  0.1441  0.3923
11408TIP3    H155715   5.749   6.643  13.675  0.1105  1.0521  0.4243
11408TIP3    H255716   5.831   6.533  13.611  0.2464 -0.0498  2.4066
11409TIP3   OH255717   6.770   4.526   5.346  0.2580 -0.1890  0.2533
11409TIP3    H155718   6.856   4.490   5.326 -0.2588 -0.7184 -1.0977
11409TIP3    H255719   6.723   4.455   5.390 -0.1519 -0.6161 -0.8233
11410TIP3   OH255720   5.546   3.639   3.233  0.4679 -0.1460 -0.5000
11410TIP3    H155721   5.560   3.557   3.282  0.9688  0.2024 -0.0431
11410TIP3    H255722   5.606   3.701   3.274 -0.3473  0.6228 -0.4390
11411TIP3   OH255723   3.918   6.694   1.416 -0.4659 -0.1174 -0.3309
11411TIP3    H155724   3.824   6.683   1.425 -0.5985 -0.1612 -1.5837
11411TIP3    H255725   3.928   6.760   1.347  0.4091  1.2831  1.0562
11412TIP3   OH255726   2.550   1.590   4.337 -0.5993 -0.1735  0.2150
11412TIP3    H155727   2.595   1.644   4.272 -0.8166 -0.1565  0.0765
11412TIP3    H255728   2.468   1.636   4.354 -0.7994 -0.4736  0.0749
11413TIP3   OH255729   3.796   1.144   1.916 -0.6754  0.1670 -0.6547
11413TIP3    H155730   3.714   1.183   1.883 -1.7493 -1.1821  0.2943
11413TIP3    H255731   3.815   1.194   1.996 -0.7852  0.2347 -0.6692
11414TIP3   OH255732   0.213   1.133   5.076 -0.2369 -0.1814 -0.3641
11414TIP3    H155733   0.212   1.037   5.071  0.8956 -0.2160 -0.1754
11414TIP3    H255734   0.153   1.161   5.006  0.1843 -1.0107 -1.0767
11415TIP3   OH255735   2.540   3.761  14.130 -0.2997  0.3016 -0.0466
11415TIP3    H155736   2.611   3.813  14.167 -0.5622 -0.0597  1.0175
11415TIP3    H255737   2.462   3.815  14.143 -0.3204  0.3941 -0.5546
11416TIP3   OH255738   0.072   0.497   3.671 -0.1142 -0.3299 -0.5390
11416TIP3    H155739   0.161   0.473   3.645  0.3555 -0.4202  1.0329
11416TIP3    H255740   0.070   0.482   3.765 -2.0011 -0.9262 -0.6259
11417TIP3   OH255741   6.276   2.030   5.468 -0.1003  0.1284  0.2031
11417TIP3    H155742   6.201   2.090   5.466 -2.2285 -2.3909 -0.4314
11417TIP3    H255743   6.275   1.993   5.556 -0.1490 -0.5449 -0.0772
11418TIP3   OH255744   0.897   6.765  16.899 -0.0939 -0.0049  0.2481
11418TIP3    H155745   0.860   6.703  16.962 -1.1410  1.2860  0.9491
11418TIP3    H255746   0.831   6.834  16.892 -0.4035 -0.4480 -2.8787
11419TIP3   OH255747   3.526   2.659   6.252 -0.1416  0.4083 -0.0504
11419TIP3    H155748   3.619   2.652   6.273 -0.1772 -1.0274 -0.2439
11419TIP3    H255749   3.522   2.659   6.157 -0.3065  1.1065 -0.0457
11420TIP3   OH255750   1.149   5.129   1.710 -0.0264  0.7062  0.1543
11420TIP3    H155751   1.102   5.054   1.745  1.5547 -1.5377 -2.1595
11420TIP3    H255752   1.230   5.092   1.673  0.0772  3.2569 -2.5767
11421TIP3   OH255753   4.535   0.859  13.390  0.2557 -0.0637 -0.3156
11421TIP3    H155754   4.541   0.844  13.484  1.2970  0.0477 -0.3483
11421TIP3    H255755   4.560   0.775  13.350  0.3957  0.0573 -0.4863
11422TIP3   OH255756   4.167   2.302   2.385  0.3453 -0.0364  0.2384
11422TIP3    H155757   4.078   2.312   2.419  0.5082  1.8753  0.1936
11422TIP3    H255758   4.213   2.253   2.453 -1.1644 -2.8257 -0.5815
11423TIP3   OH255759   4.985   0.403   6.769 -0.0281 -0.1945  0.2857
11423TIP3    H155760   5.047   0.371   6.834  2.1673  0.6532 -1.2774
11423TIP3    H255761   4.965   0.326   6.715  0.4262 -0.2695  0.2209
11424TIP3   OH255762   4.829   6.146   4.815 -0.5651 -0.0824  0.0983
11424TIP3    H155763   4.807   6.238   4.804  0.0858  0.2705  1.4612
11424TIP3    H255764   4.922   6.145   4.836 -0.4807 -1.0787 -0.2589
11425TIP3   OH255765   2.604   3.404  16.705  0.4352  0.2937 -0.9945
11425TIP3    H155766   2.595   3.336  16.771 -0.2809  0.2879 -1.0904
11425TIP3    H255767   2.674   3.461  16.738 -0.8992  1.1476  0.5270
11426TIP3   OH255768   0.838   2.318  16.197  0.1672 -0.4081  0.1009
11426TIP3    H155769   0.805   2.346  16.282 -2.0561 -3.0049  0.2311
11426TIP3    H255770   0.786   2.240  16.176  0.7261  0.0610 -3.5855
11427TIP3   OH255771   2.658   3.250  12.504  0.6650 -0.3529  0.6872
11427TIP3    H155772   2.671   3.193  12.579 -2.8224 -1.7605  0.4250
11427TIP3    H255773   2.573   3.292  12.520  0.5309  0.4730 -1.7320
11428TIP3   OH255774   5.277   2.432   2.303 -0.1071 -0.4450  0.3255
11428TIP3    H155775   5.370   2.448   2.318  0.3191 -1.1264 -1.3674
11428TIP3    H255776   5.234   2.512   2.334  1.1684  0.4505 -0.1119
11429TIP3   OH255777   0.156   1.667   0.388  0.3122 -0.8422  0.2672
11429TIP3    H155778   0.112   1.732   0.443 -0.9165 -0.1908 -1.4225
11429TIP3    H255779   0.148   1.701   0.299  0.7189 -2.7223 -0.5336
11430TIP3   OH255780   6.035   4.867   4.631  0.4642 -0.0132 -0.1169
11430TIP3    H155781   5.998   4.945   4.672 -1.2225 -1.1491  0.6395
11430TIP3    H255782   6.110   4.899   4.581  0.2783  1.9651  0.7847
11431TIP3   OH255783   3.369   2.207  15.737 -0.2680  0.5754 -0.2923
11431TIP3    H155784   3.424   2.130  15.747 -0.9952  0.2257  1.2637
11431TIP3    H255785   3.348   2.210  15.644  1.1940 -0.0817 -0.6717
11432TIP3   OH255786   1.165   6.207   0.959 -0.4865  0.2087 -0.5758
11432TIP3    H155787   1.166   6.239   1.049  1.8639 -1.2433 -0.0010
11432TIP3    H255788   1.221   6.268   0.911  1.5783 -1.2220 -0.1115
11433TIP3   OH255789   6.235   4.251   5.065 -0.4912 -0.3214 -0.3475
11433TIP3    H155790   6.297   4.324   5.059  0.7954 -1.4104 -0.9792
11433TIP3    H255791   6.231   4.217   4.975 -2.4658  0.0447 -0.4447
11434TIP3   OH255792   6.260   0.783   0.015  0.4868  0.2173 -0.3252
11434TIP3    H155793   6.323   0.820  -0.048 -1.2872  1.1380 -1.6490
11434TIP3    H255794   6.272   0.836   0.094  2.2317 -0.4648 -0.0757
11435TIP3   OH255795   5.060   3.945   1.674  0.1159 -0.2624  0.1674
11435TIP3    H155796   4.970   3.916   1.687  0.5399 -1.5061  0.4466
11435TIP3    H255797   5.081   3.917   1.584  1.1391 -2.6505  1.0529
11436TIP3   OH255798   1.272   4.651   0.263  0.1389 -0.5578  0.5773
11436TIP3    H155799   1.322   4.601   0.198  1.7331  0.8325  0.6689
11436TIP3    H255800   1.249   4.732   0.218 -1.6115 -0.9318  0.7303
11437TIP3   OH255801   0.721   1.441  16.271  0.0374 -0.6923  0.5725
11437TIP3    H155802   0.777   1.363  16.270  0.1474 -0.6187  0.8590
11437TIP3    H255803   0.721   1.468  16.363 -1.6716 -1.5528  0.8651
11438TIP3   OH255804   1.779   5.015   6.104  0.6884 -0.5800  0.3956
11438TIP3    H155805   1.830   5.026   6.185 -1.5175  0.4080  1.7647
11438TIP3    H255806   1.712   5.084   6.109  1.0634  0.1540 -2.8129
11439TIP3   OH255807   0.237   4.961  16.748 -0.0115  0.5204 -0.6656
11439TIP3    H155808   0.227   5.011  16.829 -1.1264  0.4989 -0.7743
11439TIP3    H255809   0.149   4.930  16.728 -0.2592  2.4199 -3.0856
11440TIP3   OH255810   1.050   4.443  12.265 -0.4342 -0.0211  0.0826
11440TIP3    H155811   1.042   4.358  12.222  2.1747  0.6637 -2.0038
11440TIP3    H255812   1.094   4.424  12.348  0.0606 -0.7529 -0.3359
11441TIP3   OH255813   5.100   3.712  16.819  0.1444 -0.2574 -0.6395
11441TIP3    H155814   5.075   3.630  16.862  1.5368 -0.9392 -1.0803
11441TIP3    H255815   5.187   3.695  16.783  1.9158  2.3478  1.8953
11442TIP3   OH255816   1.097   3.793  11.868  0.3545 -0.8911  0.2441
11442TIP3    H155817   1.014   3.761  11.902  0.6348 -1.2200  0.6260
11442TIP3    H255818   1.161   3.771  11.935  0.8385 -1.0982 -0.2742
11443TIP3   OH255819   1.779   2.296   0.907  0.1252  0.1952 -0.2465
11443TIP3    H155820   1.852   2.356   0.893  0.0083  1.1681  2.6505
11443TIP3    H255821   1.809   2.213   0.871  1.7879  1.0632 -0.9933
11444TIP3   OH255822   2.792   2.700   1.001 -0.8655 -0.0537  0.3422
11444TIP3    H155823   2.862   2.763   0.984 -1.0031  0.3849  1.3352
11444TIP3    H255824   2.782   2.699   1.096 -0.6794 -1.7967  0.3839
11445TIP3   OH255825   4.533   1.701  12.522 -0.2138  0.0470 -0.4422
11445TIP3    H155826   4.465   1.633  12.516 -0.5317  0.2912  0.2752
11445TIP3    H255827   4.491   1.779  12.486 -0.3165  0.1945 -0.0117
11446TIP3   OH255828   5.681   4.053  15.678 -0.4666 -0.3209  0.2879
11446TIP3    H155829   5.663   4.145  15.693  0.3222  0.0878 -1.0258
11446TIP3    H255830   5.717   4.050  15.589 -1.5181 -2.0342 -0.1305
11447TIP3   OH255831   0.534   1.228   2.484  0.4097 -0.3654  0.6079
11447TIP3    H155832   0.505   1.310   2.524  2.6525  0.7588  0.1022
11447TIP3    H255833   0.518   1.162   2.552 -0.0146  0.7415  1.6273
11448TIP3   OH255834   3.724   1.042  16.301  0.4105 -0.0651 -0.6675
11448TIP3    H155835   3.691   1.103  16.366 -1.0498  0.2845 -1.6934
11448TIP3    H255836   3.818   1.036  16.319  0.0266 -0.1033  1.5323
11449TIP3   OH255837   5.635   5.193   1.017 -0.1700  0.2259  0.0481
11449TIP3    H155838   5.637   5.248   1.095  1.5194 -0.6215  0.6585
11449TIP3    H255839   5.705   5.227   0.961 -0.2685 -0.2073 -0.3497
11450TIP3   OH255840   6.773   3.567   4.945 -0.0934  0.2766 -0.5596
11450TIP3    H155841   6.776   3.534   4.855 -0.2382 -0.0863 -0.4318
11450TIP3    H255842   6.745   3.492   4.998  2.3995 -0.2596  0.1275
11451TIP3   OH255843   6.716   2.445  16.122 -0.1254  0.0190 -0.1942
11451TIP3    H155844   6.765   2.378  16.170  0.4148 -1.2842 -2.4367
11451TIP3    H255845   6.682   2.503  16.191  2.9267 -0.0879  1.5992
11452TIP3   OH255846   3.151   2.913   5.506 -0.0174  0.7538 -0.3181
11452TIP3    H155847   3.064   2.923   5.467  0.1478 -1.2990 -1.3828
11452TIP3    H255848   3.170   2.820   5.499  1.1791  0.7060  2.3817
11453TIP3   OH255849   2.437   5.908   2.901  0.5773 -0.3712 -0.1221
11453TIP3    H155850   2.349   5.885   2.871  0.3132 -0.1347  0.4382
11453TIP3    H255851   2.422   5.965   2.977  1.2067  0.8522 -0.8795
11454TIP3   OH255852   4.659   6.505   1.358 -0.2135 -0.0909  0.0432
11454TIP3    H155853   4.749   6.517   1.329 -0.4527 -0.7233 -1.0223
11454TIP3    H255854   4.616   6.589   1.343  0.3246  0.3882  1.0933
11455TIP3   OH255855   5.479   5.504   4.718  0.1430 -0.2678  0.1872
11455TIP3    H155856   5.569   5.485   4.694  0.0759  0.9994 -1.1931
11455TIP3    H255857   5.434   5.419   4.710  1.1384 -0.8778  0.7491
11456TIP3   OH255858   4.578   6.281  14.575 -0.4901  0.2153 -0.1853
11456TIP3    H155859   4.646   6.277  14.508  0.5261  1.1454  0.7478
11456TIP3    H255860   4.519   6.350  14.544  0.4847  1.3001  0.2944
11457TIP3   OH255861   1.842   3.101   3.790 -0.2789  0.2617 -0.1634
11457TIP3    H155862   1.920   3.138   3.831 -0.3716  1.3311 -0.9295
11457TIP3    H255863   1.843   3.133   3.700 -2.3051  1.4452  0.1584
11458TIP3   OH255864   1.918   4.147   4.175  0.1453  0.3474  0.3050
11458TIP3    H155865   1.916   4.187   4.088 -0.8138  1.3444  0.7678
11458TIP3    H255866   1.858   4.200   4.227 -2.0144 -2.2982  0.7174
11459TIP3   OH255867   6.480   5.122   2.925  0.0690 -0.3326  0.5971
11459TIP3    H155868   6.405   5.076   2.888 -0.0565  0.0865  0.3273
11459TIP3    H255869   6.555   5.066   2.905  0.0629  0.0764 -0.6507
11460TIP3   OH255870   4.063   4.729  12.680  0.1591  0.0273  0.2133
11460TIP3    H155871   4.141   4.784  12.670 -0.7894  1.6621  1.3164
11460TIP3    H255872   4.030   4.717  12.591 -0.1171  2.0636  0.0072
11461TIP3   OH255873   3.175   0.871   4.439 -0.4722 -0.4688  0.1826
11461TIP3    H155874   3.116   0.945   4.426 -0.1936 -0.0282  1.3494
11461TIP3    H255875   3.145   0.831   4.521 -0.5145 -1.5518 -0.3488
11462TIP3   OH255876   6.484   6.339  16.443 -0.8883 -0.1641  0.1632
11462TIP3    H155877   6.448   6.401  16.380  2.9511  0.6265 -1.5093
11462TIP3    H255878   6.476   6.384  16.527 -2.8279  0.2798 -0.1943
11463TIP3   OH255879   3.905   1.000   2.319 -0.0928  0.4025  0.1663
11463TIP3    H155880   3.822   1.047   2.334 -0.1676 -0.0509  1.3060
11463TIP3    H255881   3.882   0.930   2.257 -0.8707 -0.4728  1.3876
11464TIP3   OH255882   1.719   3.309   5.693 -0.1116 -0.5972  0.2512
11464TIP3    H155883   1.779   3.276   5.627  1.3895  0.9431  0.7657
11464TIP3    H255884   1.730   3.250   5.768 -0.3989 -1.2205 -0.1918
11465TIP3   OH255885   2.526   6.461   3.290 -0.2463 -0.1034  0.1829
11465TIP3    H155886   2.510   6.367   3.295  0.7503 -0.2462  1.1428
11465TIP3    H255887   2.583   6.472   3.214  0.2464 -0.3806  0.5057
11466TIP3   OH255888   0.671   5.007  12.857 -0.1414 -0.1511  0.5715
11466TIP3    H155889   0.741   5.054  12.903 -0.6920 -1.0874  2.4371
11466TIP3    H255890   0.670   5.047  12.770  2.1499  0.4640  0.7404
11467TIP3   OH255891   3.476   0.533  13.538 -0.0504 -0.4218  0.6993
11467TIP3    H155892   3.386   0.534  13.569 -0.7789  1.0671 -1.2453
11467TIP3    H255893   3.483   0.451  13.489 -0.5295 -0.3056  0.4258
11468TIP3   OH255894   0.821   0.852  11.900 -0.4137  0.1155  0.5262
11468TIP3    H155895   0.726   0.861  11.907 -0.4135 -0.2291  1.0282
11468TIP3    H255896   0.836   0.825  11.809 -0.8884 -0.8634  0.7263
11469TIP3   OH255897   0.578   4.624  17.227 -0.3231  0.2381  0.1700
11469TIP3    H155898   0.580   4.720  17.231 -0.5399  0.4843 -2.9506
11469TIP3    H255899   0.668   4.599  17.206 -0.1026 -0.3486  1.6997
11470TIP3   OH255900   5.948   0.679   3.447  0.1019  0.6784  0.0861
11470TIP3    H155901   5.945   0.681   3.543 -0.9669  1.6485  0.0598
11470TIP3    H255902   5.868   0.723   3.420 -0.0048 -0.2907 -1.2726
11471TIP3   OH255903   2.128   4.877   1.266  0.0393  0.2249  0.1761
11471TIP3    H155904   2.068   4.945   1.236 -1.0387 -0.9858 -0.5241
11471TIP3    H255905   2.133   4.815   1.193  1.5422 -0.1102  0.5274
11472TIP3   OH255906   5.374   4.031   3.200 -0.1698  0.0091 -0.2976
11472TIP3    H155907   5.415   3.968   3.140 -2.1143 -0.4632 -1.1786
11472TIP3    H255908   5.324   3.977   3.261  0.4764  0.5797  0.7701
11473TIP3   OH255909   2.819   5.726  12.905 -0.5272  0.0274 -0.2993
11473TIP3    H155910   2.839   5.820  12.911 -0.9845  0.0800  0.5638
11473TIP3    H255911   2.860   5.698  12.823  0.3212  0.8025 -0.1558
11474TIP3   OH255912   4.259   4.989   1.835  0.3910 -0.1224  0.1553
11474TIP3    H155913   4.298   5.006   1.921  2.3347  0.5030 -0.7893
11474TIP3    H255914   4.315   4.920   1.797 -1.1523 -1.2416 -0.1719
11475TIP3   OH255915   3.554   0.764  11.984 -0.0922  0.3977 -0.9995
11475TIP3    H155916   3.508   0.686  11.954 -0.7283  0.9846 -1.5725
11475TIP3    H255917   3.506   0.837  11.946  0.6081  1.0704 -0.6300
11476TIP3   OH255918   0.814   0.116  15.383  0.1398 -0.2849  0.1327
11476TIP3    H155919   0.859   0.193  15.349  0.7059  0.7177  2.8312
11476TIP3    H255920   0.879   0.046  15.377  0.2950 -0.0817 -0.5893
11477TIP3   OH255921   3.048   0.832  15.778  0.3739 -0.1484 -0.6499
11477TIP3    H155922   3.031   0.790  15.694  2.1485 -0.8441 -0.7144
11477TIP3    H255923   2.967   0.878  15.799 -0.3236 -0.4696 -2.4341
11478TIP3   OH255924   3.420   2.717  12.636  0.9594 -0.2737 -0.5823
11478TIP3    H155925   3.405   2.632  12.595 -2.0811 -0.2545  0.2179
11478TIP3    H255926   3.389   2.780  12.572 -0.0775 -0.0231  0.1355
11479TIP3   OH255927   0.659   4.379   0.764 -0.2517 -0.5044 -0.8589
11479TIP3    H155928   0.725   4.314   0.786  0.7533  1.1892  1.5265
11479TIP3    H255929   0.687   4.459   0.809 -3.3063  0.6312 -0.6820
11480TIP3   OH255930   2.649   3.150  15.599 -0.1231 -0.1030  0.1357
11480TIP3    H155931   2.744   3.160  15.592 -0.0214 -0.9799  0.2013
11480TIP3    H255932   2.634   3.118  15.688 -0.7679  3.0486  1.3338
11481TIP3   OH255933   4.279   4.695  15.366  0.4512 -0.1850 -0.3599
11481TIP3    H155934   4.347   4.746  15.410 -0.2916  0.8047 -0.3242
11481TIP3    H255935   4.260   4.623  15.426 -0.6021  1.1844  1.0238
11482TIP3   OH255936   0.634   1.142  10.613  0.1639 -0.5299  0.0498
11482TIP3    H155937   0.576   1.077  10.653 -2.3117  2.0082  0.8358
11482TIP3    H255938   0.599   1.226  10.640  0.8107  1.3272 -4.1241
11483TIP3   OH255939   5.411   1.746  15.262 -0.4412  0.1445 -0.5299
11483TIP3    H155940   5.324   1.705  15.269  0.3546 -1.8834 -1.4591
11483TIP3    H255941   5.446   1.744  15.351 -0.8285 -0.3048 -0.3832
11484TIP3   OH255942   2.223   2.395  13.889  0.2676  0.1790  0.2625
11484TIP3    H155943   2.288   2.419  13.823 -1.1459  1.1800 -0.8193
11484TIP3    H255944   2.258   2.430  13.971  1.5416 -0.1579 -0.1207
11485TIP3   OH255945   2.820   3.866  13.952  0.2041 -0.2591  0.6498
11485TIP3    H155946   2.768   3.945  13.934 -1.9232 -1.2706  1.9495
11485TIP3    H255947   2.772   3.796  13.906  1.6171 -0.9487  0.1726
11486TIP3   OH255948   0.281   5.052   0.946  0.1896 -0.0390  0.0892
11486TIP3    H155949   0.316   4.975   0.992  1.2362 -1.2288 -2.5277
11486TIP3    H255950   0.322   5.127   0.990  0.8543 -1.0678  1.2989
11487TIP3   OH255951   2.181   3.833   4.857  0.1493 -0.1364 -0.1595
11487TIP3    H155952   2.166   3.762   4.794 -1.9068  0.0755  0.0096
11487TIP3    H255953   2.098   3.840   4.905  0.9834  1.0636  1.1940
11488TIP3   OH255954   6.166   4.156  11.622  0.2886  0.0116 -0.3525
11488TIP3    H155955   6.134   4.174  11.710  1.3558 -0.0329  0.0647
11488TIP3    H255956   6.090   4.168  11.565 -0.2598  0.6958  0.4999
11489TIP3   OH255957   5.801   2.602   0.398  0.5511  0.0689 -0.5608
11489TIP3    H155958   5.759   2.523   0.431 -1.3938  0.7761 -1.1767
11489TIP3    H255959   5.743   2.632   0.328  1.0440  2.1852 -0.1335
11490TIP3   OH255960   1.690   1.001   0.843  0.0107 -0.0890 -0.2419
11490TIP3    H155961   1.717   1.009   0.751  0.1237  0.2696 -0.1779
11490TIP3    H255962   1.748   0.935   0.879 -0.1431 -0.3520 -0.4728
11491TIP3   OH255963   3.229   4.710   1.799 -0.0987  0.0262 -0.6423
11491TIP3    H155964   3.190   4.791   1.769 -0.9259 -0.6029 -1.3053
11491TIP3    H255965   3.266   4.670   1.720 -2.3618 -1.6799 -0.9400
11492TIP3   OH255966   2.126   5.994   3.162 -0.5719 -0.5112  0.1399
11492TIP3    H155967   2.152   6.082   3.136 -0.9652 -0.7396 -1.1203
11492TIP3    H255968   2.140   5.941   3.083 -0.7305 -1.4931  0.7493
11493TIP3   OH255969   6.442   1.166   3.305  0.2762  0.0231 -0.8660
11493TIP3    H155970   6.523   1.116   3.322 -0.0001 -0.1742 -0.1022
11493TIP3    H255971   6.473   1.254   3.286  0.7065 -0.1736 -1.1144
11494TIP3   OH255972   2.637   3.373  10.500 -0.3926  0.2274 -0.0964
11494TIP3    H155973   2.636   3.469  10.500 -0.9139  0.2202 -0.8545
11494TIP3    H255974   2.592   3.349  10.581 -0.1766  0.6180  0.1448
11495TIP3   OH255975   0.379   3.591  16.648  0.1313 -0.4163 -0.3092
11495TIP3    H155976   0.304   3.546  16.686  0.7539 -0.4939  0.8873
11495TIP3    H255977   0.399   3.541  16.568 -0.9471 -0.5078 -0.5400
11496TIP3   OH255978   2.129   1.448  12.641 -0.3200 -0.0249  0.3283
11496TIP3    H155979   2.118   1.363  12.683 -1.4563 -0.2177 -0.3196
11496TIP3    H255980   2.144   1.509  12.713 -1.2637 -0.5076  0.9536
11497TIP3   OH255981   5.344   5.260  15.334  0.0669  0.3839 -0.0623
11497TIP3    H155982   5.399   5.257  15.412 -0.0127  1.2679  0.0452
11497TIP3    H255983   5.255   5.266  15.367 -0.0806 -0.6641 -0.2366
11498TIP3   OH255984   4.654   4.083  12.944 -0.2141  0.0317  0.3165
11498TIP3    H155985   4.634   4.052  12.856  0.2308  0.4592  0.0611
11498TIP3    H255986   4.571   4.075  12.992 -0.2698 -0.9278  0.0770
11499TIP3   OH255987   6.155   4.054   3.470  0.4573  0.4357 -0.0467
11499TIP3    H155988   6.192   4.123   3.524 -0.4553  0.5731  0.4250
11499TIP3    H255989   6.179   3.972   3.514  0.0664  0.5295  0.3389
11500TIP3   OH255990   1.786   3.128  11.078  0.4817 -0.1688  0.2578
11500TIP3    H155991   1.860   3.125  11.139  0.1500  0.7542  0.7281
11500TIP3    H255992   1.817   3.082  11.000  0.7623 -1.7877  1.2829
11501TIP3   OH255993   1.274   5.689   3.362  0.0289  0.1426  0.6590
11501TIP3    H155994   1.330   5.766   3.350 -0.4687  0.1815 -2.3839
11501TIP3    H255995   1.186   5.725   3.372  0.1652  0.0006  2.7801
11502TIP3   OH255996   0.939   6.114  16.274 -0.1157 -0.4180 -0.7061
11502TIP3    H155997   0.890   6.174  16.331 -0.4778 -0.1592 -1.2783
11502TIP3    H255998   1.027   6.111  16.311 -0.4795 -0.6603  0.1715
11503TIP3   OH255999   2.708   3.740  14.791 -0.6778  0.3644  0.2518
11503TIP3    H156000   2.748   3.796  14.724  0.2881 -0.6201 -0.0098
11503TIP3    H256001   2.641   3.691  14.743  1.0657 -1.5003 -0.4005
11504TIP3   OH256002   5.842   5.404   2.542  0.0884 -0.0195 -0.1218
11504TIP3    H156003   5.878   5.330   2.591  1.1622  1.1893  0.9978
11504TIP3    H256004   5.831   5.473   2.608 -0.4925  0.9601 -1.2078
11505TIP3   OH256005   6.181   0.653   5.544  0.4449 -0.4916 -0.0209
11505TIP3    H156006   6.273   0.641   5.520  0.2596 -1.1664 -0.4084
11505TIP3    H256007   6.159   0.740   5.511  1.0585 -0.1563  0.4376
11506TIP3   OH256008   2.317   0.023  14.027  0.4317  0.1107  0.0770
11506TIP3    H156009   2.394   0.043  14.081  0.2772 -0.9191  0.7158
11506TIP3    H256010   2.333   0.069  13.945  1.2796  0.6893  0.5441
11507TIP3   OH256011   6.054   2.824   2.920 -0.4293  0.0236  0.1835
11507TIP3    H156012   6.000   2.778   2.856  2.4548  0.1882 -2.6224
11507TIP3    H256013   6.055   2.915   2.889 -0.8231  0.6210  1.8500
11508TIP3   OH256014   2.885   2.356  15.806 -0.5898  0.4545 -0.4970
11508TIP3    H156015   2.955   2.331  15.866 -0.4353  0.1149 -0.8148
11508TIP3    H256016   2.818   2.289  15.818 -0.2481 -0.0224 -1.2268
11509TIP3   OH256017   0.865   5.963   0.201 -0.1303 -0.1155  0.3786
11509TIP3    H156018   0.874   5.887   0.257  1.2716 -0.7420 -0.6260
11509TIP3    H256019   0.891   5.932   0.114 -1.4725  1.0096 -0.4782
11510TIP3   OH256020   1.408   4.295  14.080 -0.1455 -0.6073 -0.2629
11510TIP3    H156021   1.364   4.265  14.159 -0.7969 -0.7063 -0.6587
11510TIP3    H256022   1.400   4.222  14.018  0.8240 -0.7391 -0.2474
11511TIP3   OH256023   3.135   5.256   3.231 -0.5139  0.7079  0.0007
11511TIP3    H156024   3.101   5.284   3.145  0.1656 -1.9496 -1.2228
11511TIP3    H256025   3.057   5.253   3.287 -1.3225  0.5259 -1.0849
11512TIP3   OH256026   5.965   0.087   5.035 -0.0358  0.7390  0.1413
11512TIP3    H156027   6.052   0.069   4.999 -0.1263  1.2249 -0.3291
11512TIP3    H256028   5.966   0.181   5.054 -0.1077  0.5563  1.0887
11513TIP3   OH256029   1.500   0.679   0.311 -0.1372 -0.2063 -0.7879
11513TIP3    H156030   1.570   0.741   0.329 -1.0660  0.3440  1.1771
11513TIP3    H256031   1.460   0.711   0.230 -0.5733  1.7708  0.1554
11514TIP3   OH256032   3.924   0.897  12.427  0.2872  0.1387 -0.3358
11514TIP3    H156033   3.978   0.845  12.486  0.5595 -0.4290 -1.0707
11514TIP3    H256034   3.880   0.833  12.371 -0.4381  0.6369 -0.3623
11515TIP3   OH256035   0.007   5.101   2.167  0.2119 -1.0408  0.0476
11515TIP3    H156036  -0.027   5.052   2.092 -0.5053  0.0712 -0.3778
11515TIP3    H256037   0.028   5.187   2.132  1.8303 -1.1430  0.7042
11516TIP3   OH256038   0.264   4.865  10.824  0.3912 -0.4174 -0.0565
11516TIP3    H156039   0.292   4.892  10.736  0.3087 -0.5832 -0.1339
11516TIP3    H256040   0.220   4.781  10.810  1.0349 -0.8137  0.2327
11517TIP3   OH256041   4.432   1.138   5.889  0.4163 -0.3419  0.2170
11517TIP3    H156042   4.459   1.163   5.977 -0.4950 -2.1913  1.0700
11517TIP3    H256043   4.352   1.088   5.902 -0.1778  0.0266 -1.7457
11518TIP3   OH256044   1.832   6.553   5.006  0.2267  0.0479  0.1467
11518TIP3    H156045   1.853   6.614   5.077 -0.1462  0.7015 -0.2927
11518TIP3    H256046   1.737   6.544   5.010  0.3603 -1.3087  0.8406
11519TIP3   OH256047   2.349   5.699   3.742 -0.0175 -0.1355 -0.0786
11519TIP3    H156048   2.397   5.782   3.745 -1.3995  0.7956 -1.9825
11519TIP3    H256049   2.274   5.712   3.800  0.9492 -0.9639  1.4701
11520TIP3   OH256050   1.123   4.692   3.943  0.2234 -0.0618 -0.2765
11520TIP3    H156051   1.214   4.682   3.969  0.6096 -0.0640 -1.5601
11520TIP3    H256052   1.082   4.609   3.966  0.6547 -0.2240 -0.0912
11521TIP3   OH256053   2.224   0.938  12.564 -0.2296 -0.3050  0.9610
11521TIP3    H156054   2.249   0.938  12.656  0.7712  1.0533  0.7268
11521TIP3    H256055   2.151   1.000  12.559  1.7052  2.0670  0.4211
11522TIP3   OH256056   6.459   6.523   3.535  0.1792 -0.3309 -0.3248
11522TIP3    H156057   6.379   6.575   3.537  0.9043  0.8284 -0.7524
11522TIP3    H256058   6.501   6.540   3.619 -0.3009 -1.4382  0.1680
11523TIP3   OH256059   1.244   0.014   0.413 -0.0070 -0.3731  0.1853
11523TIP3    H156060   1.225   0.096   0.368 -1.3536 -1.2006 -0.8128
11523TIP3    H256061   1.322  -0.020   0.369  0.5046  0.2946  0.5461
11524TIP3   OH256062   2.027   2.520  15.314 -0.3368  0.4806  0.3972
11524TIP3    H156063   1.993   2.449  15.258  1.9545  0.8145 -1.5735
11524TIP3    H256064   2.117   2.495  15.332 -0.5614  1.1766  2.7461
11525TIP3   OH256065   5.895   5.013   1.869 -0.0052  0.2616 -0.2521
11525TIP3    H156066   5.839   5.064   1.810 -0.7210 -2.5611 -2.2153
11525TIP3    H256067   5.866   4.923   1.858  2.2476 -0.8396  1.8066
11526TIP3   OH256068   6.712   0.714   6.036  0.2353 -0.1146  0.4681
11526TIP3    H156069   6.643   0.659   6.001 -0.6262  0.9590  0.4379
11526TIP3    H256070   6.702   0.709   6.131  0.2102 -0.0603  0.4679
11527TIP3   OH256071   0.435   0.352   2.370  0.3689 -0.5187  0.6237
11527TIP3    H156072   0.404   0.263   2.356 -0.2406 -0.2683  0.3526
11527TIP3    H256073   0.414   0.398   2.288 -0.4271  0.1712  1.1926
11528TIP3   OH256074   0.018   1.011   4.199  0.2059  0.1335 -0.0500
11528TIP3    H156075   0.013   1.045   4.289  0.9391  0.0480  0.0237
11528TIP3    H256076   0.037   1.088   4.145 -0.9078  0.3044 -0.2261
11529TIP3   OH256077   1.345   1.176  13.407 -0.2062  0.6663 -0.0947
11529TIP3    H156078   1.339   1.107  13.474  0.0687 -0.6285 -1.3434
11529TIP3    H256079   1.438   1.196  13.402 -0.2069  0.6371 -0.2173
11530TIP3   OH256080   2.438   1.327   4.075 -0.8096  0.0331 -0.1779
11530TIP3    H156081   2.470   1.333   4.165 -1.5987 -1.4502  0.2353
11530TIP3    H256082   2.421   1.417   4.049  2.4485  0.8306 -0.0028
11531TIP3   OH256083   2.010   1.117  12.548 -0.5498 -0.2871 -0.3989
11531TIP3    H156084   1.962   1.077  12.476 -0.4400  0.0895 -0.6883
11531TIP3    H256085   1.946   1.172  12.592 -1.1290 -1.9969  0.9965
11532TIP3   OH256086   6.610   3.954  14.546  0.3518  0.0588  0.5160
11532TIP3    H156087   6.612   3.858  14.540  1.3134  0.1338 -0.8410
11532TIP3    H256088   6.687   3.983  14.497 -0.2703  1.5480  0.3589
11533TIP3   OH256089   0.904   4.429  16.386 -0.4833  0.1955  0.0309
11533TIP3    H156090   0.865   4.414  16.472 -1.3077  0.9722 -0.1911
11533TIP3    H256091   0.866   4.511  16.356  1.3796  1.0184 -0.2108
11534TIP3   OH256092   5.786   1.414   1.954  0.2761 -0.5054  1.0935
11534TIP3    H156093   5.820   1.341   2.005 -0.2486 -1.2279  0.4207
11534TIP3    H256094   5.702   1.384   1.920  0.9152 -0.3135 -0.7619
11535TIP3   OH256095   3.740   6.465   5.613  0.5530 -0.0173 -0.1135
11535TIP3    H156096   3.836   6.463   5.615  0.5507  0.0652  0.2817
11535TIP3    H256097   3.717   6.541   5.667  0.2820  0.4599 -0.8853
11536TIP3   OH256098   2.633   2.873   1.228  0.5842  0.3884  0.0085
11536TIP3    H156099   2.629   2.879   1.323 -1.2087 -0.7756  0.0506
11536TIP3    H256100   2.567   2.935   1.198 -1.3240 -1.6910 -0.3100
11537TIP3   OH256101   2.260   0.922   4.425  0.2273  0.9148 -0.2847
11537TIP3    H156102   2.267   0.876   4.509 -0.7544  1.3275  0.0461
11537TIP3    H256103   2.180   0.975   4.434  0.3983  1.3630 -1.2889
11538TIP3   OH256104   0.638   0.332   1.041  0.6588 -0.1140  0.1277
11538TIP3    H156105   0.700   0.295   1.104 -1.6517 -1.3554  1.8339
11538TIP3    H256106   0.665   0.297   0.956  2.0017 -0.9628  0.8724
11539TIP3   OH256107   6.593   6.469  13.639 -0.0818 -0.2444 -0.2356
11539TIP3    H156108   6.511   6.518  13.639 -0.1615 -0.3774 -0.6822
11539TIP3    H256109   6.661   6.535  13.650 -0.1867 -0.0245 -0.8712
11540TIP3   OH256110   1.585   2.708   2.655 -0.2099 -0.1515  0.1118
11540TIP3    H156111   1.510   2.665   2.613  0.3323 -0.1814 -0.8566
11540TIP3    H256112   1.553   2.733   2.741 -1.5074  0.3423 -0.4936
11541TIP3   OH256113   3.098   5.377  13.492 -0.3526  0.5736 -0.1510
11541TIP3    H156114   3.157   5.312  13.531  0.7007  0.2495 -2.1060
11541TIP3    H256115   3.100   5.451  13.552 -1.5188 -1.1181  2.1121
11542TIP3   OH256116   1.557   4.899   1.763  0.1969  0.6090  0.2074
11542TIP3    H156117   1.508   4.875   1.841 -0.1960  0.5724 -0.0524
11542TIP3    H256118   1.612   4.822   1.745  1.7118  1.2944  1.5386
11543TIP3   OH256119   6.787   1.230  13.396  0.0642  0.7341  0.0258
11543TIP3    H156120   6.851   1.189  13.455  1.8884  0.4314 -2.0282
11543TIP3    H256121   6.706   1.181  13.411  0.4365  0.6890  2.2376
11544TIP3   OH256122   5.381   4.252   2.462 -0.2477  0.2372 -0.3192
11544TIP3    H156123   5.305   4.310   2.474  1.1275  2.0531  0.1169
11544TIP3    H256124   5.405   4.263   2.370 -1.0171 -1.0178 -0.6827
11545TIP3   OH256125   6.144   3.598  15.576  0.6722 -0.2251  0.6054
11545TIP3    H156126   6.235   3.623  15.593  0.9259 -1.3437  1.0105
11545TIP3    H256127   6.120   3.543  15.651 -0.9104  1.3974  1.3457
11546TIP3   OH256128   2.257   5.084  11.195  0.2176  0.0306 -0.0411
11546TIP3    H156129   2.225   5.160  11.147 -0.6909  1.2137  2.3110
11546TIP3    H256130   2.336   5.058  11.148 -1.3095  0.2077 -2.9728
11547TIP3   OH256131   6.541   3.073  17.032  0.0734 -0.3165 -0.0702
11547TIP3    H156132   6.478   3.034  17.092  0.6075  0.2300  0.8660
11547TIP3    H256133   6.613   3.011  17.029  0.4575  0.0879  0.5940
11548TIP3   OH256134   0.889   2.689   2.866  0.2164 -0.0784 -0.4970
11548TIP3    H156135   0.892   2.775   2.823 -3.5833 -0.2138 -1.3869
11548TIP3    H256136   0.953   2.696   2.937  2.7308  2.0913 -2.7357
11549TIP3   OH256137   3.564   4.617  12.067 -0.4016  0.2277 -0.4037
11549TIP3    H156138   3.568   4.675  12.144 -0.4673  1.0817 -1.0263
11549TIP3    H256139   3.471   4.593  12.061 -0.5058  0.6585 -0.5679
11550TIP3   OH256140   0.367   2.577  14.339 -0.8858  0.6294  0.4795
11550TIP3    H156141   0.302   2.639  14.372 -3.0520 -0.7828 -0.8680
11550TIP3    H256142   0.319   2.495  14.330  1.4837 -0.8785  0.7265
11551TIP3   OH256143   3.374   6.362   2.413  0.3429  0.4553 -0.0092
11551TIP3    H156144   3.396   6.272   2.388  0.4272  0.1272  1.1824
11551TIP3    H256145   3.292   6.380   2.367  2.3245  1.2932 -3.6522
11552TIP3   OH256146   6.650   4.679   2.396 -0.3391  0.2941  0.0501
11552TIP3    H156147   6.670   4.600   2.345 -0.6191  1.2718 -1.6472
11552TIP3    H256148   6.568   4.712   2.357 -1.2951  0.3691  2.0201
11553TIP3   OH256149   5.766   4.186  11.881 -0.1155  0.1557  0.0559
11553TIP3    H156150   5.850   4.176  11.925 -0.2928  0.1234  0.3919
11553TIP3    H256151   5.720   4.253  11.932 -0.4798 -0.1708  0.1692
11554TIP3   OH256152   5.320   1.887   3.072  0.2571  0.5263 -0.9016
11554TIP3    H156153   5.225   1.894   3.067  0.2914  0.3852 -1.8846
11554TIP3    H256154   5.352   1.977   3.067  0.2155  0.5001 -1.8160
11555TIP3   OH256155   2.988   2.345   5.479 -0.0266 -0.5771 -0.1845
11555TIP3    H156156   2.962   2.292   5.403  0.0341  1.6710 -1.8709
11555TIP3    H256157   3.081   2.364   5.464  0.3397 -1.1907  1.1784
11556TIP3   OH256158   3.372   0.524   0.757  0.4976  0.2996 -0.0925
11556TIP3    H156159   3.467   0.526   0.763  0.5095 -2.1387  3.0543
11556TIP3    H256160   3.353   0.451   0.699  0.6237 -1.1641  1.6477
11557TIP3   OH256161   1.260   5.684  12.661  0.2731 -0.0221  0.5211
11557TIP3    H156162   1.236   5.713  12.749 -0.0109 -0.0974  0.4714
11557TIP3    H256163   1.185   5.632  12.632  0.1682  0.3818  0.0581
11558TIP3   OH256164   4.245   3.488   2.409 -0.0438  0.5858 -0.1417
11558TIP3    H156165   4.334   3.519   2.425  0.2233 -0.0567 -0.3433
11558TIP3    H256166   4.236   3.490   2.314 -1.2361  3.3191 -0.0756
11559TIP3   OH256167   4.656   1.065  14.751  0.6465 -0.4536 -0.2240
11559TIP3    H156168   4.699   0.989  14.712  1.7113  0.3068 -0.5860
11559TIP3    H256169   4.665   1.052  14.846  1.6458 -0.3479 -0.2907
11560TIP3   OH256170   2.407   2.906  16.589  0.0690  0.5516 -0.4344
11560TIP3    H156171   2.382   2.926  16.679 -0.1894  1.5660 -0.7218
11560TIP3    H256172   2.482   2.963  16.571  0.5269 -0.1011 -0.6676
11561TIP3   OH256173   2.632   6.761   3.837  0.1038 -0.4106  0.5452
11561TIP3    H156174   2.598   6.850   3.829  0.7244 -0.1125  1.1194
11561TIP3    H256175   2.572   6.718   3.899 -0.6108 -0.6162 -0.2750
11562TIP3   OH256176   2.761   5.442  16.992 -0.3179  0.9378  0.1050
11562TIP3    H156177   2.836   5.395  16.955  0.8014  3.2797 -0.7941
11562TIP3    H256178   2.698   5.373  17.014  2.3806 -1.2170  1.6870
11563TIP3   OH256179   4.594   0.291  10.897 -0.0864  0.0376 -0.4297
11563TIP3    H156180   4.564   0.201  10.909 -0.1735 -0.0011 -0.9205
11563TIP3    H256181   4.518   0.345  10.917  0.6000  0.1446  2.3156
11564TIP3   OH256182   6.277   4.067  14.561  0.2048  0.4704 -0.5339
11564TIP3    H156183   6.191   4.078  14.521 -0.5022  0.0433  0.8153
11564TIP3    H256184   6.324   4.008  14.502 -0.1151  1.3249 -1.6937
11565TIP3   OH256185   5.224   4.196  12.836 -0.3605 -0.1110 -0.0042
11565TIP3    H156186   5.188   4.112  12.808  0.9820 -0.1718 -1.7155
11565TIP3    H256187   5.209   4.198  12.931 -1.0663 -1.9465 -0.0321
11566TIP3   OH256188   0.255   5.390   0.066  0.2032  0.2704 -0.6180
11566TIP3    H156189   0.259   5.323   0.134 -1.0802 -2.6315 -3.1439
11566TIP3    H256190   0.197   5.457   0.102 -1.2573 -1.6514  0.8599
11567TIP3   OH256191   1.763   1.877   3.189  0.4058 -0.3237  0.4144
11567TIP3    H156192   1.747   1.967   3.160  1.5871  0.2135  1.3384
11567TIP3    H256193   1.730   1.875   3.279 -0.8832 -1.2449 -0.0387
11568TIP3   OH256194   5.248   2.710  12.240 -0.4608 -0.2088 -0.6282
11568TIP3    H156195   5.236   2.795  12.283  0.1999 -0.0770 -0.6820
11568TIP3    H256196   5.343   2.703  12.229 -0.1708 -2.2829  2.0839
11569TIP3   OH256197   6.423   3.324  15.074  0.7782  0.0012 -0.7541
11569TIP3    H156198   6.378   3.239  15.082  1.1926 -0.3380 -1.7448
11569TIP3    H256199   6.432   3.355  15.163  0.0282 -0.6954 -0.4178
11570TIP3   OH256200   6.740   2.612   2.775 -0.1451 -0.0404 -0.6907
11570TIP3    H156201   6.808   2.601   2.709  0.3043  1.0847 -0.4417
11570TIP3    H256202   6.765   2.692   2.822 -0.5206 -0.7389  0.7546
11571TIP3   OH256203   5.103   0.036   2.201 -0.3998  0.2023 -0.2263
11571TIP3    H156204   5.178   0.054   2.257  0.0972  0.1003 -0.8565
11571TIP3    H256205   5.061   0.122   2.190 -1.4622 -0.0206  1.6256
11572TIP3   OH256206   1.659   0.694   0.897  0.6936 -0.0890  0.2965
11572TIP3    H156207   1.712   0.625   0.859 -1.3040 -0.9689 -1.0764
11572TIP3    H256208   1.573   0.684   0.855 -0.0850  2.2957  1.1530
11573TIP3   OH256209   4.934   6.303   2.088  0.3188 -0.1601 -0.4998
11573TIP3    H156210   4.893   6.388   2.072 -1.8367 -0.4517  2.6273
11573TIP3    H256211   4.873   6.239   2.052  0.3699 -0.4847 -0.0137
11574TIP3   OH256212   1.674   2.074   5.080  0.5178  0.2576  0.1538
11574TIP3    H156213   1.703   2.034   5.162  1.1328  2.2677  0.9868
11574TIP3    H256214   1.753   2.113   5.043  0.0697  0.1743 -0.9285
11575TIP3   OH256215   5.442   3.476   4.858  0.2741 -1.1193  0.1590
11575TIP3    H156216   5.379   3.472   4.785 -0.1663  0.0930  0.4476
11575TIP3    H256217   5.456   3.385   4.882 -2.7769 -1.4121  1.2542
11576TIP3   OH256218   6.404   4.341   3.881  0.3402  0.3130 -0.4662
11576TIP3    H156219   6.333   4.347   3.816  0.8332 -2.5341 -1.3876
11576TIP3    H256220   6.361   4.308   3.960  0.3060  0.4740 -0.4181
11577TIP3   OH256221   1.497   6.667  16.542  0.2291 -0.0700  0.3751
11577TIP3    H156222   1.511   6.603  16.612 -1.3676 -0.2879  0.5499
11577TIP3    H256223   1.567   6.731  16.553  2.0598 -1.9052  0.0301
11578TIP3   OH256224   0.891   6.672  15.303  0.3252  0.1893 -0.1498
11578TIP3    H156225   0.927   6.605  15.361  0.4436 -1.2186 -1.7793
11578TIP3    H256226   0.959   6.686  15.237 -0.7597 -0.1108 -1.3778
11579TIP3   OH256227   4.777   1.076   0.118 -0.3581  0.1577 -0.3716
11579TIP3    H156228   4.840   1.104   0.184 -0.2849  1.0642 -0.8059
11579TIP3    H256229   4.773   1.149   0.057 -2.2485  0.3711 -0.0598
11580TIP3   OH256230   0.362   2.681  13.023 -0.6043 -0.4617  0.5130
11580TIP3    H156231   0.291   2.724  13.070 -0.1731 -0.0884  0.8407
11580TIP3    H256232   0.401   2.622  13.088  0.0927  0.1698  0.6831
11581TIP3   OH256233   6.403   0.558  14.815 -0.5048 -0.2952 -0.2245
11581TIP3    H156234   6.382   0.644  14.850  0.2022  0.0663 -0.6794
11581TIP3    H256235   6.325   0.505  14.834  0.5286 -0.7438  3.7474
11582TIP3   OH256236   1.164   4.052  14.151  0.3831  0.0156  0.0693
11582TIP3    H156237   1.119   3.973  14.182 -1.4808  1.2040  0.5294
11582TIP3    H256238   1.151   4.052  14.056  1.6120 -0.9204 -0.1277
11583TIP3   OH256239   3.721   6.307   1.860 -0.2434 -0.0391 -0.6580
11583TIP3    H156240   3.661   6.253   1.911  1.4810 -0.3865  1.1062
11583TIP3    H256241   3.675   6.321   1.776 -2.8151 -0.0994  0.6436
11584TIP3   OH256242   2.265   1.507  15.980 -0.1946 -0.2501 -0.6084
11584TIP3    H156243   2.241   1.437  15.919 -1.3554 -1.3314  1.0036
11584TIP3    H256244   2.207   1.580  15.957 -0.4028 -0.5268 -0.9818
11585TIP3   OH256245   5.946   4.151  11.462 -0.5487 -0.2965  0.4336
11585TIP3    H156246   5.978   4.169  11.373  0.9383  0.6567  1.1104
11585TIP3    H256247   5.910   4.063  11.457 -2.9286  0.6853 -1.7254
11586TIP3   OH256248   1.561   6.639   4.660  0.3398  0.0056 -0.0746
11586TIP3    H156249   1.564   6.545   4.678  2.4415  0.2455  1.1283
11586TIP3    H256250   1.581   6.646   4.566  0.9266 -0.7175 -0.0106
11587TIP3   OH256251   0.458   2.817   2.301 -0.0640 -0.0495  0.2142
11587TIP3    H156252   0.510   2.852   2.228 -2.2449  1.8336 -0.5471
11587TIP3    H256253   0.402   2.751   2.261 -0.0086 -0.3056  0.5550
11588TIP3   OH256254   5.576   5.669   0.344  0.1113 -0.0799  0.7322
11588TIP3    H156255   5.511   5.664   0.415 -1.1302 -0.5274 -0.4038
11588TIP3    H256256   5.646   5.611   0.372 -0.9010 -1.1747  1.0764
11589TIP3   OH256257   0.249   1.211   2.057  0.0114  0.0574 -0.2785
11589TIP3    H156258   0.326   1.268   2.062 -0.5446  0.8341 -0.4577
11589TIP3    H256259   0.202   1.228   2.139  0.7718 -1.5272  0.5409
11590TIP3   OH256260   4.677   6.061  10.945 -0.2272 -0.0685  0.2460
11590TIP3    H156261   4.650   6.008  10.870 -0.5594  1.2708 -0.6011
11590TIP3    H256262   4.700   6.146  10.908 -1.5570  1.0145  1.7839
11591TIP3   OH256263   2.150   6.328  15.080 -0.2379  0.0681 -0.3121
11591TIP3    H156264   2.115   6.298  14.997  0.8635  0.0225 -0.7774
11591TIP3    H256265   2.171   6.421  15.066  0.1191  0.0160 -0.1406
11592TIP3   OH256266   5.618   5.906  15.168  0.1334 -0.3104 -0.7441
11592TIP3    H156267   5.697   5.959  15.182  0.9958 -1.4527 -1.0893
11592TIP3    H256268   5.566   5.955  15.105  0.7331  0.3068 -0.7601
11593TIP3   OH256269   2.061   1.277  12.841 -0.4507 -0.3994 -0.2243
11593TIP3    H156270   1.984   1.319  12.878 -0.8249 -1.2738  0.0153
11593TIP3    H256271   2.033   1.187  12.823  0.7767 -1.0288  0.8127
11594TIP3   OH256272   4.448   1.038  17.019  0.2790  0.1091 -1.0085
11594TIP3    H156273   4.404   0.992  17.090  2.3704  0.0135  0.3337
11594TIP3    H256274   4.415   0.998  16.939 -0.9023 -0.9384 -0.0189
11595TIP3   OH256275   3.385   5.769  15.220 -0.6653  0.0199  0.2046
11595TIP3    H156276   3.310   5.785  15.163 -1.0433 -0.7096  0.4745
11595TIP3    H256277   3.460   5.806  15.173 -1.1215  0.3467 -0.2798
11596TIP3   OH256278   5.548   2.743   0.748  0.0381 -0.0537  0.2865
11596TIP3    H156279   5.475   2.781   0.796 -0.1877 -0.2552  0.1072
11596TIP3    H256280   5.601   2.818   0.722  0.0567  0.0700  0.6778
11597TIP3   OH256281   4.006   4.220   1.407 -0.6381 -0.1466  0.1641
11597TIP3    H156282   4.051   4.297   1.443 -0.5449 -1.3599  2.9098
11597TIP3    H256283   4.069   4.148   1.419 -1.0021 -0.8434 -1.6867
11598TIP3   OH256284   1.940   3.486  12.836 -0.3758 -0.5248 -0.0139
11598TIP3    H156285   2.029   3.467  12.805  0.1380 -1.6570  1.9873
11598TIP3    H256286   1.903   3.400  12.855 -1.0300  0.0474  1.4122
11599TIP3   OH256287   2.532   6.758   4.112  0.6001  0.6065  0.3798
11599TIP3    H156288   2.457   6.704   4.138  1.5389 -0.7410  0.4063
11599TIP3    H256289   2.581   6.770   4.193  0.1339  2.0031  0.4878
11600TIP3   OH256290   5.961   2.894  16.694 -0.2272  0.0918 -0.0007
11600TIP3    H156291   5.959   2.883  16.789 -2.0197  1.3176  0.1577
11600TIP3    H256292   6.029   2.960  16.679  1.0108 -1.0835  0.2696
11601TIP3   OH256293   5.827   2.707   5.698  0.1257 -0.1635 -0.4019
11601TIP3    H156294   5.898   2.756   5.740 -0.0787 -1.1711  1.1999
11601TIP3    H256295   5.856   2.695   5.608  0.7414  1.7796 -0.4998
11602TIP3   OH256296   5.462   3.824  13.478  0.2255 -0.3447  0.4987
11602TIP3    H156297   5.507   3.739  13.476  0.0595 -0.4228 -0.8438
11602TIP3    H256298   5.456   3.846  13.571  0.6299 -1.6144  0.8425
11603TIP3   OH256299   1.275   1.801   2.781 -0.2634 -0.2357  0.5809
11603TIP3    H156300   1.340   1.767   2.842  0.2120  2.0318  1.4327
11603TIP3    H256301   1.204   1.738   2.783  0.8266 -1.4794  1.5499
11604TIP3   OH256302   0.090   1.717   5.071  0.6543  0.1177 -0.4328
11604TIP3    H156303   0.068   1.689   4.982 -3.3942  3.2420 -0.7057
11604TIP3    H256304   0.042   1.657   5.128 -0.1466  0.6170 -0.5728
11605TIP3   OH256305   6.337   1.448   4.757  0.2779 -1.0244  0.1255
11605TIP3    H156306   6.349   1.378   4.821 -0.1807 -1.3648 -0.1586
11605TIP3    H256307   6.246   1.441   4.729  0.3597 -0.6174 -0.2623
11606TIP3   OH256308   0.536   2.801  15.881  0.0356  0.0407 -0.2738
11606TIP3    H156309   0.514   2.745  15.955 -0.4592  1.3623  0.6281
11606TIP3    H256310   0.590   2.871  15.919  0.3686  0.3640 -1.2974
11607TIP3   OH256311   6.650   4.454  10.495  0.1899  0.1757 -0.4135
11607TIP3    H156312   6.649   4.385  10.429 -0.1244 -0.7856  0.5615
11607TIP3    H256313   6.734   4.443  10.540 -0.0757  0.1096  0.0694
11608TIP3   OH256314   4.876   6.309  11.520  0.1298  0.4172 -0.0194
11608TIP3    H156315   4.933   6.238  11.549 -0.3899 -0.3622 -0.8348
11608TIP3    H256316   4.788   6.280  11.542 -0.2256  0.0701 -1.7812
11609TIP3   OH256317   0.521   2.594  15.228  0.1351 -0.0464 -0.2944
11609TIP3    H156318   0.598   2.642  15.259  0.4028  0.0881 -1.1240
11609TIP3    H256319   0.446   2.642  15.263  0.4181 -0.8748  1.5506
11610TIP3   OH256320   3.451   0.108   2.616  0.0970 -0.5338 -0.0028
11610TIP3    H156321   3.418   0.045   2.680  1.7660 -2.3151 -0.7844
11610TIP3    H256322   3.546   0.106   2.627  0.3165  0.3996 -1.4050
11611TIP3   OH256323   3.468   6.365   1.713  0.4853  0.4040  0.0170
11611TIP3    H156324   3.445   6.273   1.725  1.3125  0.1647 -0.1441
11611TIP3    H256325   3.413   6.412   1.775  0.2826 -0.2251  0.3265
11612TIP3   OH256326   3.659   0.654   1.814 -0.4179  0.6538 -0.2992
11612TIP3    H156327   3.568   0.638   1.789 -0.5905  0.9234  0.1573
11612TIP3    H256328   3.686   0.574   1.859 -0.3588  0.4928 -0.6103
11613TIP3   OH256329   0.506   5.951  15.611 -0.0041  0.6164 -0.1064
11613TIP3    H156330   0.587   5.934  15.562 -0.6453  1.2768 -1.4726
11613TIP3    H256331   0.438   5.948  15.544 -1.0701  0.4439  0.9649
11614TIP3   OH256332   1.256   1.935  16.405 -0.5620 -0.1046 -0.3763
11614TIP3    H156333   1.181   1.880  16.430 -0.8831 -0.2555 -1.6365
11614TIP3    H256334   1.300   1.886  16.336  0.3509  0.2763 -0.0767
11615TIP3   OH256335   2.056   3.251  16.681  0.0134  0.1971  0.1719
11615TIP3    H156336   2.014   3.228  16.598 -0.3948  0.1864  0.3811
11615TIP3    H256337   2.001   3.320  16.718  1.5479  2.0091 -0.7344
11616TIP3   OH256338   1.363   3.302   4.527 -0.6169 -0.0642 -0.0728
11616TIP3    H156339   1.341   3.364   4.597 -0.2130 -2.6813  2.5575
11616TIP3    H256340   1.283   3.251   4.515  0.2320 -1.6977  0.8463
11617TIP3   OH256341   1.415   3.921  15.908 -0.0445 -0.5395  0.4821
11617TIP3    H156342   1.498   3.942  15.950 -0.0833 -0.3050  0.4444
11617TIP3    H256343   1.425   3.830  15.879  0.1633 -0.5422  0.5595
11618TIP3   OH256344   6.541   0.603   3.589  0.2479  0.1574  0.0918
11618TIP3    H156345   6.487   0.532   3.624 -0.1814  0.1916 -0.4846
11618TIP3    H256346   6.549   0.664   3.663  0.4768 -0.4013  0.5361
11619TIP3   OH256347   1.920   4.699  12.773  1.3495 -0.0513 -0.0089
11619TIP3    H156348   2.007   4.716  12.737  1.6396 -1.1365  0.1488
11619TIP3    H256349   1.925   4.729  12.864  1.8255 -0.8530  0.2383
11620TIP3   OH256350   2.663   2.422   2.704  0.0734  0.1343 -0.3469
11620TIP3    H156351   2.683   2.336   2.741  1.3611  0.3880 -0.3902
11620TIP3    H256352   2.699   2.418   2.615  1.3462  1.1465  0.0993
11621TIP3   OH256353   4.658   1.515   4.976  0.1327  0.1115  0.2350
11621TIP3    H156354   4.743   1.557   4.959  0.0324 -0.6787 -2.9293
11621TIP3    H256355   4.680   1.430   5.014  0.6030  0.8640  1.6922
11622TIP3   OH256356   1.097   2.140  14.763 -0.1491 -0.1096  0.4700
11622TIP3    H156357   1.123   2.178  14.847 -0.0791 -0.9040  0.8131
11622TIP3    H256358   1.138   2.054  14.762  3.0649  1.2600 -2.0340
11623TIP3   OH256359   0.747   2.114   0.156 -1.0766 -0.1012 -0.0921
11623TIP3    H156360   0.727   2.032   0.111 -1.7411  0.5578 -1.0521
11623TIP3    H256361   0.762   2.177   0.085 -1.1618  0.7466  0.6206
11624TIP3   OH256362   1.509   4.685  15.703 -0.2640 -0.3771  1.0316
11624TIP3    H156363   1.470   4.608  15.745 -0.7395 -1.6445 -1.5084
11624TIP3    H256364   1.448   4.756  15.722 -3.1451 -1.9521 -1.4102
11625TIP3   OH256365   6.212   1.264  12.640 -0.0018 -0.1395  0.1527
11625TIP3    H156366   6.260   1.346  12.650  0.4700 -0.3120 -0.6842
11625TIP3    H256367   6.236   1.212  12.717  0.4695  0.1145  0.1766
11626TIP3   OH256368   1.146   2.092   0.679  0.3683  0.2345 -0.1549
11626TIP3    H156369   1.170   2.081   0.771  0.9897 -0.3296 -0.3750
11626TIP3    H256370   1.200   2.165   0.650 -0.0824  0.6397  0.0119
11627TIP3   OH256371   4.149   3.728   3.336  0.3288 -0.2381 -0.4286
11627TIP3    H156372   4.066   3.741   3.383  0.5389 -0.9379  0.1606
11627TIP3    H256373   4.193   3.659   3.385  0.1631 -1.6691 -2.1981
11628TIP3   OH256374   1.687   1.835   4.490 -0.1802  0.3788  0.1571
11628TIP3    H156375   1.715   1.744   4.502 -1.0122  0.1717  0.5700
11628TIP3    H256376   1.647   1.859   4.574 -2.3759  0.2401 -0.7724
11629TIP3   OH256377   5.948   1.081   3.001  0.0731 -0.2449  0.8924
11629TIP3    H156378   6.030   1.110   3.041  0.8671 -0.9896 -0.1426
11629TIP3    H256379   5.888   1.067   3.075  1.4023 -1.3216  1.8083
11630TIP3   OH256380   0.825   6.044   2.312 -0.3997  0.0950 -0.7748
11630TIP3    H156381   0.912   6.021   2.344 -0.3360  2.3882  0.9641
11630TIP3    H256382   0.787   5.961   2.283  1.6359 -1.2517  0.1941
11631TIP3   OH256383   4.558   4.380  14.955  0.5361  0.1495 -0.3771
11631TIP3    H156384   4.542   4.302  15.008  1.2742  0.3041  0.0926
11631TIP3    H256385   4.479   4.433  14.966  0.2195 -0.3277 -0.3329
11632TIP3   OH256386   2.447   4.645   1.280  0.2379 -0.2152  0.4447
11632TIP3    H156387   2.363   4.615   1.245  1.2054 -1.3809 -0.9943
11632TIP3    H256388   2.510   4.579   1.251  2.0396  1.8183 -0.5702
11633TIP3   OH256389   1.183   2.827   1.392  0.7428  0.9082  0.0186
11633TIP3    H156390   1.246   2.754   1.397 -0.6508 -0.3984 -0.6149
11633TIP3    H256391   1.200   2.867   1.306  0.0711 -0.0899 -0.6037
11634TIP3   OH256392   0.934   6.780   2.026  0.1199  0.5400  0.2041
11634TIP3    H156393   0.935   6.819   2.114 -0.1884 -0.2759  0.5748
11634TIP3    H256394   0.842   6.786   1.999 -0.5687 -2.5326  1.4722
11635TIP3   OH256395   3.017   3.924  12.443  0.2115  0.4855  0.5805
11635TIP3    H156396   2.960   3.957  12.512 -0.0276  0.3391  0.4512
11635TIP3    H256397   2.961   3.916  12.367 -0.0273 -1.3294  0.8951
11636TIP3   OH256398   5.273   5.118   1.647  0.1210 -0.5158  0.6703
11636TIP3    H156399   5.250   5.206   1.618  0.4472  0.0913  2.1470
11636TIP3    H256400   5.366   5.124   1.671  0.6342 -1.7329 -0.8437
11637TIP3   OH256401   1.931   2.217   6.372  0.5571  0.2260  0.0877
11637TIP3    H156402   1.838   2.214   6.349  0.5519 -3.2106  0.0520
11637TIP3    H256403   1.934   2.272   6.450 -1.3260  1.2567 -0.4918
11638TIP3   OH256404   6.067   6.416  16.599 -0.2643 -0.0491  0.1513
11638TIP3    H156405   6.142   6.405  16.657 -0.2083 -0.7693 -0.0472
11638TIP3    H256406   6.091   6.367  16.520 -0.9235 -0.2380  0.0670
11639TIP3   OH256407   4.428   6.011  16.374  0.2355 -0.2103  0.0783
11639TIP3    H156408   4.509   5.961  16.363  0.5322  0.4435 -0.8674
11639TIP3    H256409   4.440   6.059  16.456 -0.0452 -1.6386  0.9863
11640TIP3   OH256410   5.469   4.289  12.391 -0.6914  0.2244  0.0360
11640TIP3    H156411   5.419   4.334  12.322 -1.3094  0.2046  0.4642
11640TIP3    H256412   5.535   4.239  12.343 -1.1366  0.1766 -0.5457
11641TIP3   OH256413   6.124   5.513   6.418 -0.3241  0.3028  0.0579
11641TIP3    H156414   6.172   5.493   6.498  0.8536  1.9729 -0.1766
11641TIP3    H256415   6.057   5.576   6.445 -2.2841 -1.7720  0.3213
11642TIP3   OH256416   2.590   6.683  13.062  0.3667 -0.0879 -0.2345
11642TIP3    H156417   2.600   6.697  13.157  0.5848 -1.9346  0.0472
11642TIP3    H256418   2.501   6.712  13.043  1.0426  2.4901  0.0508
11643TIP3   OH256419   0.366   4.243   2.107  0.2052 -0.5154  0.4105
11643TIP3    H156420   0.379   4.205   2.020  0.6259 -2.8687  1.4395
11643TIP3    H256421   0.272   4.236   2.122  0.1722 -0.3791  0.2752
11644TIP3   OH256422   2.313   2.386   4.298 -0.1333 -0.1139  0.4676
11644TIP3    H156423   2.241   2.396   4.237 -0.3515 -0.1445  0.7175
11644TIP3    H256424   2.385   2.351   4.245 -0.4505 -0.5451  0.3170
11645TIP3   OH256425   0.597   2.892   4.987  0.4946  0.5438 -0.0093
11645TIP3    H156426   0.513   2.874   4.945 -0.8382 -1.2057  3.0448
11645TIP3    H256427   0.577   2.961   5.051  1.4776  0.4006  0.4658
11646TIP3   OH256428   4.402   0.711   3.458 -0.3490  0.0649  0.2103
11646TIP3    H156429   4.323   0.765   3.456 -1.1933 -1.1529 -0.2140
11646TIP3    H256430   4.469   0.769   3.494 -1.1543  1.4792 -0.4749
11647TIP3   OH256431   1.039   6.251  14.398 -0.1059  0.0340 -0.1650
11647TIP3    H156432   1.132   6.262  14.416  0.1645 -1.2270 -0.7372
11647TIP3    H256433   1.023   6.309  14.323 -0.1841  1.5510  0.9673
11648TIP3   OH256434   1.254   0.083  14.553  0.0015 -0.4780  0.0464
11648TIP3    H156435   1.250   0.072  14.648 -0.0044  1.3971  0.3106
11648TIP3    H256436   1.209   0.007  14.518 -1.3303 -0.4672  1.5962
11649TIP3   OH256437   2.929   3.654   0.874  0.2112  0.0592  0.2776
11649TIP3    H156438   2.881   3.735   0.891 -0.4718 -0.5411  1.3686
11649TIP3    H256439   2.976   3.636   0.956  0.5881 -0.4902 -0.0540
11650TIP3   OH256440   1.175   0.274  14.365  0.2696  0.1626 -0.0822
11650TIP3    H156441   1.220   0.243  14.443  2.9162 -0.1118 -1.5736
11650TIP3    H256442   1.185   0.202  14.302 -0.2231  1.0401 -1.2019
11651TIP3   OH256443   5.630   6.578   1.891  0.5341 -0.2533 -0.0677
11651TIP3    H156444   5.663   6.529   1.967 -0.0065  0.9451  0.9846
11651TIP3    H256445   5.699   6.642   1.873  1.2290 -1.3273 -1.4264
11652TIP3   OH256446   3.696   5.888  15.123  0.3667  0.2889  0.0615
11652TIP3    H156447   3.784   5.854  15.104 -0.4191 -1.9838  0.1264
11652TIP3    H256448   3.685   5.871  15.217 -0.4038 -0.1947 -0.1043
11653TIP3   OH256449   2.457   0.861  15.928 -0.6914  0.1431  0.1770
11653TIP3    H156450   2.417   0.807  15.860 -1.6821  0.4174  0.5179
11653TIP3    H256451   2.449   0.809  16.008  1.4986 -0.6687 -0.0853
11654TIP3   OH256452   1.708   5.333   1.483 -0.1769 -0.1845 -0.5958
11654TIP3    H156453   1.691   5.244   1.451 -0.4784  0.3591 -2.0115
11654TIP3    H256454   1.800   5.348   1.463 -0.6176  0.5396 -2.2872
11655TIP3   OH256455   6.685   3.871   5.320 -0.1472 -0.3106 -0.7673
11655TIP3    H156456   6.660   3.849   5.410 -1.8857 -1.7816 -1.5375
11655TIP3    H256457   6.775   3.901   5.327 -0.0762 -0.8420  1.4068
11656TIP3   OH256458   6.805   4.081   0.857  0.4136 -0.4053 -0.0687
11656TIP3    H156459   6.845   4.162   0.887  1.8541 -1.0110 -0.2573
11656TIP3    H256460   6.746   4.108   0.786  1.4715  0.4162 -0.6718
11657TIP3   OH256461   2.522   4.040   1.185 -0.3120  0.1742 -0.5084
11657TIP3    H156462   2.541   3.964   1.129 -0.1249 -0.2324  0.1005
11657TIP3    H256463   2.606   4.064   1.223 -0.6635 -0.4384  0.6967
11658TIP3   OH256464   5.303   1.803  11.993 -0.0371  0.1366  0.6346
11658TIP3    H156465   5.239   1.811  12.064  0.2584 -1.6859  1.1495
11658TIP3    H256466   5.254   1.767  11.920  0.4290 -1.6467  1.1545
11659TIP3   OH256467   3.345   5.758  15.981  0.3414  0.0344  0.6750
11659TIP3    H156468   3.288   5.685  15.956 -1.2069  1.2794  0.4030
11659TIP3    H256469   3.314   5.784  16.068  0.6147  0.6065  0.6088
11660TIP3   OH256470   4.619   3.778   5.639  0.0681  0.0975  0.1658
11660TIP3    H156471   4.585   3.698   5.677  0.0085 -0.5283 -1.1415
11660TIP3    H256472   4.705   3.789   5.680 -0.0535 -0.4664  0.5848
11661TIP3   OH256473   5.177   3.551  11.557  0.1682  0.0765  0.3976
11661TIP3    H156474   5.247   3.490  11.531 -0.5406 -1.0071  0.9461
11661TIP3    H256475   5.144   3.514  11.639 -1.0797  0.5617  0.1203
11662TIP3   OH256476   3.577   1.455   4.314 -0.0736  0.6859  0.5961
11662TIP3    H156477   3.662   1.437   4.353  0.0411  0.0370  0.0651
11662TIP3    H256478   3.597   1.503   4.233 -0.2030  0.5353  0.4722
11663TIP3   OH256479   6.600   2.726  15.957  0.0542  0.1407  0.6397
11663TIP3    H156480   6.675   2.685  15.914  0.9134  1.4579  0.8109
11663TIP3    H256481   6.635   2.807  15.994 -1.4629  0.7984  0.7223
11664TIP3   OH256482   4.691   5.508   5.417  0.1522  0.2599  0.0861
11664TIP3    H156483   4.717   5.419   5.441 -0.7918  0.1099  0.6111
11664TIP3    H256484   4.754   5.564   5.462  1.7106 -0.1558 -1.4926
11665TIP3   OH256485   3.679   2.110  12.455 -0.1712 -0.3957 -0.2094
11665TIP3    H156486   3.683   2.084  12.547 -0.1108  5.1891  1.7317
11665TIP3    H256487   3.590   2.089  12.427 -0.3594 -1.6606  1.2140
11666TIP3   OH256488   0.039   0.564  13.634  0.5038 -0.4194 -0.3620
11666TIP3    H156489   0.111   0.504  13.650 -0.1386 -0.8075  1.2116
11666TIP3    H256490  -0.039   0.514  13.656 -0.5296 -0.7590 -4.0647
11667TIP3   OH256491   4.401   2.599  13.153 -0.1191 -0.1714 -0.0593
11667TIP3    H156492   4.414   2.527  13.215 -0.6651  0.8471  1.3038
11667TIP3    H256493   4.466   2.665  13.178 -0.3177  0.2411 -0.5978
11668TIP3   OH256494   4.946   1.217   0.304 -0.2080  0.3545 -0.0475
11668TIP3    H156495   4.987   1.188   0.385 -0.9719  0.4632  0.3880
11668TIP3    H256496   4.929   1.310   0.317 -0.4769  0.3392 -0.2700
11669TIP3   OH256497   1.656   0.203   2.775 -0.0838  0.7466 -0.2368
11669TIP3    H156498   1.748   0.180   2.790 -0.5432 -1.7127 -0.8761
11669TIP3    H256499   1.646   0.287   2.820  1.9514  0.1064  1.6333
11670TIP3   OH256500   1.638   3.914   3.972 -0.1352 -0.4599  0.0697
11670TIP3    H156501   1.549   3.912   4.006 -0.3815  1.3815 -0.4048
11670TIP3    H256502   1.637   3.850   3.900 -0.7120 -1.3442  0.8327
11671TIP3   OH256503   5.176   2.044  13.995 -0.6837  0.0866  0.3491
11671TIP3    H156504   5.106   2.035  13.930 -0.3740 -0.3194  0.0692
11671TIP3    H256505   5.185   2.139  14.007  1.0521  0.3680 -2.2044
11672TIP3   OH256506   6.010   1.311  13.776 -1.0088  0.3396  0.0487
11672TIP3    H156507   5.949   1.383  13.762 -0.1504  1.1456  0.3427
11672TIP3    H256508   5.959   1.232  13.760 -1.3165  1.0436 -2.8971
11673TIP3   OH256509   3.457   0.718  11.620  0.2238 -0.1799  0.0107
11673TIP3    H156510   3.411   0.647  11.664  1.9407 -0.4621  1.4649
11673TIP3    H256511   3.468   0.785  11.688 -1.0334  1.3655 -1.2277
11674TIP3   OH256512   0.589   4.369   5.536 -0.0305  0.5285  0.2492
11674TIP3    H156513   0.607   4.304   5.469 -0.8550 -1.3010  1.7289
11674TIP3    H256514   0.674   4.384   5.578  0.0752  0.0422  0.2159
11675TIP3   OH256515   3.191   2.075  12.179 -0.2915  0.0918  0.0806
11675TIP3    H156516   3.122   2.100  12.119 -2.2410 -0.9379  1.7664
11675TIP3    H256517   3.183   1.980  12.187  1.8043 -0.1595 -0.1958
11676TIP3   OH256518   5.047   5.816  14.245  0.2179 -0.0500  0.0586
11676TIP3    H156519   5.032   5.730  14.285  1.1654  0.3896  1.4339
11676TIP3    H256520   4.962   5.861  14.253  0.0047 -0.4868  0.2974
11677TIP3   OH256521   0.498   6.603  14.615 -0.2058  0.2210 -0.6126
11677TIP3    H156522   0.510   6.646  14.530  1.2335 -0.4182 -0.7612
11677TIP3    H256523   0.500   6.509  14.594 -1.9930  0.0235 -0.1207
11678TIP3   OH256524   5.563   3.040   5.138  0.1730 -0.0540  0.5546
11678TIP3    H156525   5.583   3.102   5.208 -1.2818  0.5626  0.4776
11678TIP3    H256526   5.497   2.982   5.176 -0.7896  0.4184 -0.3272
11679TIP3   OH256527   3.162   0.207   1.326 -0.4136  0.1087  0.4452
11679TIP3    H156528   3.135   0.255   1.249  0.2395 -1.8750 -1.1177
11679TIP3    H256529   3.112   0.246   1.398 -1.1994  1.8715 -0.9884
11680TIP3   OH256530   3.450   4.959   4.216  0.0323 -0.2089 -0.4280
11680TIP3    H156531   3.425   5.007   4.295  0.7587 -1.7650  0.7775
11680TIP3    H256532   3.541   4.984   4.200 -0.8579  2.1822 -2.3945
11681TIP3   OH256533   1.373   5.310  11.295  0.5438  0.0645  0.6549
11681TIP3    H156534   1.446   5.369  11.275  0.9478 -0.5088  0.3846
11681TIP3    H256535   1.416   5.233  11.333 -0.0124  0.1316  1.4402
11682TIP3   OH256536   5.756   2.161  11.907  0.2648  0.1742 -0.1835
11682TIP3    H156537   5.851   2.150  11.897  0.4802  0.9749  0.8063
11682TIP3    H256538   5.722   2.072  11.913  0.9202 -0.1285 -0.7271
11683TIP3   OH256539   1.792   6.788   2.766  0.0541  0.2235  0.3518
11683TIP3    H156540   1.758   6.790   2.676 -1.2264 -0.6543  0.7835
11683TIP3    H256541   1.869   6.845   2.764  0.5811 -0.4832 -1.5168
11684TIP3   OH256542   1.776   0.246   4.194  0.3785 -0.3891  0.3921
11684TIP3    H156543   1.860   0.200   4.184 -0.1319 -1.5422  1.2214
11684TIP3    H256544   1.731   0.232   4.111  0.2601 -1.3595  0.6057
11685TIP3   OH256545   0.260   3.593   5.404  0.4323  0.2362 -0.2195
11685TIP3    H156546   0.173   3.590   5.364 -0.5586 -1.2567  1.8583
11685TIP3    H256547   0.248   3.644   5.484  1.9922  1.7888 -0.9069
11686TIP3   OH256548   4.655   2.963  16.711  0.8019  0.3521 -0.5105
11686TIP3    H156549   4.676   2.993  16.622  2.3374  0.4604 -0.1381
11686TIP3    H256550   4.724   2.900  16.732 -1.0731 -1.7839 -0.3984
11687TIP3   OH256551   3.911   4.546   5.618 -0.0381  0.6456 -0.7471
11687TIP3    H156552   3.945   4.459   5.596 -1.6286 -0.7674  1.8626
11687TIP3    H256553   3.870   4.577   5.537  1.2567 -0.6524 -1.9641
11688TIP3   OH256554   2.962   0.313   3.858  0.1345  0.4383 -0.1137
11688TIP3    H156555   3.029   0.267   3.807  1.9244  1.1798  1.4762
11688TIP3    H256556   2.909   0.358   3.792  1.7488  0.5591 -1.3745
11689TIP3   OH256557   5.642   5.536  15.330  0.4441 -0.4653  0.0129
11689TIP3    H156558   5.655   5.460  15.274  0.0918 -0.5255  0.0105
11689TIP3    H256559   5.657   5.503  15.418 -2.4158 -1.2565  0.3160
11690TIP3   OH256560   5.516   1.423   0.216  0.0619 -0.0033  0.3027
11690TIP3    H156561   5.433   1.376   0.209  0.6177 -0.9753 -0.0438
11690TIP3    H256562   5.575   1.376   0.157  0.2406  2.1091 -1.3246
11691TIP3   OH256563   1.048   2.664  16.709 -0.5985 -0.1251 -0.2153
11691TIP3    H156564   0.969   2.701  16.748 -0.8372  1.0133 -1.7210
11691TIP3    H256565   1.020   2.579  16.675 -0.1831 -1.5745  2.7239
11692TIP3   OH256566   3.803   4.501   3.691 -0.0924 -0.8472 -0.2720
11692TIP3    H156567   3.839   4.455   3.615  0.5143 -0.2706 -0.3406
11692TIP3    H256568   3.753   4.574   3.653  0.2416 -0.5376 -0.1236
11693TIP3   OH256569   6.271   2.621   0.752  0.2944  0.4567 -0.2281
11693TIP3    H156570   6.351   2.627   0.804  1.0770  0.5198 -1.4100
11693TIP3    H256571   6.202   2.605   0.816  1.5178 -1.7056  0.6435
11694TIP3   OH256572   0.036   2.756   1.883 -0.5339 -0.3184 -0.1999
11694TIP3    H156573   0.021   2.838   1.836  1.4760  1.2401  1.6567
11694TIP3    H256574  -0.036   2.750   1.945 -0.5470  0.2021 -0.1591
11695TIP3   OH256575   4.674   2.374   2.650  0.2386 -0.9369 -0.4354
11695TIP3    H156576   4.714   2.380   2.737 -1.7856 -2.2234  0.6425
11695TIP3    H256577   4.741   2.333   2.596  1.7237  0.3418  0.3401
11696TIP3   OH256578   6.538   3.487   3.598  0.0180  0.3751 -0.3020
11696TIP3    H156579   6.528   3.551   3.668  0.1889  0.0343  0.0413
11696TIP3    H256580   6.451   3.481   3.558 -1.0745 -1.9960  2.1526
11697TIP3   OH256581   5.847   6.403   4.619  0.0593  0.3921  0.0311
11697TIP3    H156582   5.926   6.420   4.670  0.9518 -1.7407 -0.5380
11697TIP3    H256583   5.846   6.473   4.553 -0.5031  2.5113  2.1117
11698TIP3   OH256584   1.906   3.888   4.176 -0.0665 -0.2419 -0.7018
11698TIP3    H156585   1.898   3.982   4.193  1.3240 -0.2997  0.4470
11698TIP3    H256586   1.918   3.881   4.082  0.6997  0.8134 -0.6985
11699TIP3   OH256587   4.566   5.868  12.638  0.2731 -0.6435  0.1656
11699TIP3    H156588   4.617   5.888  12.716  0.1779  3.6964 -0.6611
11699TIP3    H256589   4.554   5.952  12.594 -1.4693 -2.5478 -3.4815
11700TIP3   OH256590   4.594   3.119   5.128 -0.5376 -0.7242  0.1187
11700TIP3    H156591   4.605   3.147   5.219 -0.3930 -0.5501  0.0503
11700TIP3    H256592   4.683   3.121   5.092 -0.8423  1.6920 -0.7301
11701TIP3   OH256593   0.037   6.020   2.471  0.4876 -0.5863  0.9943
11701TIP3    H156594   0.022   6.050   2.381  1.7218  0.1966  1.0322
11701TIP3    H256595  -0.049   6.027   2.513 -0.4222 -2.2278 -0.4562
11702TIP3   OH256596   2.547   6.452   0.165 -0.0590 -0.4327 -0.0895
11702TIP3    H156597   2.523   6.415   0.250 -1.4580 -1.5358 -0.9214
11702TIP3    H256598   2.464   6.467   0.121  0.4699  3.0508 -0.1579
11703TIP3   OH256599   0.332   1.721   2.945 -0.2905  0.1173 -0.1608
11703TIP3    H156600   0.287   1.791   2.993  0.5244  1.4773 -1.2952
11703TIP3    H256601   0.364   1.662   3.014  0.7490  1.9461  1.0190
11704TIP3   OH256602   4.614   0.761   4.650  0.4537 -0.3242 -0.6255
11704TIP3    H156603   4.586   0.853   4.646 -3.4527 -1.3871 -1.9280
11704TIP3    H256604   4.645   0.749   4.740 -0.7767  1.7978  0.1566
11705TIP3   OH256605   2.464   3.186   0.809  0.5311  0.2064  0.0634
11705TIP3    H156606   2.497   3.247   0.875  0.1570  0.3741  0.0990
11705TIP3    H256607   2.496   3.101   0.837 -0.8966  0.0489  1.3319
11706TIP3   OH256608   6.615   3.471   2.767 -0.2205  0.1915 -0.0682
11706TIP3    H156609   6.586   3.391   2.723  0.0322 -0.2128  0.4918
11706TIP3    H256610   6.689   3.501   2.714 -0.2830  0.0283 -0.2515
11707TIP3   OH256611   0.944   0.103   4.231 -0.6139  0.5376 -0.0813
11707TIP3    H156612   0.954   0.134   4.141 -1.3583  0.0454 -0.3441
11707TIP3    H256613   0.974   0.012   4.228  1.7210  1.2146  0.7221
11708TIP3   OH256614   0.441   4.009  14.801  0.2745 -0.0521 -0.0293
11708TIP3    H156615   0.493   3.957  14.862  0.2962 -1.4416 -1.1739
11708TIP3    H256616   0.351   3.998  14.832  0.4568  0.7992  0.8380
11709TIP3   OH256617   4.250   5.817  17.188  0.0354 -0.3353 -0.5128
11709TIP3    H156618   4.321   5.835  17.126 -0.7742 -2.2912 -2.0934
11709TIP3    H256619   4.291   5.827  17.274  1.7458  0.3704 -1.3548
11710TIP3   OH256620   3.546   2.735   4.882  0.2272  0.3075 -0.0475
11710TIP3    H156621   3.619   2.689   4.923 -0.4452 -0.4631  0.2989
11710TIP3    H256622   3.485   2.666   4.856  1.2235  0.5779 -3.6821
11711TIP3   OH256623   0.178   6.403   1.141 -0.7307  0.4675 -0.1933
11711TIP3    H156624   0.150   6.369   1.056 -2.2425 -0.3248  0.5880
11711TIP3    H256625   0.139   6.344   1.205  0.4757  0.9881  1.0706
11712TIP3   OH256626   0.257   4.001   3.817  0.6559 -0.0151  0.0675
11712TIP3    H156627   0.221   4.076   3.769  0.9484  0.5363  0.6894
11712TIP3    H256628   0.180   3.949   3.840  0.6017 -0.9116 -1.9780
11713TIP3   OH256629   5.904   1.487  14.234  0.1367 -0.3485  0.2810
11713TIP3    H156630   5.898   1.568  14.184  1.6098  0.4558  1.3202
11713TIP3    H256631   5.983   1.444  14.201 -0.3348 -1.1034  0.1132
11714TIP3   OH256632   0.421   0.388   0.794 -0.1340 -0.1607  0.2501
11714TIP3    H156633   0.328   0.411   0.791 -0.0563  0.4298  1.5884
11714TIP3    H256634   0.457   0.442   0.865  1.4876  0.5073 -0.9937
11715TIP3   OH256635   0.853   2.429   3.245 -0.0946 -0.3409 -0.0832
11715TIP3    H156636   0.940   2.463   3.267  1.3416 -1.8046 -2.9566
11715TIP3    H256637   0.820   2.488   3.178 -1.1524 -0.0549  0.6731
11716TIP3   OH256638   1.423   3.531   5.157  0.5887  0.5807  0.3940
11716TIP3    H156639   1.389   3.558   5.071 -2.1293  1.2942  1.5790
11716TIP3    H256640   1.484   3.600   5.181 -0.0418  1.3643 -0.1933
11717TIP3   OH256641   1.444   4.178  14.825  0.2896 -0.2942  0.2868
11717TIP3    H156642   1.421   4.248  14.764  2.2255 -0.6562 -0.9433
11717TIP3    H256643   1.367   4.169  14.881 -2.4072 -1.1380 -3.1790
11718TIP3   OH256644   3.749   3.710  14.294 -0.0711 -0.1540  0.7209
11718TIP3    H156645   3.753   3.651  14.369  1.5031  0.4791  1.1744
11718TIP3    H256646   3.787   3.659  14.222 -1.0501 -0.5559  0.4673
11719TIP3   OH256647   4.976   4.399   4.172 -0.3217  1.1674 -0.5259
11719TIP3    H156648   5.070   4.382   4.179 -0.3137  1.3544 -0.1635
11719TIP3    H256649   4.966   4.491   4.197 -0.7651  0.7599  0.8998
11720TIP3   OH256650   1.917   3.169   1.154 -0.0171  0.5959 -0.1348
11720TIP3    H156651   1.976   3.221   1.101 -0.8909  1.2374 -0.4980
11720TIP3    H256652   1.974   3.110   1.203  0.9030  1.1126 -0.5691
11721TIP3   OH256653   6.344   6.057  16.572 -0.0029 -1.2320 -0.5393
11721TIP3    H156654   6.375   6.130  16.520 -0.1221 -1.8242 -1.4576
11721TIP3    H256655   6.310   6.097  16.652  0.5622 -0.3495 -0.7292
11722TIP3   OH256656   6.321   6.537  15.607  0.2456 -0.0122  0.2151
11722TIP3    H156657   6.307   6.566  15.697  0.6363 -2.4738  1.1614
11722TIP3    H256658   6.242   6.563  15.560  0.3717  2.0290  1.0195
11723TIP3   OH256659   3.821   0.359   6.051 -0.8095  0.2956  0.1037
11723TIP3    H156660   3.869   0.433   6.087  0.6942 -1.7976  2.7914
11723TIP3    H256661   3.740   0.356   6.102 -0.1989 -0.7135  1.0493
11724TIP3   OH256662   4.014   1.147   2.981 -0.1932  0.1095 -0.0476
11724TIP3    H156663   4.046   1.221   2.929 -0.3479  0.4103  0.2777
11724TIP3    H256664   4.070   1.074   2.956 -0.7427  0.0577 -1.1885
11725TIP3   OH256665   2.457   6.530   6.403  0.1866  0.4334 -0.1047
11725TIP3    H156666   2.547   6.516   6.432  0.5052 -0.9197 -1.6075
11725TIP3    H256667   2.446   6.625   6.405  2.1183  0.7485 -1.1747
11726TIP3   OH256668   0.314   1.014   0.030 -0.5694  0.2422  0.1094
11726TIP3    H156669   0.280   0.956   0.098 -2.1627  0.6663 -0.2879
11726TIP3    H256670   0.317   1.101   0.072 -1.6591  0.5251 -0.3587
11727TIP3   OH256671   5.843   3.600   2.350 -0.1999  0.0593  0.3803
11727TIP3    H156672   5.750   3.585   2.330  0.1140 -1.1538 -0.2215
11727TIP3    H256673   5.874   3.654   2.277 -0.2188 -0.2687  0.1302
11728TIP3   OH256674   3.370   3.839  16.870  0.1719 -0.0307 -0.1712
11728TIP3    H156675   3.322   3.902  16.924  0.3639 -1.3862  1.6481
11728TIP3    H256676   3.455   3.830  16.913  0.3269 -1.1786 -0.6816
11729TIP3   OH256677   6.390   2.875  12.433  0.2215  0.8852  0.0283
11729TIP3    H156678   6.328   2.908  12.367 -0.4905  0.1347  0.2993
11729TIP3    H256679   6.441   2.952  12.458 -0.4114  1.4688 -0.4178
11730TIP3   OH256680   0.142   4.585   2.782  0.0556  0.2973 -0.3496
11730TIP3    H156681   0.158   4.656   2.844 -1.6710  0.7088 -0.3182
11730TIP3    H256682   0.131   4.629   2.698 -2.3873  0.2751 -0.1103
11731TIP3   OH256683   6.762   3.780   6.514  0.3371 -0.6919 -0.2900
11731TIP3    H156684   6.816   3.755   6.440 -0.5284  1.0085 -1.5670
11731TIP3    H256685   6.785   3.871   6.531  0.3138 -0.9637  1.3643
11732TIP3   OH256686   6.412   4.618   2.920  0.0064 -0.2012  0.0042
11732TIP3    H156687   6.388   4.694   2.973 -0.4706 -1.0367  1.0307
11732TIP3    H256688   6.345   4.553   2.940  1.0402 -1.2923  0.0113
11733TIP3   OH256689   0.620   1.781   5.889  0.0447  0.0069 -0.5043
11733TIP3    H156690   0.541   1.813   5.847  0.4772  0.9478 -0.6218
11733TIP3    H256691   0.590   1.745   5.973 -0.5349  0.0789 -0.6756
11734TIP3   OH256692   1.589   4.982   3.193 -0.4429 -0.0704 -0.1578
11734TIP3    H156693   1.613   4.890   3.195  0.6106  0.1747 -0.7806
11734TIP3    H256694   1.628   5.016   3.112 -0.8995  0.8965  0.0084
11735TIP3   OH256695   0.368   3.421   0.314 -0.2318 -0.3033  0.0502
11735TIP3    H156696   0.293   3.425   0.255 -1.0525 -1.9058  0.9080
11735TIP3    H256697   0.346   3.483   0.384 -0.6540 -0.5992  0.1836
11736TIP3   OH256698   3.155   1.725   4.759 -0.3517  0.3183  0.4819
11736TIP3    H156699   3.186   1.646   4.713 -0.0478  1.0962 -0.6964
11736TIP3    H256700   3.094   1.692   4.825  0.1857 -0.9474  0.3698
11737TIP3   OH256701   1.390   2.245   5.500  0.0629  0.4615 -0.7103
11737TIP3    H156702   1.337   2.189   5.443  2.4429 -1.6980 -0.9526
11737TIP3    H256703   1.394   2.199   5.583  1.3078  0.7004 -0.6182
11738TIP3   OH256704   5.558   0.938   0.636 -0.0650 -0.4114 -0.1140
11738TIP3    H156705   5.592   0.901   0.717  0.4310  0.5394  0.1269
11738TIP3    H256706   5.468   0.906   0.630  0.2804 -1.4581  0.1908
11739TIP3   OH256707   3.252   2.344   3.837  0.2582 -0.1844  0.5247
11739TIP3    H156708   3.173   2.377   3.794  0.8828  2.4266  1.2178
11739TIP3    H256709   3.256   2.252   3.812 -1.3325  0.3388 -2.0160
11740TIP3   OH256710   5.397   1.426  16.072 -0.5157 -0.2554 -0.2870
11740TIP3    H156711   5.324   1.447  16.130  0.6912 -0.0316  1.2290
11740TIP3    H256712   5.385   1.334  16.049 -0.2015 -0.8180  1.6298
11741TIP3   OH256713   4.224   3.532   3.100  0.6237  0.4903  0.1687
11741TIP3    H156714   4.142   3.579   3.081  1.2882  1.4598 -0.3813
11741TIP3    H256715   4.285   3.600   3.125  1.7024 -0.0343 -0.9212
11742TIP3   OH256716   6.282   5.662   0.397 -0.7052  0.3790  0.4198
11742TIP3    H156717   6.361   5.705   0.430  0.4474 -1.4130  0.1501
11742TIP3    H256718   6.311   5.573   0.375 -2.6333 -0.0855 -0.4314
11743TIP3   OH256719   2.430   2.820   3.581  0.5121 -0.3548  0.0950
11743TIP3    H156720   2.357   2.780   3.535 -0.3053 -1.0294  1.8998
11743TIP3    H256721   2.479   2.746   3.618  0.1833  0.1703  1.6807
11744TIP3   OH256722   5.335   6.245  12.475  0.0895 -0.1907 -0.2620
11744TIP3    H156723   5.271   6.278  12.538  0.7222 -0.3372  0.4734
11744TIP3    H256724   5.350   6.154  12.502  0.7463 -0.1006 -0.3238
11745TIP3   OH256725   5.986   2.577  12.883 -0.2910  0.1995  0.2659
11745TIP3    H156726   5.949   2.517  12.948 -1.0592  1.3896  0.9645
11745TIP3    H256727   5.911   2.604  12.830 -0.0763  0.9747  0.3366
11746TIP3   OH256728   1.404   3.435  11.097 -0.1148  0.3785  0.4328
11746TIP3    H156729   1.336   3.380  11.057 -0.4794  0.3004  1.1446
11746TIP3    H256730   1.408   3.405  11.188 -0.1106  1.3388  0.7537
11747TIP3   OH256731   6.406   3.587  11.627  0.1772  0.2114 -0.5812
11747TIP3    H156732   6.434   3.524  11.560 -0.1076 -0.0674 -0.4412
11747TIP3    H256733   6.350   3.536  11.686  0.2847  0.4973 -0.2287
11748TIP3   OH256734   5.450   5.872  13.343 -0.0931 -0.5517  0.3191
11748TIP3    H156735   5.407   5.948  13.305  1.5360 -0.7017 -1.9816
11748TIP3    H256736   5.478   5.901  13.430 -2.2597  0.4009  0.7707
11749TIP3   OH256737   4.981   2.629   0.769 -0.0076  0.4740 -0.2696
11749TIP3    H156738   5.035   2.684   0.826  2.4230 -0.4362 -1.5480
11749TIP3    H256739   4.959   2.685   0.695 -2.0113  1.2366  0.8298
11750TIP3   OH256740   1.966   0.074  16.806 -0.6556 -0.6301 -0.2646
11750TIP3    H156741   1.970   0.001  16.744  0.4258 -1.3351  0.5794
11750TIP3    H256742   2.031   0.052  16.872 -3.9164 -1.5802  2.9546
11751TIP3   OH256743   3.846   3.391  15.720  0.0946 -0.3936  0.2590
11751TIP3    H156744   3.783   3.415  15.788 -1.0095 -0.7271 -0.6141
11751TIP3    H256745   3.813   3.434  15.641  1.8822  0.7910  0.0969
11752TIP3   OH256746   4.219   2.369  15.580  0.3414  0.2540 -0.3623
11752TIP3    H156747   4.252   2.452  15.615  1.2668 -0.3373  0.2231
11752TIP3    H256748   4.297   2.313  15.574 -0.4310 -0.9494  0.3332
11753TIP3   OH256749   5.227   4.096   1.883  0.0476 -0.2513  0.2678
11753TIP3    H156750   5.275   4.028   1.931  0.1525  0.1064  0.6727
11753TIP3    H256751   5.206   4.055   1.799  1.4234 -0.2721 -0.0783
11754TIP3   OH256752   4.657   1.053   3.843  0.0763 -0.6539  0.3502
11754TIP3    H156753   4.633   1.130   3.791 -4.1045 -1.4364  0.7781
11754TIP3    H256754   4.719   1.086   3.908 -0.2350  1.9565 -0.5708
11755TIP3   OH256755   4.428   2.658   2.685 -0.1449 -0.3809 -0.2289
11755TIP3    H156756   4.348   2.614   2.655 -0.2128  0.9234 -2.1642
11755TIP3    H256757   4.444   2.725   2.619  0.1965  2.2115  2.3100
11756TIP3   OH256758   5.618   2.232   5.367 -0.4302 -0.6402 -0.1681
11756TIP3    H156759   5.569   2.216   5.448 -0.0401 -2.7106 -0.2851
11756TIP3    H256760   5.551   2.232   5.298 -0.3995 -3.0310 -0.2764
11757TIP3   OH256761   5.513   5.963  11.309  1.1053 -0.0122  0.7676
11757TIP3    H156762   5.557   5.936  11.229  1.6853  0.8307  0.7872
11757TIP3    H256763   5.420   5.952  11.291  1.2552 -0.2683  0.1440
11758TIP3   OH256764   3.657   3.977  12.087  0.1245  0.0944 -0.1530
11758TIP3    H156765   3.585   3.991  12.148  0.5005 -0.2477  0.3823
11758TIP3    H256766   3.628   4.017  12.005 -1.3310 -1.3544 -0.4167
11759TIP3   OH256767   0.953   6.192  10.674  0.3562 -0.1095 -0.0607
11759TIP3    H156768   0.924   6.110  10.714 -1.3854  1.0027  1.0787
11759TIP3    H256769   0.883   6.215  10.613 -0.3930  1.6958  1.3826
11760TIP3   OH256770   3.195   6.716  14.603  0.5467  0.3799  0.7019
11760TIP3    H156771   3.259   6.777  14.640 -1.5516  1.5889  2.6165
11760TIP3    H256772   3.163   6.667  14.679 -0.6677 -0.3082 -0.2179
11761TIP3   OH256773   3.697   5.171  11.995 -0.4321 -0.4445 -0.0089
11761TIP3    H156774   3.739   5.177  12.081  0.5304  0.5902 -0.5285
11761TIP3    H256775   3.635   5.244  11.994 -1.7896 -1.5574  0.4909
11762TIP3   OH256776   6.378   0.280  13.537  0.3828  0.4267 -0.1243
11762TIP3    H156777   6.307   0.250  13.594  1.1244 -1.5570 -0.1745
11762TIP3    H256778   6.339   0.287  13.451  0.3287 -1.1188 -0.2425
11763TIP3   OH256779   2.697   5.224   3.561  0.0751  0.2698 -0.2687
11763TIP3    H156780   2.613   5.201   3.601  0.5389 -0.4602  0.3267
11763TIP3    H256781   2.762   5.188   3.621  0.8178  0.8386 -0.7171
11764TIP3   OH256782   3.290   3.442   4.074 -0.2581 -0.0667 -0.4330
11764TIP3    H156783   3.375   3.461   4.113  0.5971 -2.6183 -0.9013
11764TIP3    H256784   3.265   3.523   4.030  1.1453  1.2411  1.0489
11765TIP3   OH256785   1.869   5.593  15.818 -0.0671  0.4530 -0.0094
11765TIP3    H156786   1.828   5.519  15.774  1.6844  0.0780 -1.1223
11765TIP3    H256787   1.833   5.671  15.775 -0.5015  0.1850 -0.1318
11766TIP3   OH256788   6.146   1.358   2.686  0.2853 -0.1082 -0.0221
11766TIP3    H156789   6.089   1.301   2.737 -0.2287  0.2499 -0.1866
11766TIP3    H256790   6.087   1.402   2.625  0.6444  0.7465  0.2358
11767TIP3   OH256791   4.709   1.749  15.974 -0.1219 -0.3014  0.0273
11767TIP3    H156792   4.798   1.744  16.010 -0.0785  0.7680  0.1153
11767TIP3    H256793   4.653   1.759  16.051 -0.1596  0.5830 -0.1015
11768TIP3   OH256794   5.668   0.272   3.279  0.4327 -0.0589  0.6339
11768TIP3    H156795   5.680   0.224   3.361  0.7957 -0.3034  0.4416
11768TIP3    H256796   5.576   0.298   3.280  0.5282  0.2815  1.2997
11769TIP3   OH256797   2.241   6.143   0.013  0.5006 -0.0334  0.5259
11769TIP3    H156798   2.324   6.159  -0.030  0.7542  1.1154  1.3854
11769TIP3    H256799   2.203   6.231   0.025 -0.6479 -0.5079  0.4965
11770TIP3   OH256800   0.043   2.506  15.895  0.3660 -0.7988 -0.4441
11770TIP3    H156801   0.123   2.540  15.933 -0.5689  1.3641 -0.2391
11770TIP3    H256802  -0.006   2.470  15.970  0.6692 -1.1419 -0.4074
11771TIP3   OH256803   1.632   6.465  14.858  0.2873  0.3335 -0.5303
11771TIP3    H156804   1.622   6.410  14.936 -0.4572  1.1654 -0.0146
11771TIP3    H256805   1.651   6.404  14.787 -2.3395 -0.7991 -0.3426
11772TIP3   OH256806   3.849   1.635  16.011  0.1659 -0.8485  0.0871
11772TIP3    H156807   3.927   1.590  15.981 -0.1562 -0.4957 -1.3694
11772TIP3    H256808   3.824   1.692  15.938 -0.0101  0.9468  1.4718
11773TIP3   OH256809   6.804   0.305  16.437  0.1181 -0.0152  0.3223
11773TIP3    H156810   6.826   0.285  16.346 -2.7268  0.2492 -0.5032
11773TIP3    H256811   6.770   0.223  16.472  0.5261  0.0747  0.9286
11774TIP3   OH256812   5.978   6.801   3.336  0.5053 -0.4138 -0.5000
11774TIP3    H156813   6.043   6.755   3.389  0.1263  0.5691  0.9106
11774TIP3    H256814   5.894   6.772   3.372  0.2536  0.7778 -0.0742
11775TIP3   OH256815   4.594   4.476  10.420  0.5176 -0.1325  0.2926
11775TIP3    H156816   4.649   4.536  10.369  0.5535  0.5098  1.0565
11775TIP3    H256817   4.540   4.534  10.474  0.0596 -0.7826  0.5444
11776TIP3   OH256818   4.473   5.944   1.207 -0.1798 -0.3888 -0.1439
11776TIP3    H156819   4.449   6.004   1.137  0.1653 -0.7758 -0.6074
11776TIP3    H256820   4.555   5.979   1.242 -0.5335 -0.0040  0.2983
11777TIP3   OH256821   1.312   3.149   2.044  0.0900  0.7530  0.4329
11777TIP3    H156822   1.262   3.224   2.077 -2.5850 -1.9912  3.2558
11777TIP3    H256823   1.367   3.123   2.117  1.0556 -0.0160 -0.5366
11778TIP3   OH256824   0.753   4.933  14.242 -0.4105  0.4537 -0.0139
11778TIP3    H156825   0.745   4.867  14.311  1.8259  0.7539  0.6299
11778TIP3    H256826   0.753   5.017  14.289  4.3217  0.6004  0.2326
11779TIP3   OH256827   3.519   0.003   0.679 -0.1978 -0.4169  0.7276
11779TIP3    H156828   3.449   0.030   0.621  2.6059  1.3107 -2.1972
11779TIP3    H256829   3.505  -0.091   0.692 -2.5242 -0.2906 -0.4310
11780TIP3   OH256830   6.544   2.316   0.836  0.3320  0.8999  0.4473
11780TIP3    H156831   6.491   2.236   0.836 -1.7051  2.0218 -3.2249
11780TIP3    H256832   6.634   2.285   0.834 -0.3463 -1.2701  0.4599
11781TIP3   OH256833   0.902   2.330   1.247  0.0021  0.2322 -0.2262
11781TIP3    H156834   0.858   2.384   1.181  0.5707  0.9825  0.0023
11781TIP3    H256835   0.992   2.361   1.248 -0.2218  0.9207  1.6189
11782TIP3   OH256836   0.157   6.069   1.424  0.4723 -0.0906  0.1265
11782TIP3    H156837   0.097   6.053   1.497 -0.6597 -1.4346 -1.0650
11782TIP3    H256838   0.124   6.149   1.383  0.5194  0.1105  0.4737
11783TIP3   OH256839   3.119   4.948   1.762 -0.1322 -0.4141  0.7077
11783TIP3    H156840   3.136   5.020   1.822  0.9037  0.9015 -1.0544
11783TIP3    H256841   3.024   4.936   1.764 -0.4127  1.5254  0.5130
11784TIP3   OH256842   6.065   4.811   3.039  0.0401 -0.8004  0.4263
11784TIP3    H156843   6.046   4.766   3.122 -1.4600  0.3218  0.7248
11784TIP3    H256844   5.985   4.804   2.989  0.2173  0.3847 -0.0601
11785TIP3   OH256845   6.140   1.606  14.066 -0.0205  0.1095 -0.0049
11785TIP3    H156846   6.192   1.540  14.021  0.3158 -1.6149  2.6999
11785TIP3    H256847   6.068   1.625  14.005  2.1059  0.4010 -2.5798
11786TIP3   OH256848   6.817   0.454  15.116 -0.5059  0.1217  0.5473
11786TIP3    H156849   6.749   0.455  15.049  0.0476  2.5397 -0.0905
11786TIP3    H256850   6.806   0.370  15.161 -4.2118  0.5511  0.7792
11787TIP3   OH256851   1.297   4.904  11.421 -0.2197 -0.0552 -0.0820
11787TIP3    H156852   1.211   4.923  11.384 -0.0694 -0.2388 -0.5306
11787TIP3    H256853   1.286   4.918  11.515 -0.5087  0.7481 -0.2295
11788TIP3   OH256854   0.600   1.372   6.210  0.1492  0.1551  0.4930
11788TIP3    H156855   0.568   1.357   6.121  1.0007 -0.3603  0.2656
11788TIP3    H256856   0.575   1.294   6.258  2.0325 -0.7965  0.0241
11789TIP3   OH256857   6.380   3.330   3.053  0.3669  0.3611  0.0189
11789TIP3    H156858   6.469   3.293   3.055  0.5947  0.8837  1.5084
11789TIP3    H256859   6.369   3.362   2.964  2.3707  1.8473  0.2273
11790TIP3   OH256860   0.968   0.990  16.834  0.3415 -0.6210 -0.4909
11790TIP3    H156861   0.975   0.922  16.766  0.4180 -0.8224 -0.2827
11790TIP3    H256862   0.882   0.975  16.873  0.5356 -0.8698 -0.1564
11791TIP3   OH256863   2.419   4.130  14.402  0.6983 -0.3265  0.1785
11791TIP3    H156864   2.426   4.204  14.463  0.4260  0.1835 -0.3943
11791TIP3    H256865   2.471   4.157  14.327  0.7976 -0.8306  0.0677
11792TIP3   OH256866   5.269   2.583   3.768  0.2716  0.0288 -0.3209
11792TIP3    H156867   5.216   2.530   3.709 -1.7014 -1.1265  2.2703
11792TIP3    H256868   5.250   2.673   3.743  0.1965 -0.4291 -1.9853
11793TIP3   OH256869   5.472   1.563  13.839 -0.1302 -0.2838  0.1919
11793TIP3    H156870   5.431   1.600  13.917  1.3379  0.5929  0.5887
11793TIP3    H256871   5.400   1.528  13.788 -1.5558  2.4549  0.1648
11794TIP3   OH256872   1.443   1.450   5.267  0.9198  0.0851  0.4872
11794TIP3    H156873   1.515   1.423   5.324  1.4829  0.5755  0.0226
11794TIP3    H256874   1.373   1.476   5.327  1.1463 -0.3551  0.9454
11795TIP3   OH256875   1.393   3.236  13.014 -0.0950 -0.3987 -0.2382
11795TIP3    H156876   1.414   3.219  12.922  0.2164 -0.7225 -0.1104
11795TIP3    H256877   1.303   3.271  13.012 -2.0560 -4.8133 -0.3232
11796TIP3   OH256878   6.293   1.757   5.849 -0.5134 -0.2765  0.3112
11796TIP3    H156879   6.231   1.694   5.813 -1.0438 -0.1008  0.8865
11796TIP3    H256880   6.272   1.760   5.943 -0.9751  1.2684  0.1866
11797TIP3   OH256881   4.987   5.411   0.947  0.6633  0.5638  0.2162
11797TIP3    H156882   4.925   5.401   0.875  1.7072  0.2032 -0.6578
11797TIP3    H256883   5.031   5.494   0.929  0.8083  0.5603  0.5409
11798TIP3   OH256884   0.352   1.328  14.642  0.7259 -0.5140 -0.1170
11798TIP3    H156885   0.294   1.264  14.601 -0.7535  0.6112  0.1474
11798TIP3    H256886   0.345   1.406  14.588  0.6302  0.2030  0.8998
11799TIP3   OH256887   5.106   5.519  16.401 -0.1821  0.1143 -0.4138
11799TIP3    H156888   5.163   5.561  16.337  0.4600  0.5014  0.3887
11799TIP3    H256889   5.051   5.590  16.434 -1.7025 -0.3991 -1.7450
11800TIP3   OH256890   3.838   2.989  14.356  0.2735 -0.0511 -0.1312
11800TIP3    H156891   3.886   2.916  14.395  2.1871  1.5860  0.7382
11800TIP3    H256892   3.750   2.982  14.391 -0.0773 -2.8524 -1.3495
11801TIP3   OH256893   1.164   5.782  16.987 -0.2128 -0.0636  0.0848
11801TIP3    H156894   1.188   5.691  16.968  0.5911 -0.2783  1.9416
11801TIP3    H256895   1.094   5.774  17.053 -0.5568  0.6690 -0.1842
11802TIP3   OH256896   3.073   6.250   4.636  0.8486 -0.8358 -0.6432
11802TIP3    H156897   3.043   6.161   4.656 -1.4317 -0.0545 -0.2515
11802TIP3    H256898   3.075   6.253   4.540 -0.6629 -0.8857 -0.7104
11803TIP3   OH256899   1.038   0.523  11.666 -0.4897  0.3656  0.4628
11803TIP3    H156900   1.093   0.451  11.694 -0.5615  0.6244  1.2863
11803TIP3    H256901   1.022   0.506  11.573  1.2060  0.4491  0.1287
11804TIP3   OH256902   2.750   2.211   0.353  0.4035 -0.2103 -0.4241
11804TIP3    H156903   2.759   2.164   0.271 -2.4073  0.0023 -0.9701
11804TIP3    H256904   2.792   2.296   0.337  0.6886 -0.5111 -1.3086
11805TIP3   OH256905   1.656   1.656   5.189 -0.3164  0.0690 -0.4816
11805TIP3    H156906   1.628   1.704   5.111  2.1852 -0.9668 -2.1370
11805TIP3    H256907   1.606   1.574   5.187 -0.3598  0.1056 -0.9084
11806TIP3   OH256908   4.272   0.691  15.401  0.3515  0.1605 -0.7878
11806TIP3    H156909   4.338   0.723  15.462 -0.3765  0.3928 -0.1068
11806TIP3    H256910   4.248   0.767  15.348 -0.9110  0.6259  0.4004
11807TIP3   OH256911   2.142   4.446  15.067 -0.2587 -0.1941 -0.9104
11807TIP3    H156912   2.070   4.489  15.112 -0.5728 -1.1357 -0.4857
11807TIP3    H256913   2.151   4.361  15.110  0.0639 -0.7357 -1.9858
11808TIP3   OH256914   3.393   2.864   3.869 -0.3207  0.0399  0.2522
11808TIP3    H156915   3.387   2.769   3.856 -0.2241 -0.1609  1.5150
11808TIP3    H256916   3.381   2.876   3.963  1.0472  1.1646  0.3177
11809TIP3   OH256917   3.087   3.797  14.040 -0.2136  0.1811 -0.0816
11809TIP3    H156918   3.023   3.788  14.111 -0.1775  1.9395  0.2272
11809TIP3    H256919   3.040   3.769  13.962 -0.2291 -1.8676  0.5930
11810TIP3   OH256920   3.961   6.296  13.535  0.2739 -0.1316 -0.2549
11810TIP3    H156921   4.054   6.304  13.557  0.1854  0.6605 -0.1447
11810TIP3    H256922   3.938   6.206  13.560  1.1920 -0.5830 -1.0154
11811TIP3   OH256923   5.253   6.236   3.691  0.0164 -0.2411  0.0194
11811TIP3    H156924   5.239   6.175   3.619  0.2513 -0.8967  0.5235
11811TIP3    H256925   5.193   6.308   3.673  0.0053 -0.4420 -0.7803
11812TIP3   OH256926   4.250   5.845  11.146 -0.2138  0.0821  0.0892
11812TIP3    H156927   4.339   5.820  11.171 -0.7706 -0.9697  1.0947
11812TIP3    H256928   4.245   5.824  11.053 -0.5496 -3.4888  0.7716
11813TIP3   OH256929   4.440   3.344  14.394 -0.6599 -0.2035  0.3308
11813TIP3    H156930   4.535   3.342  14.395 -0.6538 -0.9377 -0.4111
11813TIP3    H256931   4.415   3.372  14.482  0.2008 -3.0070  1.5897
11814TIP3   OH256932   5.196   6.595  16.947 -0.3617 -0.1613  0.3467
11814TIP3    H156933   5.243   6.535  17.005  0.0613 -0.6609 -0.4821
11814TIP3    H256934   5.234   6.578  16.860 -3.1514 -1.7847 -0.6970
11815TIP3   OH256935   0.742   4.356   5.943 -0.0306 -0.3672  0.1169
11815TIP3    H156936   0.730   4.305   5.863  0.1460  0.0716 -0.1923
11815TIP3    H256937   0.671   4.420   5.942  0.6050  0.3469 -0.2464
11816TIP3   OH256938   0.102   5.470  13.708 -0.3389  0.5554  0.0865
11816TIP3    H156939   0.142   5.522  13.637 -1.9947 -0.9674 -2.1076
11816TIP3    H256940   0.025   5.521  13.734  0.5178  1.3358  1.1657
11817TIP3   OH256941   3.857   0.107  15.467 -0.3523 -0.1032 -0.2601
11817TIP3    H156942   3.839   0.197  15.495 -3.1661  0.5735 -3.5709
11817TIP3    H256943   3.813   0.052  15.531  1.8399  0.7002  2.1117
11818TIP3   OH256944   1.212   4.004  14.518 -0.4402 -0.5179 -0.0783
11818TIP3    H156945   1.121   4.010  14.490 -0.8825 -1.9946  0.8913
11818TIP3    H256946   1.209   4.016  14.613  0.4463 -0.0785 -0.0902
11819TIP3   OH256947   4.083   6.753  14.312 -0.4653 -0.1480  0.2978
11819TIP3    H156948   4.032   6.684  14.270  0.1003 -1.0855  1.0868
11819TIP3    H256949   4.166   6.754  14.264 -0.4054 -0.1530  0.3998
11820TIP3   OH256950   3.122   4.772   5.804 -0.0202 -0.2412 -0.3872
11820TIP3    H156951   3.138   4.866   5.816 -0.0873 -0.1798 -0.7649
11820TIP3    H256952   3.209   4.734   5.794  0.0564 -0.3346  0.5460
11821TIP3   OH256953   1.910   1.891  12.309  0.5428  0.1662 -0.7236
11821TIP3    H156954   1.966   1.933  12.244  1.3703 -0.8804 -0.7116
11821TIP3    H256955   1.823   1.928  12.293  0.9635  0.8096 -1.6312
11822TIP3   OH256956   6.198   3.284  15.386 -0.4056  0.4061  0.4979
11822TIP3    H156957   6.174   3.332  15.306 -0.4543  0.4480  0.5372
11822TIP3    H256958   6.115   3.248  15.418 -0.2053 -0.7258 -0.1882
11823TIP3   OH256959   4.157   4.979  15.009  0.8910  0.8849  0.0199
11823TIP3    H156960   4.225   4.912  14.997  0.2222  0.1194  0.3612
11823TIP3    H256961   4.160   5.000  15.102 -0.9618 -0.9919  0.5719
11824TIP3   OH256962   2.848   6.565   2.434 -0.2278 -0.2020 -0.3204
11824TIP3    H156963   2.773   6.561   2.493 -0.7397 -1.4064 -1.0111
11824TIP3    H256964   2.869   6.473   2.416  1.2422  0.1129 -0.3705
11825TIP3   OH256965   4.990   5.262   5.881  0.3893  0.4414  0.5042
11825TIP3    H156966   4.934   5.287   5.955  0.3025  1.8026  0.0041
11825TIP3    H256967   5.079   5.268   5.916  0.3118  0.1461  0.7597
11826TIP3   OH256968   6.289   4.888   3.383 -0.4107 -0.0844 -0.0452
11826TIP3    H156969   6.320   4.976   3.363  0.3836 -0.4934 -0.6716
11826TIP3    H256970   6.304   4.878   3.477 -1.4852  0.8060  0.2531
11827TIP3   OH256971   1.830   5.878  11.369  0.1568 -0.3904  1.1565
11827TIP3    H156972   1.865   5.791  11.385 -0.3698 -0.5093  1.6899
11827TIP3    H256973   1.889   5.938  11.414  1.4973 -0.2995 -0.5846
11828TIP3   OH256974   5.654   2.387   0.468 -0.5796  0.2190  0.5720
11828TIP3    H156975   5.684   2.332   0.541  1.0730  0.5611  0.1882
11828TIP3    H256976   5.672   2.335   0.390 -0.9469  0.4733  0.3159
11829TIP3   OH256977   6.695   3.236  12.709  0.0559 -0.4736 -0.0033
11829TIP3    H156978   6.762   3.296  12.678 -0.0884 -0.6510 -0.6730
11829TIP3    H256979   6.735   3.191  12.783 -0.7406  2.4127  2.4169
11830TIP3   OH256980   2.824   1.490  16.412  0.0030 -0.3190  0.2892
11830TIP3    H156981   2.866   1.414  16.370  0.1961  0.5686 -1.1943
11830TIP3    H256982   2.739   1.496  16.369 -1.2427 -1.3765  2.4325
11831TIP3   OH256983   4.596   2.234  11.566 -0.0791  0.2118 -0.2814
11831TIP3    H156984   4.590   2.328  11.582 -0.1045  0.7304 -2.8495
11831TIP3    H256985   4.512   2.200  11.597  0.5878  0.6914  2.2675
11832TIP3   OH256986   1.539   5.262   3.490 -0.5775  0.2810  0.4106
11832TIP3    H156987   1.598   5.189   3.507 -0.1997  0.6274  0.6233
11832TIP3    H256988   1.583   5.338   3.528 -0.2702  0.8704 -1.0256
11833TIP3   OH256989   5.818   0.067  16.001  0.1535 -0.4312 -0.0941
11833TIP3    H156990   5.763   0.143  15.984  1.2172  1.2449  3.2456
11833TIP3    H256991   5.758  -0.008  15.996 -1.4343  0.8403 -1.0067
11834TIP3   OH256992   1.998   3.427   2.334 -0.4425  0.7610  0.0535
11834TIP3    H156993   2.078   3.408   2.285 -0.9829 -1.3407 -0.0985
11834TIP3    H256994   2.025   3.420   2.426 -0.2609  1.0215  0.0238
11835TIP3   OH256995   5.516   0.832  13.038  0.4662 -0.1403 -0.4536
11835TIP3    H156996   5.590   0.890  13.021  0.6539 -0.1248  0.3733
11835TIP3    H256997   5.453   0.851  12.969  1.2698 -0.2089 -1.2159
11836TIP3   OH256998   2.611   3.212   4.692 -0.3924 -0.3655 -0.3123
11836TIP3    H156999   2.547   3.284   4.699  1.5468  1.4891 -0.6577
11836TIP3    H257000   2.627   3.186   4.782 -0.3018  0.4102 -0.0920
11837TIP3   OH257001   1.265   5.426   3.456  0.1005  0.4690 -0.3154
11837TIP3    H157002   1.360   5.410   3.461  0.0785  0.0670 -1.0622
11837TIP3    H257003   1.258   5.502   3.398 -0.1536 -1.0377 -2.3323
11838TIP3   OH257004   3.006   1.618   0.184 -0.6281 -0.2652 -0.0924
11838TIP3    H157005   3.010   1.689   0.248 -0.3130  1.0257 -1.5030
11838TIP3    H257006   3.008   1.538   0.238 -1.7833  0.7602  1.5672
11839TIP3   OH257007   0.315   3.278   6.282  0.0426  0.0721 -0.2946
11839TIP3    H157008   0.328   3.256   6.374 -0.3641  0.6012 -0.1040
11839TIP3    H257009   0.222   3.261   6.266  0.0390  0.2985 -0.5203
11840TIP3   OH257010   4.919   0.776  12.833 -0.0899 -0.4742 -0.6621
11840TIP3    H157011   4.993   0.720  12.809 -0.7845 -0.6526 -2.5101
11840TIP3    H257012   4.842   0.726  12.808 -0.8919 -0.3515  1.3820
11841TIP3   OH257013   0.237   6.538  17.225 -0.0854 -0.0831 -0.1025
11841TIP3    H157014   0.174   6.467  17.211  0.3156 -0.0180 -2.8952
11841TIP3    H257015   0.313   6.494  17.264 -0.0818 -1.1283 -1.2016
11842TIP3   OH257016   6.484   6.661   4.431  0.9449  0.8426 -0.1082
11842TIP3    H157017   6.536   6.638   4.354 -0.1453  0.2748 -0.7033
11842TIP3    H257018   6.407   6.604   4.426 -0.2571  2.3719  0.1616
11843TIP3   OH257019   6.239   2.907  15.265 -0.0969 -0.6561  0.2218
11843TIP3    H157020   6.238   2.811  15.257  2.9639 -0.7874  0.4370
11843TIP3    H257021   6.220   2.923  15.357  0.7451 -1.1599  0.4954
11844TIP3   OH257022   0.918   6.344   1.931 -0.2179 -0.5376 -0.1941
11844TIP3    H157023   0.864   6.274   1.893 -0.0623 -0.3821 -0.7147
11844TIP3    H257024   0.975   6.371   1.859  0.8310 -0.9656  0.4580
11845TIP3   OH257025   5.761   1.874   6.034  0.1327  0.6515 -0.0213
11845TIP3    H157026   5.848   1.910   6.046 -0.0059  1.4182 -1.1690
11845TIP3    H257027   5.763   1.831   5.949 -0.0442 -1.1097  0.8167
11846TIP3   OH257028   0.226   0.969  14.081 -0.5007 -0.2820  0.1469
11846TIP3    H157029   0.205   0.985  14.173  0.4178  1.5776  0.0873
11846TIP3    H257030   0.210   0.876  14.068 -0.0315 -0.7224  2.3584
11847TIP3   OH257031   1.802   0.342  14.585 -0.2611  0.3476  0.2567
11847TIP3    H157032   1.891   0.305  14.584  0.2888  1.5607  1.0556
11847TIP3    H257033   1.783   0.359  14.493  0.0947 -0.4609  0.0216
11848TIP3   OH257034   1.880   5.245  15.119 -0.3879 -0.0793 -0.3129
11848TIP3    H157035   1.916   5.256  15.030 -0.7304 -1.2380 -0.6088
11848TIP3    H257036   1.870   5.151  15.129 -0.4366  0.0470  0.9430
11849TIP3   OH257037   3.237   6.402  13.258 -0.0494  0.1204 -0.1380
11849TIP3    H157038   3.255   6.496  13.250  0.4753 -0.0169 -0.6243
11849TIP3    H257039   3.194   6.394  13.343 -0.9254  0.9225 -0.4793
11850TIP3   OH257040   1.148   5.862   5.807  0.3573 -0.0128  0.2603
11850TIP3    H157041   1.168   5.770   5.826  0.0419 -0.2623 -0.5594
11850TIP3    H257042   1.093   5.890   5.880 -0.0916 -0.6788  0.1891
11851TIP3   OH257043   5.356   1.658   1.167  0.4211 -0.6293  0.2673
11851TIP3    H157044   5.364   1.750   1.143  1.1536 -0.7172  0.1381
11851TIP3    H257045   5.289   1.657   1.235 -1.6545 -0.3706 -1.6630
11852TIP3   OH257046   1.491   4.853  12.680  0.3975  0.5613  0.4556
11852TIP3    H157047   1.570   4.811  12.646  0.4112  1.2370 -0.3838
11852TIP3    H257048   1.438   4.781  12.713  0.4688 -0.1289 -0.8655
11853TIP3   OH257049   1.168   5.865  12.422 -0.7210  0.3175  0.9465
11853TIP3    H157050   1.243   5.869  12.362 -1.9639 -1.0082 -0.8187
11853TIP3    H257051   1.203   5.828  12.503  0.4422 -0.8359 -0.0442
11854TIP3   OH257052   2.619   2.878   1.495 -0.2995 -0.9291 -0.5094
11854TIP3    H157053   2.662   2.796   1.521 -0.6799 -1.4170 -1.3610
11854TIP3    H257054   2.527   2.865   1.515 -0.1419 -0.0211  0.9688
11855TIP3   OH257055   6.820   6.292   4.528  0.3966 -0.0803  0.6689
11855TIP3    H157056   6.889   6.334   4.580  1.7969 -0.1970 -0.9938
11855TIP3    H257057   6.843   6.312   4.437 -1.2020 -1.0044  0.0230
11856TIP3   OH257058   2.834   4.724  11.914 -0.0972 -0.0135 -0.1825
11856TIP3    H157059   2.862   4.791  11.851 -1.4300  0.4474 -0.3130
11856TIP3    H257060   2.823   4.772  11.996  3.3168 -0.9103  0.9452
11857TIP3   OH257061   4.324   5.676  13.994 -0.4525 -0.2966 -0.0432
11857TIP3    H157062   4.392   5.627  14.039 -1.1155 -1.1213  0.0855
11857TIP3    H257063   4.258   5.693  14.062  0.2743  1.8119  0.2158
11858TIP3   OH257064   4.471   6.814   0.703  0.1029 -0.0862  0.4649
11858TIP3    H157065   4.475   6.905   0.733  0.4069  0.9886 -2.5236
11858TIP3    H257066   4.561   6.793   0.678 -0.0975 -0.9803  0.4620
11859TIP3   OH257067   3.506   6.505  12.797 -0.4659 -0.3481 -0.6465
11859TIP3    H157068   3.437   6.466  12.744 -2.2114  0.8086  0.6820
11859TIP3    H257069   3.462   6.569  12.852  2.0169  2.3224 -1.5172
11860TIP3   OH257070   5.396   0.736  12.535  0.0441 -0.0852  0.5335
11860TIP3    H157071   5.349   0.815  12.511 -0.4470 -0.4003  0.4390
11860TIP3    H257072   5.475   0.737  12.481 -0.2831  0.0017  0.0508
11861TIP3   OH257073   4.649   2.054   3.218  0.2016 -0.1717  0.4296
11861TIP3    H157074   4.655   2.031   3.311  1.9500 -0.2772  0.3137
11861TIP3    H257075   4.717   2.120   3.206  1.7035 -1.9312 -1.2830
11862TIP3   OH257076   5.414   3.257  15.503  0.3793 -0.3576 -0.6326
11862TIP3    H157077   5.503   3.290  15.495  0.5501 -1.2210 -3.5353
11862TIP3    H257078   5.378   3.263  15.414 -2.3040 -0.4896  0.3429
11863TIP3   OH257079   5.354   2.779  13.745  0.3403 -0.8057 -0.9367
11863TIP3    H157080   5.330   2.700  13.795  0.6894  0.4603  1.3907
11863TIP3    H257081   5.447   2.767  13.725  0.8528 -0.2898  0.9380
11864TIP3   OH257082   1.958   4.413   2.756  0.0158  0.0919  0.6921
11864TIP3    H157083   1.892   4.477   2.783 -1.8213 -1.9384  1.2527
11864TIP3    H257084   1.929   4.331   2.794  1.5056 -1.4139 -1.2193
11865TIP3   OH257085   6.667   6.449  13.907  0.0308 -0.3936 -0.0534
11865TIP3    H157086   6.742   6.447  13.848 -0.3936  0.0307 -0.6209
11865TIP3    H257087   6.592   6.431  13.850 -0.5030  1.0307  0.1573
11866TIP3   OH257088   3.397   6.160   0.808 -0.0852 -0.1242  0.7355
11866TIP3    H157089   3.383   6.247   0.843  0.8501  1.8835 -3.2760
11866TIP3    H257090   3.491   6.155   0.791  0.0254 -2.3180  1.6308
11867TIP3   OH257091   4.462   0.799   3.814  0.2566 -0.2788  0.1011
11867TIP3    H157092   4.487   0.848   3.736  4.9965  0.8452  1.9774
11867TIP3    H257093   4.423   0.864   3.872  0.5368 -0.1712  0.1709
11868TIP3   OH257094   3.417   3.544  15.557  0.3057  0.4990 -0.0855
11868TIP3    H157095   3.406   3.638  15.574 -1.7795  0.2620  0.0779
11868TIP3    H257096   3.334   3.517  15.519  0.6220 -1.4390  0.5309
11869TIP3   OH257097   1.361   5.963  11.293  0.6661 -0.5988  0.2920
11869TIP3    H157098   1.271   5.931  11.300 -0.2378  1.2769 -1.5792
11869TIP3    H257099   1.406   5.895  11.242 -0.2379 -0.6192 -0.5075
11870TIP3   OH257100   6.501   2.306  15.740  0.4868  0.2445  0.6789
11870TIP3    H157101   6.538   2.379  15.690  0.1622  1.5968  2.2887
11870TIP3    H257102   6.407   2.318  15.734  0.3966 -0.7989 -0.0772
11871TIP3   OH257103   6.471   5.089  13.643 -0.0800 -0.2330 -0.7448
11871TIP3    H157104   6.392   5.118  13.597  0.4651 -0.0582 -1.5986
11871TIP3    H257105   6.514   5.171  13.669 -0.1247 -0.3256 -0.3840
11872TIP3   OH257106   3.651   3.941   5.809 -0.3043  1.0665  0.0669
11872TIP3    H157107   3.565   3.965   5.773 -0.8763  0.1207  0.7454
11872TIP3    H257108   3.686   3.877   5.746 -0.1377  1.3683 -0.1514
11873TIP3   OH257109   3.845   2.266   4.180 -0.2525 -0.4947  0.1756
11873TIP3    H157110   3.750   2.264   4.180 -0.2543 -0.4064 -0.1294
11873TIP3    H257111   3.869   2.292   4.091  0.0617 -0.8842  0.1425
11874TIP3   OH257112   4.759   2.478  14.916  0.9758 -0.3851  0.7596
11874TIP3    H157113   4.702   2.412  14.956  1.7145 -1.3096  0.3309
11874TIP3    H257114   4.833   2.486  14.977  1.6735 -1.1499  0.0274
11875TIP3   OH257115   4.317   3.609  14.327  0.4465  0.4448 -0.3751
11875TIP3    H157116   4.376   3.534  14.324 -0.7004 -0.5402  0.4524
11875TIP3    H257117   4.306   3.635  14.236 -0.6157 -1.6321 -0.8937
11876TIP3   OH257118   4.182   0.988  13.455 -0.0609  0.5984 -0.0414
11876TIP3    H157119   4.149   1.078  13.448  0.4435  0.7611 -0.4638
11876TIP3    H257120   4.251   0.983  13.388 -0.2394 -0.1749 -0.1761
11877TIP3   OH257121   4.737   0.895  14.045  0.2354 -0.2094 -0.9243
11877TIP3    H157122   4.686   0.926  14.120 -0.7396 -2.9674 -0.3020
11877TIP3    H257123   4.698   0.940  13.970  2.0951  3.6530  0.1486
11878TIP3   OH257124   0.302   5.752  13.278 -0.8546  0.0438  0.1599
11878TIP3    H157125   0.232   5.701  13.238 -1.1688  1.8024 -1.7303
11878TIP3    H257126   0.363   5.770  13.206 -0.6372  2.0713  0.7749
11879TIP3   OH257127   5.018   1.298   2.311 -0.2468 -0.2750  0.0003
11879TIP3    H157128   4.925   1.321   2.303 -0.3128 -0.5977 -0.2149
11879TIP3    H257129   5.021   1.239   2.386 -0.3558 -0.9558 -0.5203
11880TIP3   OH257130   6.293   4.748  13.376 -0.4253 -0.2512 -0.3833
11880TIP3    H157131   6.330   4.811  13.314  1.4837  0.4637  1.3842
11880TIP3    H257132   6.321   4.663  13.343 -1.2728 -0.0662 -1.6553
11881TIP3   OH257133   4.322   5.542  15.975  0.4933 -0.5133  0.1635
11881TIP3    H157134   4.239   5.499  15.953  0.3561  0.3875 -1.1826
11881TIP3    H257135   4.300   5.601  16.048 -0.1272 -0.0591 -0.3817
11882TIP3   OH257136   2.165   1.333  16.461  0.0341 -0.7424  0.7447
11882TIP3    H157137   2.171   1.237  16.453  1.8992 -0.5490 -1.2792
11882TIP3    H257138   2.137   1.362  16.374 -1.0167  0.5555  1.4785
11883TIP3   OH257139   0.987   1.066   5.211  0.1246  0.4554  0.4688
11883TIP3    H157140   1.037   0.993   5.248 -0.6135  0.3372  1.2392
11883TIP3    H257141   0.900   1.058   5.250 -0.3514  0.9732 -0.4615
11884TIP3   OH257142   1.729   2.215  14.904  0.0522  0.1856 -0.6545
11884TIP3    H157143   1.748   2.255  14.989 -0.5459  1.1842 -0.9689
11884TIP3    H257144   1.797   2.149  14.893  1.4320  1.4904 -0.3471
11885TIP3   OH257145   5.446   5.678   0.594 -0.5141 -0.7170  0.3292
11885TIP3    H157146   5.481   5.751   0.645  1.2235 -0.6767 -0.8370
11885TIP3    H257147   5.351   5.689   0.598 -0.3536  0.4928  1.7483
11886TIP3   OH257148   4.730   5.365  16.839  0.2490  0.7598  0.4663
11886TIP3    H157149   4.681   5.295  16.882  0.5903 -0.2666 -0.7420
11886TIP3    H257150   4.732   5.436  16.903 -0.7986 -0.0335  1.4238
11887TIP3   OH257151   1.141   1.999   5.948 -0.0234 -0.6040  0.0130
11887TIP3    H157152   1.053   2.011   5.985  0.2450 -2.0036  1.1777
11887TIP3    H257153   1.142   1.908   5.918 -0.0194  0.2944 -3.0206
11888TIP3   OH257154   3.781   5.634  12.381 -0.2242 -0.5807  0.7441
11888TIP3    H157155   3.721   5.560  12.369 -0.2054 -0.4085 -0.6564
11888TIP3    H257156   3.723   5.709  12.396 -0.3294 -0.5850  0.3794
11889TIP3   OH257157   2.889   3.876  14.585 -0.0868 -0.4440  0.2521
11889TIP3    H157158   2.808   3.868  14.535 -1.1591 -1.0114  1.9928
11889TIP3    H257159   2.952   3.821  14.538 -0.1150  1.4475 -2.1561
11890TIP3   OH257160   1.541   4.266   3.136  0.2897 -0.1963 -0.7061
11890TIP3    H157161   1.525   4.301   3.224  2.5413  0.7976 -0.6222
11890TIP3    H257162   1.516   4.338   3.077  0.0825 -0.3554 -0.8135
11891TIP3   OH257163   1.884   3.165  15.485 -0.2350 -0.4892  0.3205
11891TIP3    H157164   1.809   3.205  15.530 -0.8115 -0.1669 -0.8750
11891TIP3    H257165   1.943   3.239  15.467 -0.8393 -0.2960 -1.0040
11892TIP3   OH257166   2.854   1.224  13.301  0.5864  0.6757 -0.0230
11892TIP3    H157167   2.826   1.272  13.223 -0.2725  0.7525  0.3220
11892TIP3    H257168   2.781   1.234  13.363  0.2751 -1.2735 -0.0219
11893TIP3   OH257169   0.339   4.745  13.913 -0.1782  0.5498 -0.0506
11893TIP3    H157170   0.389   4.693  13.850 -0.9761  0.5127 -0.6589
11893TIP3    H257171   0.403   4.768  13.980 -0.0172 -2.1897  0.8693
11894TIP3   OH257172   5.306   4.403   4.353  0.1946  0.2222  0.1035
11894TIP3    H157173   5.369   4.333   4.334  0.7562  0.6031  0.5443
11894TIP3    H257174   5.235   4.358   4.400 -0.3226 -0.3771 -1.1661
11895TIP3   OH257175   3.877   2.838   6.043  0.0180 -0.4307 -0.2107
11895TIP3    H157176   3.844   2.771   6.103 -0.1066 -1.6226 -1.5631
11895TIP3    H257177   3.857   2.921   6.086  0.0608 -1.2474  1.4427
11896TIP3   OH257178   6.010   3.362   3.246  0.1029  0.0791  0.0124
11896TIP3    H157179   6.004   3.412   3.328 -1.3397  0.0311 -0.0254
11896TIP3    H257180   6.045   3.424   3.183  1.6294 -0.0022  0.7407
11897TIP3   OH257181   2.833   4.318  16.173  0.5008 -0.0642  0.1728
11897TIP3    H157182   2.801   4.337  16.085  1.2815 -0.6004 -0.2368
11897TIP3    H257183   2.827   4.223  16.181  1.1380 -0.0882  0.4098
11898TIP3   OH257184   2.928   0.594  16.234 -0.4433 -0.6183  0.0143
11898TIP3    H157185   2.947   0.538  16.159  0.9938 -0.1208 -0.0090
11898TIP3    H257186   2.916   0.681  16.196  1.6428 -0.0934  0.4520
11899TIP3   OH257187   0.095   6.506   2.970 -0.2835  0.4006  0.0977
11899TIP3    H157188   0.125   6.576   3.028 -1.7451  0.6921  0.5272
11899TIP3    H257189   0.120   6.425   3.015  2.0962  0.5616 -0.7497
11900TIP3   OH257190   5.698   3.479  12.850 -0.7099 -0.3042 -0.4373
11900TIP3    H157191   5.747   3.530  12.914  1.3299 -2.3852 -0.2266
11900TIP3    H257192   5.633   3.431  12.901 -0.5097 -0.3347 -0.2103
11901TIP3   OH257193   0.633   0.289  12.052 -0.0161 -0.0659  0.2485
11901TIP3    H157194   0.652   0.383  12.061  0.8791 -0.1380 -0.7026
11901TIP3    H257195   0.649   0.253  12.139 -0.8461  0.7286  0.7571
11902TIP3   OH257196   5.477   6.677  13.347 -0.0517 -0.7364  0.4561
11902TIP3    H157197   5.460   6.763  13.386 -0.2964 -0.1668 -0.8424
11902TIP3    H257198   5.460   6.615  13.417 -0.2906  0.2524  1.3012
11903TIP3   OH257199   1.316   3.283   1.743 -0.0438 -0.3110 -0.0100
11903TIP3    H157200   1.375   3.358   1.746  0.0915 -0.3879 -0.6421
11903TIP3    H257201   1.286   3.272   1.833  0.1462  0.3352  0.1347
11904TIP3   OH257202   4.108   1.450   2.746  0.4827  0.1364  0.0453
11904TIP3    H157203   4.030   1.404   2.776  1.7193 -1.1304  1.4904
11904TIP3    H257204   4.180   1.410   2.794  1.6239  4.2381  2.3062
11905TIP3   OH257205   2.144   4.864  12.421 -0.0706 -0.2344 -0.1685
11905TIP3    H157206   2.148   4.893  12.512  0.4596  1.3005 -0.6470
11905TIP3    H257207   2.210   4.796  12.414  0.5368  0.2902  0.3813
11906TIP3   OH257208   5.294   5.539  11.924 -0.3529 -0.2619 -0.4201
11906TIP3    H157209   5.293   5.484  12.003 -1.8899  0.0983 -0.1454
11906TIP3    H257210   5.386   5.561  11.911  0.0093 -0.8975  0.8847
11907TIP3   OH257211   0.175   5.723  15.587  0.0581 -0.8075 -0.5671
11907TIP3    H157212   0.094   5.748  15.632  0.2653  0.4529 -0.8567
11907TIP3    H257213   0.145   5.681  15.506 -0.3071 -1.1155 -0.2770
11908TIP3   OH257214   1.212   0.629   1.363  0.3781 -0.4708  0.4731
11908TIP3    H157215   1.165   0.546   1.351 -0.6690 -0.1377  2.0811
11908TIP3    H257216   1.296   0.604   1.401  1.3782 -1.0186 -1.9053
11909TIP3   OH257217   6.791   1.758  11.022  0.3091  0.3402 -0.0903
11909TIP3    H157218   6.715   1.706  10.997  1.3724 -0.8699 -0.9858
11909TIP3    H257219   6.766   1.848  11.002 -1.1375  0.0572  0.3343
11910TIP3   OH257220   1.652   5.913  10.784 -0.0399 -0.0084  0.0617
11910TIP3    H157221   1.570   5.962  10.791  0.0222  0.2963 -1.2313
11910TIP3    H257222   1.705   5.962  10.722  0.1189 -1.5407 -1.0943
11911TIP3   OH257223   2.168   4.009   1.975 -0.3418 -0.0933  0.4627
11911TIP3    H157224   2.170   4.096   1.934  2.5188 -0.1260  0.3621
11911TIP3    H257225   2.219   3.954   1.916 -1.7130 -1.7809  0.7780
11912TIP3   OH257226   6.178   1.641   4.252 -0.5280 -0.0601  0.6078
11912TIP3    H157227   6.182   1.687   4.168 -1.7513 -0.8499  0.1026
11912TIP3    H257228   6.261   1.663   4.295  1.5527 -2.0509 -2.0490
11913TIP3   OH257229   1.616   1.695   2.312  0.2108  0.4176  0.5880
11913TIP3    H157230   1.678   1.637   2.267 -0.6157  0.3357 -0.4705
11913TIP3    H257231   1.574   1.638   2.377 -1.1882 -0.4663 -0.9865
11914TIP3   OH257232   0.109   5.863  11.286 -0.3361  0.0246  0.4257
11914TIP3    H157233   0.117   5.930  11.218  0.7267 -1.1827 -0.6955
11914TIP3    H257234   0.033   5.890  11.337  0.4584  2.4739  0.4674
11915TIP3   OH257235   6.569   1.384   4.027  0.7663  0.9814 -0.3089
11915TIP3    H157236   6.562   1.295   3.993  0.3082  0.7107  0.4805
11915TIP3    H257237   6.604   1.434   3.953 -0.4050  0.4641 -1.2588
11916TIP3   OH257238   1.007   4.391  14.513 -0.2636  0.2269 -0.0412
11916TIP3    H157239   1.038   4.391  14.422 -0.5600  0.2831 -0.1413
11916TIP3    H257240   1.087   4.387  14.565 -0.0129  1.6986 -0.2762
11917TIP3   OH257241   0.713   3.853   6.172 -0.3458  0.0808  0.1822
11917TIP3    H157242   0.725   3.943   6.142 -0.7664  0.3723  0.8607
11917TIP3    H257243   0.744   3.854   6.262  1.6154 -0.9662 -0.4216
11918TIP3   OH257244   3.216   2.404   1.774 -0.2067 -0.2937 -0.3980
11918TIP3    H157245   3.215   2.368   1.685  1.9224  0.7263 -0.9055
11918TIP3    H257246   3.124   2.422   1.794 -0.7999 -1.2063 -2.0970
11919TIP3   OH257247   3.670   4.773   2.533 -0.1642 -0.6770  0.1225
11919TIP3    H157248   3.708   4.736   2.453  0.6405 -0.0907  0.2135
11919TIP3    H257249   3.741   4.767   2.598  0.7359  2.6446 -0.3429
11920TIP3   OH257250   0.996   4.832   2.175  0.1199  0.1632  0.3839
11920TIP3    H157251   0.912   4.857   2.215  0.0968 -0.0906  0.5000
11920TIP3    H257252   1.036   4.775   2.240  0.5206  0.5257  0.4603
11921TIP3   OH257253   3.972   3.676  12.360 -0.3178  0.0906  0.4268
11921TIP3    H157254   3.916   3.730  12.415 -2.5484  0.1806 -1.7438
11921TIP3    H257255   3.995   3.732  12.286  0.8631 -0.6316  0.2155
11922TIP3   OH257256   1.051   5.922  13.918  0.2187 -0.4116 -0.2148
11922TIP3    H157257   1.029   5.907  14.010  0.8756 -1.4637 -0.2173
11922TIP3    H257258   1.135   5.879  13.906  0.2216 -0.1407 -1.2689
11923TIP3   OH257259   0.652   2.135   0.975  0.4396  0.0032 -0.2883
11923TIP3    H157260   0.731   2.097   0.936  1.5952  0.8012  1.1528
11923TIP3    H257261   0.662   2.120   1.069 -0.3446  1.5222  0.0726
11924TIP3   OH257262   2.996   4.860  14.446  0.1671  0.8870 -0.2562
11924TIP3    H157263   2.919   4.854  14.502  0.3687  1.4732  0.0854
11924TIP3    H257264   2.995   4.779  14.395 -0.1794  0.4840  0.3820
11925TIP3   OH257265   5.274   4.571   1.223  0.0041  0.4065  0.0514
11925TIP3    H157266   5.220   4.506   1.178  0.0610  1.4121 -1.5379
11925TIP3    H257267   5.347   4.520   1.258  0.2488 -0.3735 -1.4908
11926TIP3   OH257268   2.396   3.234   1.956  0.1391  0.6819 -0.7651
11926TIP3    H157269   2.407   3.167   1.889  1.4325  1.1367 -1.0267
11926TIP3    H257270   2.444   3.201   2.032 -1.0599  0.3130 -0.1414
11927TIP3   OH257271   0.640   1.484   5.169  0.5431  0.0676 -0.0019
11927TIP3    H157272   0.650   1.510   5.077  1.1321  2.4451  0.6600
11927TIP3    H257273   0.708   1.533   5.215 -1.1470  0.6579  1.9973
11928TIP3   OH257274   3.309   1.729  11.495  0.0212 -0.4311  0.1888
11928TIP3    H157275   3.361   1.672  11.552  1.8983  0.6382 -0.3880
11928TIP3    H257276   3.245   1.768  11.554  0.4440 -1.0796  1.1142
11929TIP3   OH257277   4.606   0.967  12.925 -0.6932 -0.6582 -0.0139
11929TIP3    H157278   4.651   1.051  12.921 -1.8240 -0.0858 -1.4645
11929TIP3    H257279   4.655   0.911  12.865 -0.8427 -0.5818 -0.2060
11930TIP3   OH257280   4.259   0.298  11.718  0.3297  0.2996  0.1651
11930TIP3    H157281   4.247   0.346  11.800 -0.1514  0.5597 -0.0543
11930TIP3    H257282   4.221   0.356  11.651 -1.0694 -0.7608  0.0028
11931TIP3   OH257283   6.671   6.087   1.633  0.2511  0.2795  0.0011
11931TIP3    H157284   6.614   6.108   1.559  1.6690  1.6658 -0.7751
11931TIP3    H257285   6.611   6.076   1.708 -1.0047  2.6347 -0.5593
11932TIP3   OH257286   5.997   0.917  16.532 -0.3449  0.2200 -0.0469
11932TIP3    H157287   5.913   0.890  16.496  0.2472 -1.8354 -0.0098
11932TIP3    H257288   5.988   0.906  16.626  0.1532 -0.6839 -0.0903
11933TIP3   OH257289   5.313   5.179   1.329  0.0391 -0.2862  0.3860
11933TIP3    H157290   5.344   5.237   1.259 -0.8372  0.2206  0.4073
11933TIP3    H257291   5.220   5.166   1.310 -0.0685 -0.6256  1.1242
11934TIP3   OH257292   3.204   0.601  12.438 -0.0778  0.1670 -0.1495
11934TIP3    H157293   3.251   0.545  12.377 -1.7280  0.4087 -1.7171
11934TIP3    H257294   3.184   0.680  12.389  0.0559  1.1267  1.2610
11935TIP3   OH257295   5.984   4.728  16.608  0.8403 -0.0148 -0.4119
11935TIP3    H157296   5.917   4.704  16.672 -0.4332 -0.4944 -1.8709
11935TIP3    H257297   6.037   4.649  16.597  0.8302 -0.0434 -0.2610
11936TIP3   OH257298   5.504   3.829  11.112 -0.2464  0.1850  0.2539
11936TIP3    H157299   5.555   3.788  11.181 -1.2621 -0.9659  0.3553
11936TIP3    H257300   5.413   3.811  11.135 -0.6478  0.7177 -0.8173
11937TIP3   OH257301   1.189   5.331  12.728 -0.2007  0.0212 -0.2089
11937TIP3    H157302   1.189   5.316  12.634 -2.0426  1.6758 -0.5355
11937TIP3    H257303   1.269   5.381  12.745  0.8462 -1.4450 -0.6227
11938TIP3   OH257304   2.979   5.595   0.672  0.2901  0.3624  0.5135
11938TIP3    H157305   2.920   5.533   0.627  0.7665  2.2060 -3.0076
11938TIP3    H257306   3.066   5.574   0.638  0.7176  1.7795  0.6749
11939TIP3   OH257307   4.523   4.357  11.721  0.5214 -0.0420  0.5298
11939TIP3    H157308   4.531   4.294  11.792 -2.7394 -1.8225 -0.4421
11939TIP3    H257309   4.545   4.308  11.642 -0.8555  0.3496 -0.1306
11940TIP3   OH257310   1.647   5.877  14.953  0.0964 -0.4088 -0.5705
11940TIP3    H157311   1.579   5.925  14.999  0.7955  0.0943 -0.0501
11940TIP3    H257312   1.681   5.815  15.018  0.9081  0.1279 -0.4628
11941TIP3   OH257313   0.438   6.757  15.264 -0.2399  0.7710  0.0054
11941TIP3    H157314   0.518   6.756  15.212 -0.3253 -1.5539 -0.1566
11941TIP3    H257315   0.411   6.666  15.270 -0.8374  1.0392  3.2292
11942TIP3   OH257316   3.907   0.984   0.849 -0.1802  0.9718 -0.1609
11942TIP3    H157317   3.945   0.909   0.802  1.5733  1.3694  0.5449
11942TIP3    H257318   3.862   1.034   0.781 -0.1395  0.0415 -0.9008
11943TIP3   OH257319   5.932   1.511   5.912  0.0261  0.4493 -0.6333
11943TIP3    H157320   5.971   1.508   6.000 -0.6333  2.6758 -0.1960
11943TIP3    H257321   5.931   1.420   5.883  0.6443 -0.2999  1.4988
11944TIP3   OH257322   1.038   4.528  12.855 -0.2084 -0.7430  0.7546
11944TIP3    H157323   1.081   4.463  12.910 -0.5335  0.0964  2.0284
11944TIP3    H257324   1.096   4.537  12.779 -1.2970 -4.2112 -0.6522
11945TIP3   OH257325   6.546   0.352   3.087 -0.1577 -0.2361  0.7320
11945TIP3    H157326   6.618   0.331   3.028 -0.2896  0.4242  0.3248
11945TIP3    H257327   6.516   0.267   3.119  0.2508 -0.5710  0.2454
11946TIP3   OH257328   4.740   1.837  13.867 -0.3243  0.0628 -0.3943
11946TIP3    H157329   4.663   1.824  13.922 -0.6150  0.6578 -0.6557
11946TIP3    H257330   4.705   1.847  13.778 -0.2066  2.9942 -0.2071
11947TIP3   OH257331   5.207   4.273   3.854  0.0275  0.1496 -0.5744
11947TIP3    H157332   5.226   4.339   3.921 -0.4056 -0.3217  0.0268
11947TIP3    H257333   5.211   4.189   3.902 -1.9799 -0.0933 -0.7491
11948TIP3   OH257334   6.092   4.925   3.908  0.9108 -0.3734 -0.3848
11948TIP3    H157335   6.040   4.974   3.844 -0.4447 -1.2505 -0.0081
11948TIP3    H257336   6.135   4.992   3.962 -0.7407  0.4176  0.0067
11949TIP3   OH257337   1.976   0.974   4.858 -0.3068 -0.1574  0.2908
11949TIP3    H157338   1.915   0.911   4.820 -2.3065  0.8367  1.6977
11949TIP3    H257339   1.997   0.939   4.944  0.7618 -0.2371  0.0150
11950TIP3   OH257340   4.874   2.390   2.842 -0.2008  0.1748 -0.1912
11950TIP3    H157341   4.878   2.300   2.875  0.5006  0.8453  1.6578
11950TIP3    H257342   4.939   2.437   2.894 -0.5614  1.7625 -1.1315
11951TIP3   OH257343   1.658   3.095   2.287 -0.5187  0.1236  0.5513
11951TIP3    H157344   1.583   3.080   2.344 -0.0067  1.7372  1.7304
11951TIP3    H257345   1.733   3.097   2.346  0.4783 -1.3611 -0.5968
11952TIP3   OH257346   3.785   6.586  13.992  0.3092  0.1093  0.3603
11952TIP3    H157347   3.839   6.540  13.927  0.2010  1.1664 -0.4909
11952TIP3    H257348   3.715   6.627  13.941  1.3075  2.5673  0.8659
11953TIP3   OH257349   1.790   6.506  16.492  0.5121 -0.4830  0.2817
11953TIP3    H157350   1.779   6.572  16.424  0.0914 -1.6261 -0.7921
11953TIP3    H257351   1.772   6.423  16.448 -0.9234 -1.1668  2.0405
11954TIP3   OH257352   4.537   1.597  14.480  0.0305  0.3599  0.1254
11954TIP3    H157353   4.617   1.551  14.455 -0.8413 -0.5235 -1.1734
11954TIP3    H257354   4.469   1.529  14.481 -0.4101  0.6858  3.1121
11955TIP3   OH257355   4.285   3.100  10.846 -0.4893  0.2875 -0.0816
11955TIP3    H157356   4.221   3.157  10.803 -0.4749  1.5753  1.4713
11955TIP3    H257357   4.234   3.053  10.912  0.1116  1.4215  1.2579
11956TIP3   OH257358   4.495   2.483  15.729 -0.1404  0.0479  0.3785
11956TIP3    H157359   4.552   2.549  15.767 -0.1356 -0.0119  0.4757
11956TIP3    H257360   4.408   2.523  15.729  0.3962  1.4929 -2.8887
11957TIP3   OH257361   5.064   3.839   5.215 -0.0179  0.5564 -0.3264
11957TIP3    H157362   5.118   3.836   5.136 -0.6211 -0.5776 -0.7138
11957TIP3    H257363   5.004   3.913   5.201  0.4805  0.9266 -0.5180
11958TIP3   OH257364   5.537   0.037   0.466  0.3700  0.0467 -0.5111
11958TIP3    H157365   5.489   0.079   0.537 -2.4833 -2.5870 -0.6845
11958TIP3    H257366   5.501   0.075   0.386 -0.4125 -0.8573 -0.6083
11959TIP3   OH257367   0.102   4.398   1.603 -0.0316 -0.0245  0.4546
11959TIP3    H157368   0.154   4.382   1.524  0.2609 -0.3460  0.7125
11959TIP3    H257369   0.011   4.394   1.572  0.0792 -0.2102  0.1425
11960TIP3   OH257370   6.459   6.409  13.248 -0.1425 -0.0085 -0.1744
11960TIP3    H157371   6.451   6.322  13.288 -0.2797  0.2559  0.3741
11960TIP3    H257372   6.370   6.430  13.219 -0.2023  0.1646  0.1384
11961TIP3   OH257373   3.252   4.009  14.098 -0.4259 -0.0713 -0.6779
11961TIP3    H157374   3.215   3.922  14.109 -1.6428  0.4386 -0.6660
11961TIP3    H257375   3.332   3.995  14.046 -0.4735 -1.2081 -0.4593
11962TIP3   OH257376   1.769   6.087  15.645 -0.6132  0.5406 -0.0675
11962TIP3    H157377   1.800   6.084  15.554  1.5547  1.5748  0.5512
11962TIP3    H257378   1.681   6.123  15.640 -0.6497  0.2744 -1.7912
11963TIP3   OH257379   4.943   5.709   0.401  0.1052  0.0792  0.0888
11963TIP3    H157380   4.852   5.725   0.376 -0.3161  0.4279  1.7309
11963TIP3    H257381   4.940   5.631   0.456  0.8295 -0.0365 -0.0223
11964TIP3   OH257382   5.707   4.289   0.275 -0.3211 -0.1737  0.1666
11964TIP3    H157383   5.690   4.288   0.181  0.4726 -1.0542  0.0298
11964TIP3    H257384   5.776   4.355   0.287 -1.3075  0.8721  0.3076
11965TIP3   OH257385   1.988   5.684   6.120 -0.3080 -0.0799 -0.6047
11965TIP3    H157386   2.034   5.765   6.143 -0.5965  0.3364 -1.4485
11965TIP3    H257387   1.896   5.709   6.120 -0.3678 -0.2984 -1.3128
11966TIP3   OH257388   6.533   6.152   5.148 -0.2582  0.2724 -0.3326
11966TIP3    H157389   6.594   6.084   5.176 -0.2218  0.1690 -0.6537
11966TIP3    H257390   6.580   6.199   5.079 -0.5949  0.0992 -0.6841
11967TIP3   OH257391   5.447   3.109  16.595 -0.3812  0.3683  0.4055
11967TIP3    H157392   5.539   3.131  16.611 -0.2091 -0.9569  1.4873
11967TIP3    H257393   5.434   3.126  16.502  0.9928  0.5008  0.2143
11968TIP3   OH257394   1.776   5.143  13.481 -0.4016 -0.0531 -0.0646
11968TIP3    H157395   1.784   5.235  13.455 -0.5738  0.2796  0.9938
11968TIP3    H257396   1.846   5.098  13.435  1.3139  1.0662  1.3237
11969TIP3   OH257397   0.297   6.394   3.695 -0.5438  0.1603  0.4840
11969TIP3    H157398   0.367   6.358   3.750 -2.1176 -2.0506  1.1983
11969TIP3    H257399   0.216   6.373   3.743 -1.7221  3.9687  0.4547
11970TIP3   OH257400   4.704   2.733   4.604 -0.2825 -1.0409 -0.3302
11970TIP3    H157401   4.787   2.709   4.564 -0.8734 -1.6392 -1.2230
11970TIP3    H257402   4.657   2.650   4.614 -1.4095 -0.5476 -1.3045
11971TIP3   OH257403   3.675   2.567   5.692 -0.3618 -0.4291 -0.1436
11971TIP3    H157404   3.693   2.653   5.729 -0.8240 -0.1544 -0.5400
11971TIP3    H257405   3.636   2.517   5.763 -1.1438  0.0586 -0.2209
11972TIP3   OH257406   2.562   3.871  11.122  0.3731 -0.0246  0.0234
11972TIP3    H157407   2.556   3.903  11.032 -2.5630  1.1047  0.5150
11972TIP3    H257408   2.527   3.782  11.119  0.0137  0.1134  0.0838
11973TIP3   OH257409   2.023   3.124  12.704  0.1278 -0.1211  0.2027
11973TIP3    H157410   2.023   3.212  12.743 -1.9437  0.8100 -1.6507
11973TIP3    H257411   1.938   3.087  12.728 -0.7609  0.0674 -2.3318
11974TIP3   OH257412   6.058   1.159   3.540 -0.3844 -0.1790  0.2328
11974TIP3    H157413   6.030   1.072   3.513 -2.5065  0.4319  0.2368
11974TIP3    H257414   5.993   1.218   3.501 -0.1221  1.2248  1.7946
11975TIP3   OH257415   1.720   6.315  11.765  0.8029  0.4169 -0.4081
11975TIP3    H157416   1.678   6.378  11.706 -1.3544 -0.0486  0.5156
11975TIP3    H257417   1.678   6.231  11.745  0.1129  0.2194  1.5999
11976TIP3   OH257418   5.467   6.149   1.085 -0.1350 -0.3882 -0.3835
11976TIP3    H157419   5.518   6.128   1.007  1.6127 -0.7657  0.7985
11976TIP3    H257420   5.419   6.068   1.105 -1.2932 -0.0136 -1.5361
11977TIP3   OH257421   0.488   4.896   0.287 -0.2413 -0.0364  0.0847
11977TIP3    H157422   0.580   4.922   0.287 -0.5216  1.0305  1.4678
11977TIP3    H257423   0.440   4.973   0.315 -1.4940 -0.8304  0.2314
11978TIP3   OH257424   3.473   1.109   3.883 -0.0919 -0.0545  0.9983
11978TIP3    H157425   3.387   1.067   3.892  0.0304 -0.1893  1.6107
11978TIP3    H257426   3.457   1.185   3.827 -0.5241 -0.3279  0.7446
11979TIP3   OH257427   3.757   0.927  11.569  0.2176  0.7703 -0.7390
11979TIP3    H157428   3.736   1.021  11.562  0.8269  1.1055  1.2460
11979TIP3    H257429   3.749   0.894  11.480 -0.5369  2.6035 -1.4010
11980TIP3   OH257430   4.150   3.099   2.332 -0.1828  0.1275  0.0413
11980TIP3    H157431   4.060   3.069   2.350 -0.1897  0.2894  0.2734
11980TIP3    H257432   4.187   3.029   2.278 -0.5965  0.2742 -0.4423
11981TIP3   OH257433   2.962   6.719   4.858 -0.2057  0.0602 -0.3854
11981TIP3    H157434   2.910   6.651   4.900 -0.3798  0.6122  0.3252
11981TIP3    H257435   2.994   6.679   4.777 -0.2329 -0.8854  0.0585
11982TIP3   OH257436   1.035   1.122  13.748  0.1362 -0.2031 -0.1854
11982TIP3    H157437   1.067   1.212  13.752  0.6275 -0.2755 -1.6674
11982TIP3    H257438   1.010   1.109  13.656  1.7396 -2.1122 -0.4256
11983TIP3   OH257439   4.119   1.033  15.381  0.0067 -0.2390  0.7301
11983TIP3    H157440   4.063   1.103  15.348  0.8632  1.5893  2.9084
11983TIP3    H257441   4.081   1.009  15.465  0.6881 -1.2392  0.7750
11984TIP3   OH257442   2.347   6.159  11.703  0.3813 -0.4169 -0.6423
11984TIP3    H157443   2.366   6.189  11.792  1.2801 -2.1856 -0.1843
11984TIP3    H257444   2.321   6.238  11.656  0.7242  0.7070  0.9673
11985TIP3   OH257445   1.533   2.562  11.300 -0.5274 -0.3440  0.0946
11985TIP3    H157446   1.527   2.650  11.263  0.4109  0.6044  2.0775
11985TIP3    H257447   1.612   2.524  11.261 -0.3940  0.0620 -0.0286
11986TIP3   OH257448   2.067   5.910   0.108  0.1042  0.3258 -0.3886
11986TIP3    H157449   2.146   5.957   0.081 -1.2769  2.6352 -0.7318
11986TIP3    H257450   2.025   5.968   0.172 -0.8106 -1.3084  0.5691
11987TIP3   OH257451   6.615   6.348  11.355  0.1455  0.1611  0.7735
11987TIP3    H157452   6.613   6.438  11.387  2.0896  0.7336 -0.4940
11987TIP3    H257453   6.523   6.323  11.347 -0.4868  2.5022 -0.0924
11988TIP3   OH257454   2.722   5.297  11.513  0.5556  0.2584 -0.1187
11988TIP3    H157455   2.737   5.255  11.428  2.0419 -0.5260  0.4969
11988TIP3    H257456   2.749   5.388  11.500  1.2406  0.0244 -0.3708
11989TIP3   OH257457   2.142   2.678  13.538 -0.5981  0.3269  0.0597
11989TIP3    H157458   2.187   2.594  13.546  0.5134  0.9184  0.2351
11989TIP3    H257459   2.050   2.655  13.527 -0.6509 -0.8994  2.3397
11990TIP3   OH257460   6.254   4.401  16.343  0.0128 -0.0612 -0.1227
11990TIP3    H157461   6.258   4.410  16.438 -0.0419  1.5300 -0.2372
11990TIP3    H257462   6.160   4.393  16.324 -0.2692  2.3639 -0.1758
11991TIP3   OH257463   5.790   0.808   1.585  0.1917  0.0965 -0.2364
11991TIP3    H157464   5.702   0.833   1.556  0.2954  0.9260  0.1377
11991TIP3    H257465   5.807   0.726   1.540 -1.7778 -1.4154  1.5561
11992TIP3   OH257466   0.577   0.036  12.656  0.4012  0.2010  0.4411
11992TIP3    H157467   0.514   0.009  12.589  1.6203  1.8083 -1.4488
11992TIP3    H257468   0.538   0.114  12.696  1.1136  1.1716 -0.6999
11993TIP3   OH257469   6.290   1.349  13.950  0.6386 -0.2924  0.1913
11993TIP3    H157470   6.254   1.347  13.861  0.4193  2.1573  0.1501
11993TIP3    H257471   6.382   1.369  13.938  0.1239  2.7558  0.4799
11994TIP3   OH257472   2.982   6.086  11.009  0.2212 -0.3103  0.5858
11994TIP3    H157473   3.025   6.155  10.959  0.2667 -0.3924  0.5113
11994TIP3    H257474   3.024   6.006  10.980 -0.0748 -0.4058  0.4112
11995TIP3   OH257475   4.951   1.093   5.468 -0.4719 -0.1292 -0.2255
11995TIP3    H157476   5.028   1.064   5.420  0.0751  0.9532 -0.0405
11995TIP3    H257477   4.980   1.172   5.514 -1.8556  0.6225 -0.6018
11996TIP3   OH257478   1.635   6.352   4.738 -0.0986 -0.6888  0.5062
11996TIP3    H157479   1.689   6.291   4.687  0.0117  0.1936 -0.4583
11996TIP3    H257480   1.627   6.311   4.824 -0.5978 -2.4222 -0.3143
11997TIP3   OH257481   1.385   2.639   1.377 -0.3598  0.0861 -0.2646
11997TIP3    H157482   1.469   2.685   1.378 -0.5827  0.5063  0.5959
11997TIP3    H257483   1.405   2.550   1.405 -0.1818  0.1572 -0.1662
11998TIP3   OH257484   1.313   5.135  14.307  0.3011 -0.6079  0.2688
11998TIP3    H157485   1.406   5.148  14.327  0.2606 -0.1595  0.1744
11998TIP3    H257486   1.269   5.147  14.391  0.1568  1.0125 -0.0114
11999TIP3   OH257487   0.910   0.981   1.950 -0.1628 -0.3746 -0.6784
11999TIP3    H157488   0.823   0.952   1.975 -0.2945  1.0785  0.7004
11999TIP3    H257489   0.968   0.946   2.018  0.0841  0.1121 -0.6348
12000TIP3   OH257490   3.562   6.799   4.069  0.4665 -0.4242  0.1904
12000TIP3    H157491   3.583   6.767   4.157  0.4652  0.9946  0.7174
12000TIP3    H257492   3.558   6.894   4.077  0.0017 -0.2910 -1.2516
12001TIP3   OH257493   1.250   0.760  12.388  0.3608 -0.0678  0.4669
12001TIP3    H157494   1.311   0.831  12.405  0.8015  0.0573 -1.4326
12001TIP3    H257495   1.300   0.681  12.409  0.5264  0.1085  0.7425
12002TIP3   OH257496   6.751   0.513   3.192  0.1380 -0.1390  0.5731
12002TIP3    H157497   6.732   0.585   3.252  0.3997 -1.5198  2.3902
12002TIP3    H257498   6.665   0.476   3.170  0.0683  0.1083  0.4291
12003TIP3   OH257499   5.884   4.423  15.299 -0.4279 -0.6095  0.1408
12003TIP3    H157500   5.886   4.336  15.258  0.2166  0.8239 -3.1517
12003TIP3    H257501   5.795   4.433  15.331 -0.3957 -2.6163  1.0092
12004TIP3   OH257502   0.316   0.924  17.028 -0.6407  0.2933  0.4426
12004TIP3    H157503   0.248   0.864  16.996  2.4859 -3.7622  0.6305
12004TIP3    H257504   0.302   0.927  17.123  0.7734 -2.6560  0.8464
12005TIP3   OH257505   4.982   0.163  13.977 -0.1984 -0.0170  0.4262
12005TIP3    H157506   4.936   0.079  13.969  0.9810 -0.7033  0.5103
12005TIP3    H257507   4.943   0.205  14.054 -1.4256 -0.0630 -0.1525
12006TIP3   OH257508   5.379   3.505  14.690 -0.1631 -0.1151  0.0097
12006TIP3    H157509   5.338   3.495  14.604  0.6819 -0.0685 -0.4067
12006TIP3    H257510   5.324   3.453  14.749  0.1519 -1.4826 -0.8476
12007TIP3   OH257511   1.806   3.007   0.305 -0.5872 -0.0142 -0.2590
12007TIP3    H157512   1.751   2.976   0.377 -0.8718 -1.7264 -1.1619
12007TIP3    H257513   1.745   3.029   0.236 -0.3136  1.6420 -0.0014
12008TIP3   OH257514   3.646   4.774   5.621  0.0205  0.3778  0.2806
12008TIP3    H157515   3.600   4.730   5.693 -1.2897 -1.1135 -1.3744
12008TIP3    H257516   3.579   4.789   5.555  1.6140 -0.6848 -1.7088
12009TIP3   OH257517   4.943   3.709  13.631 -0.3450 -0.3635  0.0673
12009TIP3    H157518   4.862   3.679  13.590 -0.3100  2.3963 -2.3216
12009TIP3    H257519   4.993   3.749  13.560  1.1130  2.0586  2.2709
12010TIP3   OH257520   1.423   2.554  13.145 -0.0552  0.0359  0.5124
12010TIP3    H157521   1.439   2.632  13.198 -1.6642  0.0575  1.0295
12010TIP3    H257522   1.339   2.572  13.101 -0.8258 -1.6746  1.1984
12011TIP3   OH257523   2.949   0.883  11.528  0.1525 -0.0796 -0.3358
12011TIP3    H157524   3.017   0.896  11.462 -0.1733 -0.3939 -0.7435
12011TIP3    H257525   2.899   0.964  11.527  0.5517  0.1768  0.0080
12012TIP3   OH257526   0.089   2.483   5.371  0.2064  0.1461  0.0068
12012TIP3    H157527   0.180   2.463   5.351  0.3365  0.9366 -0.1876
12012TIP3    H257528   0.046   2.397   5.370  0.8434 -0.1807 -0.3983
12013TIP3   OH257529   1.571   3.225  15.406 -0.5467 -0.2223  0.4068
12013TIP3    H157530   1.501   3.164  15.428  0.0577 -0.2747  2.4073
12013TIP3    H257531   1.607   3.253  15.491  0.4016  1.5054 -0.4866
12014TIP3   OH257532   5.505   0.216   1.728  0.1986 -0.0658 -0.0965
12014TIP3    H157533   5.437   0.179   1.785  1.3916 -0.1268  1.3172
12014TIP3    H257534   5.456   0.254   1.655 -1.2984 -0.9659  0.3933
12015TIP3   OH257535   2.809   2.026  14.785  0.1399 -0.8521  0.3831
12015TIP3    H157536   2.878   1.983  14.735  0.3138 -1.1513  0.8768
12015TIP3    H257537   2.849   2.108  14.814 -0.5319  0.1834 -1.4630
12016TIP3   OH257538   3.284   6.151  14.131  0.5805  0.2239 -0.1143
12016TIP3    H157539   3.195   6.185  14.140 -0.4344 -2.4494  1.0315
12016TIP3    H257540   3.278   6.085  14.062  1.5033 -0.5067  0.4751
12017TIP3   OH257541   6.366   1.178  13.083 -0.1724  0.0076  0.5938
12017TIP3    H157542   6.357   1.272  13.071  0.9312  0.1425  0.7732
12017TIP3    H257543   6.369   1.142  12.994  0.4343  0.2434  0.5196
12018TIP3   OH257544   4.484   0.002  14.009 -1.0040 -0.8025 -0.2227
12018TIP3    H157545   4.577  -0.018  14.016 -0.7549  0.4143  0.2098
12018TIP3    H257546   4.481   0.094  13.982 -2.0769 -0.7270  0.0966
12019TIP3   OH257547   4.199   5.305  15.341 -0.2799  0.3617 -0.4569
12019TIP3    H157548   4.280   5.316  15.391 -1.4742  0.6658  1.5597
12019TIP3    H257549   4.202   5.216  15.308  0.6977  0.2453 -0.0844
12020TIP3   OH257550   6.560   5.956  14.211 -0.5319 -0.4707  0.3276
12020TIP3    H157551   6.646   5.967  14.252  0.3491 -0.5492 -1.3976
12020TIP3    H257552   6.503   6.017  14.257  0.2368 -0.9739  2.0314
12021TIP3   OH257553   0.952   4.103  16.770  0.4989  0.5629 -0.1834
12021TIP3    H157554   0.951   4.008  16.775  3.8154  0.4604  2.0885
12021TIP3    H257555   0.911   4.132  16.852  1.0778  1.0040 -0.0431
12022TIP3   OH257556   4.497   6.722  13.433  0.2221 -0.0004 -0.4796
12022TIP3    H157557   4.489   6.646  13.377  1.3670 -0.6215  0.1535
12022TIP3    H257558   4.590   6.746  13.428  0.7723 -1.0830  2.3492
12023TIP3   OH257559   3.613   4.110   1.249 -0.2716  0.0668 -0.0922
12023TIP3    H157560   3.524   4.145   1.244 -0.2387  0.4211  1.2855
12023TIP3    H257561   3.607   4.037   1.310  0.2122 -0.5100 -0.7203
12024TIP3   OH257562   6.607   6.722  11.075  0.1797  0.5862  0.7110
12024TIP3    H157563   6.518   6.751  11.092  0.4331  0.4170  2.5780
12024TIP3    H257564   6.598   6.632  11.043 -0.2950  0.2600  1.7244
12025TIP3   OH257565   2.525   0.459   2.133 -0.1374 -0.4179 -0.3122
12025TIP3    H157566   2.593   0.439   2.197 -0.1523 -1.7705 -0.6869
12025TIP3    H257567   2.505   0.375   2.092 -2.3786 -0.1638  0.1124
12026TIP3   OH257568   0.732   2.601  12.707 -0.4219  0.1896 -0.5211
12026TIP3    H157569   0.792   2.676  12.708  0.0613 -0.1277 -2.3487
12026TIP3    H257570   0.653   2.635  12.666 -0.9129  0.1785  0.3989
12027TIP3   OH257571   1.465   4.631   0.960  0.4501  0.4726  0.6443
12027TIP3    H157572   1.372   4.625   0.984  0.6203  0.2484  1.2705
12027TIP3    H257573   1.472   4.583   0.878  0.1964 -0.4658  1.1464
12028TIP3   OH257574   2.294   5.405  15.248 -0.1525  0.0827 -0.3811
12028TIP3    H157575   2.380   5.434  15.217  0.6751  0.0052  1.7217
12028TIP3    H257576   2.239   5.406  15.169  1.1306  2.4556 -1.3406
12029TIP3   OH257577   1.323   6.216  17.007 -0.0833 -0.6965  0.7239
12029TIP3    H157578   1.294   6.279  16.941  0.2905 -0.5652  0.6839
12029TIP3    H257579   1.412   6.243  17.028 -0.0109 -1.0634  0.8893
12030TIP3   OH257580   0.185   1.466  14.820 -0.4317  0.8455 -0.3358
12030TIP3    H157581   0.221   1.536  14.765 -1.5889  0.3138 -1.8541
12030TIP3    H257582   0.203   1.385  14.772 -2.2514  0.4426 -0.4468
12031TIP3   OH257583   4.800   3.655  10.941  0.2486 -0.0524  0.0259
12031TIP3    H157584   4.878   3.609  10.973 -0.3358 -1.2686 -0.2485
12031TIP3    H257585   4.834   3.731  10.894  1.1907  1.4345  2.8469
12032TIP3   OH257586   4.324   0.685  11.624  0.2704  0.4765 -0.0704
12032TIP3    H157587   4.263   0.633  11.677  1.6565 -2.2264 -0.9818
12032TIP3    H257588   4.270   0.720  11.553 -0.6018 -0.1358  0.2781
12033TIP3   OH257589   4.203   5.082  15.833 -0.4018  0.5968 -0.2745
12033TIP3    H157590   4.140   5.046  15.771 -0.5839 -0.1726  0.3320
12033TIP3    H257591   4.153   5.144  15.885 -0.5755  0.2603 -0.0366
12034TIP3   OH257592   3.763   3.403  14.432  0.2153  0.5649  0.1687
12034TIP3    H157593   3.747   3.344  14.506  2.2483  0.2885  0.4349
12034TIP3    H257594   3.676   3.416  14.394 -0.6319 -0.7211  1.5113
12035TIP3   OH257595   3.737   2.617   4.183 -0.0890 -0.2111 -0.2982
12035TIP3    H157596   3.820   2.624   4.229  0.0243 -2.0411 -0.1456
12035TIP3    H257597   3.746   2.677   4.108  0.1000  2.0273  1.4153
12036TIP3   OH257598   3.063   0.043   2.018 -0.0965 -0.6042  0.1199
12036TIP3    H157599   3.037   0.024   1.928 -0.8721  0.0235  0.2098
12036TIP3    H257600   2.982   0.062   2.064  0.5465  4.0197 -0.1961
12037TIP3   OH257601   1.394   2.156  11.590  0.0820 -0.8703 -0.5557
12037TIP3    H157602   1.411   2.206  11.510 -1.1344  0.4548 -0.0231
12037TIP3    H257603   1.307   2.119  11.577 -0.4142 -0.0787  0.4198
12038TIP3   OH257604   1.647   6.643   1.503  0.1043 -0.0663 -0.3009
12038TIP3    H157605   1.644   6.552   1.531  3.3988 -0.0078  0.7096
12038TIP3    H257606   1.671   6.639   1.410  0.9662 -0.2410 -0.0751
12039TIP3   OH257607   4.919   2.868   1.805  0.8223 -0.0137  0.3733
12039TIP3    H157608   4.922   2.884   1.711  1.5488  2.2395  0.7241
12039TIP3    H257609   5.010   2.875   1.834  0.5761 -0.4421  1.2863
12040TIP3   OH257610   2.944   1.906  12.442 -0.1186  0.5396 -0.4038
12040TIP3    H157611   2.858   1.917  12.483 -0.6200  2.7490 -1.8778
12040TIP3    H257612   3.006   1.913  12.515 -1.0984  1.6695  0.3588
12041TIP3   OH257613   2.745   4.437  12.752  0.3777 -0.6713  0.1989
12041TIP3    H157614   2.835   4.428  12.783  1.9754 -0.1479 -3.6940
12041TIP3    H257615   2.751   4.495  12.676 -3.4194  0.0067  0.2077
12042TIP3   OH257616   4.267   0.565  14.194  0.1275  0.3799 -0.5299
12042TIP3    H157617   4.316   0.590  14.272 -1.8952  1.2225  0.5722
12042TIP3    H257618   4.315   0.491  14.157  1.5583  0.4506  1.0806
12043TIP3   OH257619   0.858   2.782  11.142  0.0810  0.0715  0.5821
12043TIP3    H157620   0.914   2.792  11.065  1.7312 -1.3536  1.5209
12043TIP3    H257621   0.911   2.817  11.214 -0.7951 -0.0416  1.2985
12044TIP3   OH257622   5.167   3.555   1.057 -0.0086 -0.3452 -0.3351
12044TIP3    H157623   5.223   3.486   1.093  1.5243  0.9972 -0.0179
12044TIP3    H257624   5.084   3.511   1.039  0.2672 -1.8322  1.6375
12045TIP3   OH257625   4.631   2.209  13.107 -0.5758 -0.6859 -0.7172
12045TIP3    H157626   4.640   2.150  13.033  1.4598 -1.3087 -0.0385
12045TIP3    H257627   4.690   2.282  13.087  0.5670 -1.1989  0.5366
12046TIP3   OH257628   5.354   1.163  16.015 -0.7141 -0.0131  0.3265
12046TIP3    H157629   5.272   1.158  15.965 -0.6394 -3.6309  0.3308
12046TIP3    H257630   5.420   1.128  15.955  0.4585  0.8811  1.0595
12047TIP3   OH257631   1.100   6.712   3.923  0.0944  0.9112  0.4242
12047TIP3    H157632   1.065   6.739   3.839  1.2681  1.0598 -0.0293
12047TIP3    H257633   1.172   6.652   3.902 -1.9474 -2.1084  1.3710
12048TIP3   OH257634   3.938   6.749  13.484 -0.0757  0.0711 -0.0503
12048TIP3    H157635   3.846   6.731  13.507 -0.3061  0.4135 -0.6714
12048TIP3    H257636   3.983   6.754  13.568 -0.3890 -1.3004  0.2106
12049TIP3   OH257637   5.401   1.040  13.602 -0.1779 -0.1713  0.5825
12049TIP3    H157638   5.440   1.084  13.677  1.8248 -1.1204  0.1497
12049TIP3    H257639   5.331   0.986  13.640 -0.5834  0.9502  1.4798
12050TIP3   OH257640   3.512   1.637   4.568  0.2824  0.1966 -0.5358
12050TIP3    H157641   3.517   1.596   4.481 -0.9017  0.8658 -0.9331
12050TIP3    H257642   3.577   1.589   4.620 -0.8571 -2.0286 -1.0446
12051TIP3   OH257643   3.297   4.192   4.376 -0.0831  0.0831 -0.2352
12051TIP3    H157644   3.281   4.252   4.450  0.6153  0.1511 -0.1293
12051TIP3    H257645   3.235   4.120   4.390 -1.1874  0.9430 -0.5598
12052TIP3   OH257646   5.039   5.781  13.251 -0.8916 -0.1273  0.6549
12052TIP3    H157647   5.035   5.725  13.328 -1.0945 -1.9799 -0.6284
12052TIP3    H257648   5.132   5.799  13.238 -0.3734 -3.2080 -0.8859
12053TIP3   OH257649   2.751   5.142  10.907  0.1518  0.0440 -0.1002
12053TIP3    H157650   2.762   5.057  10.865 -0.4889  0.7907 -1.8885
12053TIP3    H257651   2.839   5.167  10.933  0.6369 -0.3488 -1.2757
12054TIP3   OH257652   1.831   6.224  15.073 -0.0235 -0.0158  0.1890
12054TIP3    H157653   1.851   6.317  15.066 -0.0408  0.1346  1.7623
12054TIP3    H257654   1.735   6.220  15.078 -0.0246 -0.1160  0.0920
12055TIP3   OH257655   3.368   2.958  11.101 -0.3657 -0.5737 -0.6100
12055TIP3    H157656   3.306   2.899  11.143 -2.5309  3.1107  1.9259
12055TIP3    H257657   3.450   2.945  11.149 -0.6582 -1.7644 -0.4007
12056TIP3   OH257658   0.825   1.360  10.581  0.3226  0.0321 -0.1979
12056TIP3    H157659   0.772   1.293  10.623  1.6132 -0.0186  1.4229
12056TIP3    H257660   0.905   1.365  10.633  0.4579  2.5375 -0.5068
12057TIP3   OH257661   2.969   0.517   5.452 -0.6276 -0.0706 -0.1796
12057TIP3    H157662   3.036   0.452   5.431  0.4261 -0.3924  3.4666
12057TIP3    H257663   2.945   0.498   5.543 -4.3673  1.2403 -0.6967
12058TIP3   OH257664   2.450   3.116  12.883 -0.8130  0.1434  0.7985
12058TIP3    H157665   2.450   3.026  12.916 -1.8617  0.0844  0.6712
12058TIP3    H257666   2.405   3.110  12.798  0.2818  0.5795  0.1596
12059TIP3   OH257667   6.750   1.536  13.043 -0.1636  0.1072  0.1661
12059TIP3    H157668   6.718   1.620  13.076  0.4213  0.4018  0.0045
12059TIP3    H257669   6.691   1.471  13.081 -1.9778  0.7401 -1.4031
12060TIP3   OH257670   4.043   0.127   5.432 -1.1514 -0.2751  0.4960
12060TIP3    H157671   4.008   0.207   5.393 -0.0507 -0.0518 -0.0660
12060TIP3    H257672   4.138   0.133   5.419 -1.1368 -2.2551 -0.6451
12061TIP3   OH257673   3.706   0.545   5.115 -0.4262  0.0864 -0.4939
12061TIP3    H157674   3.792   0.585   5.128  0.6360 -2.4305  1.1053
12061TIP3    H257675   3.708   0.511   5.026  1.4195 -2.2617  0.3226
12062TIP3   OH257676   4.662   3.074  14.498  0.6423 -0.2739 -0.0433
12062TIP3    H157677   4.574   3.060  14.461  0.6586 -0.9053  0.1393
12062TIP3    H257678   4.703   3.137  14.440  0.3928 -0.6768 -0.6615
12063TIP3   OH257679   5.797   4.971  12.684  0.3551  0.0663  0.0668
12063TIP3    H157680   5.706   4.953  12.708 -0.0875  0.6997 -1.0273
12063TIP3    H257681   5.792   5.047  12.627  1.3886 -0.8639 -1.3545
12064TIP3   OH257682   0.830   2.331   1.594 -0.1291 -0.3708 -0.0212
12064TIP3    H157683   0.879   2.392   1.539 -1.8570  0.2865 -0.8957
12064TIP3    H257684   0.791   2.385   1.662  3.5182 -1.3886  3.2342
12065TIP3   OH257685   0.998   0.948  17.252 -0.6932  0.0073 -0.2153
12065TIP3    H157686   1.045   0.886  17.308 -0.6026  1.3321  1.2363
12065TIP3    H257687   1.026   0.926  17.163  1.3724 -0.3339  0.4676
12066TIP3   OH257688   0.270   5.498   3.028 -0.2820  0.0463  0.2960
12066TIP3    H157689   0.285   5.442   3.104 -3.1855 -1.7851 -0.3162
12066TIP3    H257690   0.272   5.437   2.954 -3.7854  0.5369 -0.3931
12067TIP3   OH257691   4.044   2.347   1.012 -0.4911  0.3595 -0.0291
12067TIP3    H157692   4.105   2.296   0.959  0.8450  1.1840  0.6772
12067TIP3    H257693   4.058   2.316   1.101 -0.0573  1.5484  0.3323
12068TIP3   OH257694   3.251   4.090  13.292 -0.7446 -0.7086  0.2875
12068TIP3    H157695   3.337   4.064  13.323 -0.3576 -0.3827 -0.4915
12068TIP3    H257696   3.192   4.023  13.327 -0.2821 -0.5681  1.3774
12069TIP3   OH257697   3.878   4.332  12.983  0.0552 -0.4918 -0.2800
12069TIP3    H157698   3.919   4.388  13.049  0.8691  0.2631 -1.3827
12069TIP3    H257699   3.833   4.264  13.034  4.3206 -2.6509  1.0989
12070TIP3   OH257700   3.154   4.878  15.062  0.6808  0.5750 -0.0640
12070TIP3    H157701   3.087   4.944  15.077 -0.2523 -0.0117 -1.4232
12070TIP3    H257702   3.133   4.842  14.976  2.1980 -0.2779 -0.1096
12071TIP3   OH257703   1.677   5.031   5.024 -0.6415  0.4698 -0.7184
12071TIP3    H157704   1.724   5.034   4.940  1.3429  1.8064  0.3720
12071TIP3    H257705   1.618   4.956   5.015 -1.6923  1.5112 -3.8918
12072TIP3   OH257706   2.616   1.605  12.508 -0.3974 -0.1953  0.3115
12072TIP3    H157707   2.656   1.525  12.542  0.6231 -0.2773 -0.9791
12072TIP3    H257708   2.540   1.574  12.458 -1.6247 -0.1090  2.0626
12073TIP3   OH257709   3.581   5.378  11.678 -0.0288  0.5363  0.3262
12073TIP3    H157710   3.586   5.408  11.587 -1.2024 -0.9462 -0.2606
12073TIP3    H257711   3.619   5.290  11.677  0.4036  0.6931  1.3821
12074TIP3   OH257712   5.307   3.976  14.119 -0.5167  0.5990  0.4578
12074TIP3    H157713   5.319   4.060  14.164 -1.3561  0.0564  1.7647
12074TIP3    H257714   5.302   3.998  14.026 -0.0419  1.9116  0.7288
12075TIP3   OH257715   6.645   2.219  15.974 -0.5386 -0.2572 -0.6627
12075TIP3    H157716   6.649   2.300  16.024 -1.3778  0.4979 -1.7670
12075TIP3    H257717   6.579   2.235  15.906 -0.6183 -1.8100 -1.0056
12076TIP3   OH257718   4.784   2.732   2.017 -0.0141 -0.6964  0.0765
12076TIP3    H157719   4.782   2.798   2.086  0.5472 -1.2644  0.6590
12076TIP3    H257720   4.855   2.759   1.960 -0.6941 -0.0448 -0.4740
12077TIP3   OH257721   0.918   0.039  12.901  0.4813  0.4263  1.1074
12077TIP3    H157722   0.863   0.114  12.922  1.3626  1.1466  0.9449
12077TIP3    H257723   0.858  -0.035  12.891 -0.4882  1.2834  0.4683
12078TIP3   OH257724   3.107   1.466   5.241 -0.4002  0.2007 -0.1087
12078TIP3    H157725   3.034   1.471   5.303 -1.4007 -1.6837 -1.0268
12078TIP3    H257726   3.131   1.373   5.240  0.4349  0.3965 -1.5781
12079TIP3   OH257727   2.338   6.509  14.625  0.1124  0.0048 -0.3716
12079TIP3    H157728   2.406   6.554  14.575  0.3346  0.2197  0.1227
12079TIP3    H257729   2.263   6.569  14.623  0.5552  0.6055  0.6688
12080TIP3   OH257730   0.540   1.101  14.713  0.0778 -0.5897  0.1949
12080TIP3    H157731   0.501   1.175  14.667  0.8042 -0.7637 -0.7277
12080TIP3    H257732   0.586   1.051  14.645  0.5721 -1.2535  0.9889
12081TIP3   OH257733   5.534   4.869  16.477  0.3168  0.6847 -0.3856
12081TIP3    H157734   5.459   4.822  16.441  0.2864  0.5382 -0.1308
12081TIP3    H257735   5.554   4.824  16.559  1.0472  0.3559 -0.7384
12082TIP3   OH257736   5.249   6.387  11.558 -0.0619 -0.3510  0.0533
12082TIP3    H157737   5.299   6.349  11.486  0.0414  0.3014 -0.2277
12082TIP3    H257738   5.190   6.450  11.517  0.8255  0.9037  0.6252
12083TIP3   OH257739   2.431   0.704  12.719 -0.3237 -0.1082  0.1716
12083TIP3    H157740   2.518   0.727  12.685 -0.4447 -0.1697 -0.1779
12083TIP3    H257741   2.391   0.788  12.741  0.1782 -0.1233  1.2154
12084TIP3   OH257742   2.080   0.233   2.093  0.1378 -0.3375  0.2457
12084TIP3    H157743   2.039   0.278   2.167  1.4363 -0.1843  0.9095
12084TIP3    H257744   2.070   0.140   2.113 -2.4592 -0.4230 -1.0780
12085TIP3   OH257745   0.142   4.436  16.977 -0.4409  0.4318 -0.2980
12085TIP3    H157746   0.168   4.354  16.936 -2.5756  0.1453 -1.1621
12085TIP3    H257747   0.110   4.410  17.064  1.6116  0.7525  0.6364
12086TIP3   OH257748   0.032   5.698   1.377  0.6266 -0.3272  0.6681
12086TIP3    H157749  -0.014   5.648   1.445 -1.3634 -0.3568 -0.5924
12086TIP3    H257750  -0.038   5.739   1.326  2.0987  4.1353  1.7817
12087TIP3   OH257751   4.336   1.016  11.298  0.0503 -0.5716 -0.1111
12087TIP3    H157752   4.375   1.104  11.297  1.1863 -1.0319  0.6113
12087TIP3    H257753   4.297   1.008  11.385 -0.0465 -0.7832 -0.1726
12088TIP3   OH257754   5.827   5.883   4.051  0.2582 -0.2637  0.2172
12088TIP3    H157755   5.830   5.977   4.067 -3.2045  0.4041 -1.8218
12088TIP3    H257756   5.884   5.870   3.975 -1.0051  0.7447 -0.9841
12089TIP3   OH257757   5.463   3.192   4.945  0.5693  0.3127 -0.4109
12089TIP3    H157758   5.507   3.113   4.977 -1.1207 -0.2894  0.5809
12089TIP3    H257759   5.388   3.159   4.896 -0.3710  1.3021  0.3294
12090TIP3   OH257760   4.758   2.777  16.498  0.2901 -0.2184  0.8230
12090TIP3    H157761   4.744   2.781  16.404 -0.8298  0.5087  0.9941
12090TIP3    H257762   4.851   2.792  16.510  0.4302 -0.2583 -0.1623
12091TIP3   OH257763   4.133   2.037  12.635  0.3194 -0.0456  0.1156
12091TIP3    H157764   4.058   2.093  12.654 -1.6663 -1.5026 -2.6780
12091TIP3    H257765   4.106   1.951  12.668  2.0762 -0.0357  1.7110
12092TIP3   OH257766   2.544   4.870   4.792 -0.0721  0.2590  0.0842
12092TIP3    H157767   2.632   4.904   4.775 -0.5648  2.0569  0.9851
12092TIP3    H257768   2.519   4.827   4.710  1.5624 -0.1302 -0.2441
12093TIP3   OH257769   5.945   6.518  11.470  0.2016 -0.2242  0.2407
12093TIP3    H157770   5.891   6.569  11.530 -1.3462 -0.5818 -0.7898
12093TIP3    H257771   5.885   6.491  11.400  0.7528 -3.9263  0.9714
12094TIP3   OH257772   5.321   5.341  12.559  0.1536  0.4087  0.1416
12094TIP3    H157773   5.339   5.256  12.521  0.0744  0.1092  0.7545
12094TIP3    H257774   5.227   5.353  12.547  0.1648  0.4097  0.0549
12095TIP3   OH257775   0.327   3.595   5.670 -0.5119 -0.3455  0.0405
12095TIP3    H157776   0.306   3.518   5.618 -1.3216  0.6515 -1.1800
12095TIP3    H257777   0.242   3.628   5.700 -0.0488 -1.0379  2.2767
12096TIP3   OH257778   2.710   3.275  11.373  0.2518  0.5986  0.3359
12096TIP3    H157779   2.691   3.329  11.296 -0.4960 -0.8728 -0.5552
12096TIP3    H257780   2.717   3.186  11.338  1.6076  0.1096  1.7370
12097TIP3   OH257781   4.649   4.177   5.265 -0.0087 -0.0566  0.0790
12097TIP3    H157782   4.593   4.110   5.304 -1.6782  0.9751 -0.4444
12097TIP3    H257783   4.590   4.228   5.210  1.0263  2.3736  1.0967
12098TIP3   OH257784   4.138   0.151   2.147  0.3159 -0.0275  0.1710
12098TIP3    H157785   4.070   0.165   2.082 -0.1806 -1.0624  0.4384
12098TIP3    H257786   4.197   0.087   2.107 -0.5370 -1.4397  1.0921
12099TIP3   OH257787   0.174   0.958   3.439 -0.4019  0.1920 -0.6384
12099TIP3    H157788   0.150   0.885   3.382  0.7979 -0.8864  0.1827
12099TIP3    H257789   0.269   0.967   3.427 -0.0845 -0.2035  1.3014
12100TIP3   OH257790   1.484   0.725  16.476 -0.6574 -0.2354  0.2942
12100TIP3    H157791   1.457   0.790  16.411 -0.6488 -0.4349  0.0886
12100TIP3    H257792   1.567   0.690  16.442 -0.7441 -0.4693  0.3178
12101TIP3   OH257793   1.123   6.144  15.340 -0.0680  0.3620  0.0378
12101TIP3    H157794   1.153   6.053  15.346 -0.3753  0.3424  1.4490
12101TIP3    H257795   1.190   6.194  15.387 -0.8425  0.6372  0.8647
12102TIP3   OH257796   3.460   0.535   2.295 -0.2016  0.0995 -0.2875
12102TIP3    H157797   3.503   0.474   2.234 -0.0438  1.8657 -2.0291
12102TIP3    H257798   3.392   0.576   2.243 -0.1611  1.5731  0.7759
12103TIP3   OH257799   4.401   0.350  15.520  0.1332  0.2942 -0.1108
12103TIP3    H157800   4.446   0.394  15.447 -0.6802  1.3097 -0.0173
12103TIP3    H257801   4.355   0.277  15.479 -0.1774  0.7538 -0.5892
12104TIP3   OH257802   6.301   2.479   4.017 -0.3721 -0.1851 -0.0798
12104TIP3    H157803   6.225   2.429   3.986 -0.9183 -1.8598  3.3741
12104TIP3    H257804   6.376   2.428   3.987 -0.6825  0.0594 -1.3303
12105TIP3   OH257805   2.691   5.321  12.596  0.4746  0.1475  0.3370
12105TIP3    H157806   2.673   5.395  12.654 -2.2501 -0.6930  0.7078
12105TIP3    H257807   2.706   5.247  12.655  1.3944  0.0151 -0.0429
12106TIP3   OH257808   2.882   5.472   5.568 -0.1385  0.3023  0.2438
12106TIP3    H157809   2.925   5.393   5.600  1.9313  1.3330  0.2035
12106TIP3    H257810   2.943   5.543   5.591 -0.4376  1.5333 -2.4192
12107TIP3   OH257811   6.536   3.357  13.095  0.0633  0.1232  0.0428
12107TIP3    H157812   6.493   3.420  13.153  0.0728 -0.4827  0.7212
12107TIP3    H257813   6.627   3.386  13.091  0.5166 -0.8896  1.8773
12108TIP3   OH257814   5.891   1.736  12.669 -0.3511 -0.6538  0.3850
12108TIP3    H157815   5.800   1.747  12.697  0.1147  1.8868  1.2408
12108TIP3    H257816   5.929   1.824  12.678  2.8923 -2.0794  2.6195
12109TIP3   OH257817   2.885   1.928  13.182  0.4227  0.3993  0.2884
12109TIP3    H157818   2.852   1.917  13.093 -1.2989 -0.4475  0.9901
12109TIP3    H257819   2.980   1.913  13.174  0.7586  2.9683 -1.7888
12110TIP3   OH257820   5.456   6.039   5.418 -0.3178 -0.0927  0.2299
12110TIP3    H157821   5.483   6.073   5.333 -1.1128  0.1551  0.0615
12110TIP3    H257822   5.423   5.951   5.400 -1.9994  0.5379 -0.0221
12111TIP3   OH257823   2.331   1.833  11.643 -0.0966 -1.1488  0.2773
12111TIP3    H157824   2.269   1.905  11.641  0.2198 -0.6693  3.1427
12111TIP3    H257825   2.415   1.872  11.617 -0.0840 -0.6752  1.0314
12112TIP3   OH257826   5.022   2.326   0.128  0.3976  0.1228  0.3994
12112TIP3    H157827   5.047   2.261   0.193  0.0903 -0.6851 -0.2622
12112TIP3    H257828   5.019   2.409   0.175  2.4122 -0.0571  0.9219
12113TIP3   OH257829   0.174   1.324   1.634 -0.9457  0.0131 -0.2522
12113TIP3    H157830   0.135   1.411   1.643 -0.0076  0.5054 -0.7951
12113TIP3    H257831   0.247   1.337   1.573 -0.0201 -0.9070  0.6267
12114TIP3   OH257832   5.038   2.877   5.023 -0.3219  0.7956  0.3724
12114TIP3    H157833   4.953   2.921   5.019 -0.8836 -0.3540 -1.8696
12114TIP3    H257834   5.024   2.794   4.977  1.6564 -0.0715  1.2454
12115TIP3   OH257835   0.785   3.253   4.414 -0.0567  0.5715  0.3415
12115TIP3    H157836   0.866   3.304   4.415 -0.0631  0.5750  0.9176
12115TIP3    H257837   0.717   3.316   4.388 -0.0095  0.7732  0.7067
12116TIP3   OH257838   2.213   2.164  17.213 -0.4287  0.4805  0.4345
12116TIP3    H157839   2.226   2.095  17.148  2.4121 -0.1926  1.5654
12116TIP3    H257840   2.289   2.222  17.203 -1.6181  2.2417  0.9941
12117TIP3   OH257841   6.810   6.519  16.078 -0.0728 -0.2011 -0.2542
12117TIP3    H157842   6.817   6.437  16.127 -1.4782  0.8227  1.8155
12117TIP3    H257843   6.734   6.507  16.022 -0.2448 -0.3301  0.0061
12118TIP3   OH257844   3.716   2.983  16.129 -0.1848  0.8343  0.4691
12118TIP3    H157845   3.642   2.926  16.110 -0.1791  0.8660  0.3511
12118TIP3    H257846   3.711   3.052  16.063 -0.2760  1.0497  0.6995
12119TIP3   OH257847   4.801   2.828  11.610 -0.8666  0.1739 -0.2717
12119TIP3    H157848   4.856   2.798  11.537  0.3444  0.5505  0.4518
12119TIP3    H257849   4.775   2.917  11.586  2.1724  1.5751  1.0779
12120TIP3   OH257850   5.842   5.724  15.466 -0.1735  0.5125  0.4536
12120TIP3    H157851   5.793   5.730  15.548 -2.0195  1.8743 -0.6615
12120TIP3    H257852   5.778   5.695  15.402  1.0860  0.0315 -0.6305
12121TIP3   OH257853   3.767   6.483   3.421 -0.4255  0.0774  0.3034
12121TIP3    H157854   3.674   6.499   3.404 -0.7645 -0.7576  1.3039
12121TIP3    H257855   3.771   6.455   3.512  0.7142 -0.6419  0.0572
12122TIP3   OH257856   5.341   0.202  11.395 -0.4065  0.0278 -0.2364
12122TIP3    H157857   5.327   0.288  11.436  0.1803  0.4530 -0.9216
12122TIP3    H257858   5.330   0.140  11.467 -3.4900  0.4479 -0.2231
12123TIP3   OH257859   0.695   1.751  16.014  0.1583  0.7053 -0.3141
12123TIP3    H157860   0.689   1.832  16.065 -0.6561 -0.0008  0.7549
12123TIP3    H257861   0.642   1.688  16.063  2.8543 -1.2395  0.3678
12124TIP3   OH257862   6.657   4.884   3.339  0.0508 -0.1888  0.1035
12124TIP3    H157863   6.751   4.890   3.358 -0.2746 -0.1193  1.8262
12124TIP3    H257864   6.623   4.823   3.405 -0.9713 -0.9343 -1.0821
12125TIP3   OH257865   4.979   2.068  17.028  0.0023  0.2479  0.3451
12125TIP3    H157866   4.886   2.045  17.035 -0.1404  0.2529 -1.1983
12125TIP3    H257867   4.986   2.152  17.074 -0.3774 -0.5619  1.9869
12126TIP3   OH257868   1.808   0.123   1.955  0.9996 -0.1918 -0.0770
12126TIP3    H157869   1.765   0.058   2.011  1.1777  1.0614  1.5919
12126TIP3    H257870   1.752   0.129   1.878 -0.2504 -0.7106  0.7569
12127TIP3   OH257871   5.246   3.231  13.948  0.1376 -0.0355 -0.5610
12127TIP3    H157872   5.288   3.153  13.910 -1.3441 -1.2881  0.2288
12127TIP3    H257873   5.266   3.301  13.887 -0.2478 -1.4957 -2.4841
12128TIP3   OH257874   3.939   2.085   1.719 -0.0183  0.0969 -0.6826
12128TIP3    H157875   3.916   2.170   1.681 -3.3228 -0.2936  0.1582
12128TIP3    H257876   3.936   2.099   1.813  0.2436 -0.7473 -0.5436
12129TIP3   OH257877   0.436   0.786  12.682 -0.2030  0.0881 -0.4794
12129TIP3    H157878   0.474   0.869  12.652 -0.0257 -0.1230 -0.8398
12129TIP3    H257879   0.508   0.742  12.728 -0.6571  0.7113  0.8752
12130TIP3   OH257880   6.430   5.929  12.496 -0.0865 -0.1253  0.1758
12130TIP3    H157881   6.382   6.012  12.500  0.5256  0.2434  0.0681
12130TIP3    H257882   6.377   5.868  12.546 -0.9752  0.1147 -0.4508
12131TIP3   OH257883   0.048   4.076   4.841  0.1955 -0.3922  0.2848
12131TIP3    H157884   0.009   4.156   4.805  0.8750 -0.0569  0.2918
12131TIP3    H257885   0.022   4.008   4.779  1.0346  0.1192 -0.6666
12132TIP3   OH257886   1.651   0.874   0.459 -0.4099  0.2243  0.1955
12132TIP3    H157887   1.728   0.857   0.513 -0.6931 -1.7662  0.0525
12132TIP3    H257888   1.625   0.963   0.482  1.0133  0.3681  1.3912
12133TIP3   OH257889   5.221   0.712  13.956  0.4092 -0.7561  0.4453
12133TIP3    H157890   5.173   0.757  14.025  1.9751 -0.2887  1.2722
12133TIP3    H257891   5.247   0.628  13.995  2.3232 -0.0061  0.9092
12134TIP3   OH257892   6.700   3.573   2.205  0.3894 -0.0732  0.3083
12134TIP3    H157893   6.764   3.503   2.217  1.4228  0.7675 -0.1436
12134TIP3    H257894   6.619   3.527   2.182  1.3517 -1.0989 -1.2775
12135TIP3   OH257895   4.529   1.979  13.306 -0.0946  0.3251  0.3791
12135TIP3    H157896   4.560   2.047  13.246  1.5536 -1.5897 -1.0808
12135TIP3    H257897   4.594   1.977  13.376  2.4241 -2.4425 -1.7489
12136TIP3   OH257898   2.873   5.509  16.545  0.0416  0.4435 -0.5400
12136TIP3    H157899   2.808   5.442  16.565 -0.6613  1.2755  0.0617
12136TIP3    H257900   2.911   5.532  16.631  0.8923  0.2071 -0.8429
12137TIP3   OH257901   0.605   4.286  14.346 -1.1326  0.2086  0.5103
12137TIP3    H157902   0.578   4.195  14.363 -0.4404 -0.0910  0.0614
12137TIP3    H257903   0.553   4.338  14.407 -1.9558 -0.4342  0.3839
12138TIP3   OH257904   3.433   0.066  12.611  0.3020 -0.0487 -0.9998
12138TIP3    H157905   3.414   0.088  12.702  1.9059 -1.7246 -0.1817
12138TIP3    H257906   3.347   0.049  12.572 -0.4341  1.0022  0.0847
12139TIP3   OH257907   3.273   4.706  15.256 -0.1206 -0.7023 -0.1992
12139TIP3    H157908   3.292   4.772  15.323 -0.6394  1.1610 -1.8002
12139TIP3    H257909   3.204   4.746  15.202  0.8766 -1.7372 -2.3597
12140TIP3   OH257910   5.830   4.783   3.501  0.1115 -0.8352 -0.7076
12140TIP3    H157911   5.775   4.860   3.488  0.2220 -0.8029 -0.9819
12140TIP3    H257912   5.785   4.732   3.569  0.5079 -0.0830  0.1477
12141TIP3   OH257913   1.350   4.980   3.620 -0.5445  0.4883  0.2558
12141TIP3    H157914   1.349   5.062   3.669 -1.0184  1.0580 -0.6849
12141TIP3    H257915   1.264   4.941   3.636 -1.4807  1.6196 -1.6174
12142TIP3   OH257916   0.818   5.928  17.013 -0.2285  0.0720  0.4949
12142TIP3    H157917   0.842   5.906  17.103 -0.2120 -0.2542  0.4103
12142TIP3    H257918   0.768   5.853  16.982  2.3153 -1.1933 -0.7904
12143TIP3   OH257919   1.539   2.647  14.093  0.5361 -0.1994  0.1733
12143TIP3    H157920   1.584   2.675  14.013  0.8214  1.6981  0.9465
12143TIP3    H257921   1.589   2.572  14.124  0.1952 -1.2288 -1.5892
12144TIP3   OH257922   1.358   4.114   5.434  0.8079  0.6682  0.4513
12144TIP3    H157923   1.410   4.073   5.366 -1.9604 -3.1576  0.3184
12144TIP3    H257924   1.406   4.095   5.515  0.7717 -0.8574  0.1450
12145TIP3   OH257925   1.607   6.803   0.596  0.1193 -0.0594  0.2269
12145TIP3    H157926   1.595   6.842   0.510  0.3182 -0.9099 -0.2017
12145TIP3    H257927   1.696   6.828   0.621  0.2784 -0.2910 -0.0868
12146TIP3   OH257928   3.532   2.098   1.328 -0.2173  0.0532 -0.0981
12146TIP3    H157929   3.513   2.191   1.335 -1.4370 -0.1215 -0.7415
12146TIP3    H257930   3.617   2.094   1.285 -0.7771  0.8741 -1.3407
12147TIP3   OH257931   4.475   1.358   0.722 -0.5335  0.2300 -0.1816
12147TIP3    H157932   4.495   1.361   0.629  0.2746 -0.2689 -0.0391
12147TIP3    H257933   4.380   1.372   0.727 -0.5800  0.2916 -1.0684
12148TIP3   OH257934   3.558   1.598  13.156 -0.0374 -0.0718 -0.1549
12148TIP3    H157935   3.488   1.597  13.090  0.0684  1.0599 -0.3014
12148TIP3    H257936   3.533   1.530  13.219 -1.3933  0.4740 -0.0771
12149TIP3   OH257937   0.148   6.703   3.177  0.1444 -0.7132 -0.1608
12149TIP3    H157938   0.183   6.731   3.262  0.1403 -0.6530 -0.1790
12149TIP3    H257939   0.189   6.762   3.114 -1.7431  0.9202  0.0352
12150TIP3   OH257940   4.047   0.801   0.695 -0.3748  0.1139  1.0865
12150TIP3    H157941   4.077   0.735   0.758  1.3046 -1.4639 -1.1992
12150TIP3    H257942   4.106   0.792   0.620 -1.8101  2.3787 -0.4671
12151TIP3   OH257943   0.505   1.450  15.286  0.0957  0.2767 -0.3435
12151TIP3    H157944   0.559   1.504  15.229 -2.1291  1.7184 -1.2226
12151TIP3    H257945   0.434   1.419  15.229  0.7149 -2.8013  0.3815
12152TIP3   OH257946   0.564   0.407   3.940 -0.6498  0.3644  0.1080
12152TIP3    H157947   0.558   0.494   3.979 -1.2240 -0.0595  0.9920
12152TIP3    H257948   0.474   0.375   3.941 -0.4052 -0.3287 -0.0260
12153TIP3   OH257949   6.213   0.722   4.203 -0.5536  0.3762 -0.4165
12153TIP3    H157950   6.144   0.767   4.153 -0.3404  1.6284  0.3744
12153TIP3    H257951   6.180   0.721   4.293  0.1285  0.3176 -0.1655
12154TIP3   OH257952   3.606   1.320   1.824 -0.2966  0.0909 -0.3044
12154TIP3    H157953   3.585   1.413   1.837 -0.5507  0.3747 -2.3791
12154TIP3    H257954   3.678   1.320   1.761  1.7667 -1.0864  1.9057
12155TIP3   OH257955   6.466   0.866   5.066 -0.0901  0.2885 -0.1916
12155TIP3    H157956   6.447   0.798   5.001  0.2254  0.2849 -0.2764
12155TIP3    H257957   6.558   0.886   5.055 -0.0055  0.2111  0.3259
12156TIP3   OH257958   6.612   3.702   4.484 -0.5316 -0.2752 -0.1855
12156TIP3    H157959   6.600   3.796   4.478  2.1028  0.1004 -0.7810
12156TIP3    H257960   6.555   3.675   4.556 -2.6988  1.4430 -1.1436
12157TIP3   OH257961   4.556   0.816   2.591 -0.2977  0.1757 -0.0851
12157TIP3    H157962   4.537   0.723   2.577 -2.0463  0.7535 -1.8964
12157TIP3    H257963   4.565   0.852   2.503 -2.5731  2.2818  0.4575
12158TIP3   OH257964   3.463   1.476   5.832 -0.2191  0.3198 -0.7462
12158TIP3    H157965   3.448   1.419   5.757  0.6308 -0.8175 -0.0965
12158TIP3    H257966   3.377   1.487   5.873 -0.0803 -2.5377  0.5006
12159TIP3   OH257967   0.823   0.747  11.632  0.1740 -0.8046  0.0591
12159TIP3    H157968   0.884   0.675  11.613  0.6484 -0.4282  0.1385
12159TIP3    H257969   0.836   0.808  11.559  1.6703  0.4364  1.3047
12160TIP3   OH257970   2.777   5.205  16.274  0.1783 -0.6931 -0.1268
12160TIP3    H157971   2.824   5.200  16.191  0.4183 -0.2329 -0.0262
12160TIP3    H257972   2.687   5.185  16.252  0.5165 -2.2016 -0.2254
12161TIP3   OH257973   5.518   0.765   3.336  0.4423  0.2721 -0.2211
12161TIP3    H157974   5.532   0.673   3.359 -0.2579  0.1493 -0.2509
12161TIP3    H257975   5.519   0.767   3.240  0.5993  0.3239 -0.2193
12162TIP3   OH257976   5.640   4.694  13.193 -1.0352  0.1236 -0.1609
12162TIP3    H157977   5.643   4.650  13.108 -0.8380  0.2889 -0.2436
12162TIP3    H257978   5.579   4.766  13.180 -0.3865  0.6453 -0.4140
12163TIP3   OH257979   1.234   4.558   2.637  0.5780  0.6976  0.0116
12163TIP3    H157980   1.181   4.484   2.666 -0.1809  2.3301  3.2458
12163TIP3    H257981   1.322   4.522   2.626 -0.0141 -0.9002  0.2099
12164TIP3   OH257982   6.651   1.021  12.911  0.1472 -0.2057 -0.3023
12164TIP3    H157983   6.621   0.939  12.950  2.3730 -1.6825 -1.4717
12164TIP3    H257984   6.689   1.070  12.984 -1.0932 -0.2214  0.3861
12165TIP3   OH257985   5.123   5.163   5.352 -0.0197 -0.5900  0.4876
12165TIP3    H157986   5.166   5.097   5.298  1.3607 -0.1052  0.9576
12165TIP3    H257987   5.186   5.235   5.356 -0.2371 -0.4590  2.4470
12166TIP3   OH257988   6.136   3.021   0.261  0.0370  0.2692 -0.1047
12166TIP3    H157989   6.104   2.996   0.348  0.2689 -0.8562 -0.3270
12166TIP3    H257990   6.213   3.075   0.279  0.8835 -1.0415  0.4179
12167TIP3   OH257991   4.921   5.943   3.733 -0.3532 -0.2062 -0.2371
12167TIP3    H157992   4.869   5.864   3.748  0.2679 -0.6941 -0.5811
12167TIP3    H257993   4.959   5.962   3.819  0.7554 -1.2154 -0.4742
12168TIP3   OH257994   5.185   3.724  16.038 -0.3109  0.3381 -0.5502
12168TIP3    H157995   5.177   3.803  15.984 -1.0298  0.9916  0.4672
12168TIP3    H257996   5.110   3.670  16.014  0.9224 -0.7154 -2.2498
12169TIP3   OH257997   0.422   0.399  14.503 -0.2537  0.2667 -0.2704
12169TIP3    H157998   0.445   0.393  14.410 -0.8987 -1.9402 -0.3512
12169TIP3    H257999   0.329   0.376  14.506 -0.1230 -0.1777  0.9599
12170TIP3   OH258000   6.421   6.187  14.243 -0.0929  0.0416  0.2777
12170TIP3    H158001   6.463   6.274  14.243  1.0962 -0.4714  2.0568
12170TIP3    H258002   6.348   6.196  14.304 -0.1009 -0.1453  0.2956
12171TIP3   OH258003   5.023   2.901   2.297 -0.1021 -0.1327 -0.0924
12171TIP3    H158004   4.988   2.953   2.225  1.2853 -1.0759 -1.5027
12171TIP3    H258005   5.042   2.965   2.366 -0.6255  0.9018 -0.8880
12172TIP3   OH258006   2.392   2.878  12.508 -0.5933 -0.6277  0.0554
12172TIP3    H158007   2.409   2.787  12.532 -1.8731 -1.4783 -1.9980
12172TIP3    H258008   2.451   2.895  12.435  0.1452  0.4587  0.8768
12173TIP3   OH258009   0.628   1.481   2.929  0.8986 -0.4580  0.4322
12173TIP3    H158010   0.683   1.455   2.855 -1.5082  2.5669 -2.8180
12173TIP3    H258011   0.648   1.574   2.941 -1.4193  0.0169  1.0075
12174TIP3   OH258012   1.480   4.083   5.000  0.0829 -0.2451 -0.3134
12174TIP3    H158013   1.438   4.155   5.046 -1.2143  0.1278 -2.0060
12174TIP3    H258014   1.572   4.087   5.029 -0.4462  0.5755  1.4017
12175TIP3   OH258015   2.112   6.616  12.304  0.5344  0.3422  0.1457
12175TIP3    H158016   2.086   6.644  12.392 -0.9485 -1.1025  0.2200
12175TIP3    H258017   2.126   6.522  12.312 -0.8733 -0.0412 -1.4151
12176TIP3   OH258018   1.958   4.229  15.626 -0.0838 -0.1817 -0.1958
12176TIP3    H158019   1.885   4.291  15.630  0.3507  0.3590 -0.4153
12176TIP3    H258020   1.937   4.163  15.691 -0.5412  0.2238  0.0759
12177TIP3   OH258021   3.868   1.068   5.141 -0.4786 -0.1371  0.2550
12177TIP3    H158022   3.877   1.020   5.058  0.0327 -0.1451  0.3147
12177TIP3    H258023   3.881   1.159   5.118  0.8956 -0.2517  0.5174
12178TIP3   OH258024   2.999   4.696  16.422 -0.0047 -0.3685  0.4603
12178TIP3    H158025   2.986   4.756  16.349 -0.5887 -0.8097  0.1964
12178TIP3    H258026   2.921   4.641  16.423 -0.9422  0.8773  2.6296
12179TIP3   OH258027   0.289   4.489  14.130 -0.6235  0.3085  0.2115
12179TIP3    H158028   0.334   4.534  14.059 -0.6774  0.3733  0.2176
12179TIP3    H258029   0.199   4.478  14.097 -0.6486  0.3395  0.2694
12180TIP3   OH258030   5.188   4.900  14.090 -0.2147  0.1299  0.3023
12180TIP3    H158031   5.267   4.931  14.045 -0.0928 -1.0325 -0.3482
12180TIP3    H258032   5.221   4.843  14.160 -0.4557  0.3021  0.5556
12181TIP3   OH258033   0.217   0.479  15.399  0.4015  0.3227 -0.1542
12181TIP3    H158034   0.248   0.388  15.395 -0.5990 -0.0165 -0.8664
12181TIP3    H258035   0.123   0.471  15.415  0.5358  1.2951  1.2840
12182TIP3   OH258036   4.031   4.893   1.993 -0.3243 -0.1564 -0.0261
12182TIP3    H158037   4.099   4.878   1.927 -0.2811 -0.7048  0.1466
12182TIP3    H258038   4.004   4.984   1.979 -1.5845 -0.7681 -1.9959
12183TIP3   OH258039   2.098   1.374   0.744 -0.1221  0.0313 -0.3627
12183TIP3    H158040   2.184   1.395   0.781  1.0336 -1.4911 -1.9805
12183TIP3    H258041   2.084   1.282   0.766 -2.3322  0.7419  1.5750
12184TIP3   OH258042   0.071   1.934  14.039  0.2783  0.4640 -0.0242
12184TIP3    H158043   0.144   1.996  14.033  0.0708  0.6686 -0.4822
12184TIP3    H258044   0.112   1.849  14.052  0.5791  0.6544  0.2817
12185TIP3   OH258045   2.834   4.413  15.114  0.9028  0.0425  0.4681
12185TIP3    H158046   2.857   4.406  15.021  1.5229 -1.2130  0.6883
12185TIP3    H258047   2.739   4.418  15.115  0.9249  0.9503 -0.2672
12186TIP3   OH258048   5.042   6.329   1.289  0.5437 -0.6760  0.1668
12186TIP3    H158049   4.987   6.294   1.360 -0.2929 -0.3319 -0.3047
12186TIP3    H258050   5.088   6.403   1.329 -0.8848  0.3237  0.0284
12187TIP3   OH258051   2.523   4.872   2.972  0.2989 -0.7155  0.1673
12187TIP3    H158052   2.476   4.939   3.022 -0.1159 -0.2883 -0.7657
12187TIP3    H258053   2.591   4.841   3.031 -0.4346 -0.5164  1.1386
12188TIP3   OH258054   3.940   6.818  16.695  0.1643  0.2221  0.1258
12188TIP3    H158055   3.944   6.907  16.662 -0.8689 -0.4459 -1.9528
12188TIP3    H258056   3.851   6.789  16.675  0.5609 -1.3561  0.5219
12189TIP3   OH258057   1.935   3.533  15.926 -0.1053 -0.1584  0.3202
12189TIP3    H158058   1.921   3.539  15.831 -2.8556 -0.0888  0.6414
12189TIP3    H258059   1.980   3.449  15.938 -1.2043 -0.9908 -0.9613
12190TIP3   OH258060   3.347   3.263   1.794 -0.7855  0.2724  0.1382
12190TIP3    H158061   3.354   3.242   1.887 -2.5243 -0.5533  0.1175
12190TIP3    H258062   3.255   3.250   1.773  0.0839 -3.2253 -2.5009
12191TIP3   OH258063   2.905   3.110  11.617 -0.0041  0.1414 -0.3472
12191TIP3    H158064   2.951   3.104  11.700 -0.9852  0.1324  0.2162
12191TIP3    H258065   2.861   3.196  11.620 -2.6465 -1.1173  0.5901
12192TIP3   OH258066   4.069   0.249  17.098  0.7325 -0.1073 -0.4453
12192TIP3    H158067   4.104   0.280  17.015  1.1715  0.3948 -0.0797
12192TIP3    H258068   4.030   0.164  17.077 -0.9834  0.9097 -1.5586
12193TIP3   OH258069   6.321   5.627  11.694  0.5304  0.1649  0.1293
12193TIP3    H158070   6.245   5.668  11.654  0.1928 -0.9220 -0.3930
12193TIP3    H258071   6.295   5.611  11.785  0.9107  1.6735  0.5202
12194TIP3   OH258072   3.065   6.764   0.934  0.7263 -0.0288 -0.6517
12194TIP3    H158073   3.142   6.807   0.971  1.6879 -0.7337 -1.7541
12194TIP3    H258074   2.991   6.815   0.966  1.6777  0.9455  0.0605
12195TIP3   OH258075   1.769   3.489  11.972  0.0099 -0.5556  0.2592
12195TIP3    H158076   1.791   3.532  11.888  1.0780 -1.4254  0.0701
12195TIP3    H258077   1.747   3.399  11.948 -0.8356 -0.4984  0.8023
12196TIP3   OH258078   5.554   0.863  16.766  0.2874  0.6074  0.0499
12196TIP3    H158079   5.527   0.772  16.767 -0.3368  0.7300  2.5361
12196TIP3    H258080   5.647   0.861  16.788 -0.1540  0.5757  2.1644
12197TIP3   OH258081   0.255   0.594  14.785 -0.1034  0.1220 -0.7437
12197TIP3    H158082   0.337   0.612  14.740 -0.7154  2.1578 -1.1716
12197TIP3    H258083   0.250   0.499  14.792  2.6008 -0.0308 -0.0594
12198TIP3   OH258084   2.804   5.089  17.219  0.1514  0.5450 -0.6627
12198TIP3    H158085   2.815   5.116  17.128 -0.2009 -1.6932 -1.4232
12198TIP3    H258086   2.864   5.146  17.268  0.7856  1.3898 -2.3453
12199TIP3   OH258087   6.339   3.657   2.170 -1.0748  0.3891  0.1626
12199TIP3    H158088   6.339   3.692   2.081  0.7274  0.7840  0.2713
12199TIP3    H258089   6.371   3.567   2.160  1.6883  1.2094  0.5750
12200TIP3   OH258090   0.049   0.025  15.446 -0.1646  0.0715  0.7414
12200TIP3    H158091  -0.015  -0.035  15.407  1.7534 -1.1792 -0.7344
12200TIP3    H258092   0.057  -0.004  15.537 -2.4002  0.9658  1.2987
12201TIP3   OH258093   6.756   1.336   0.847  0.5521 -0.3689  0.1878
12201TIP3    H158094   6.840   1.367   0.880 -0.5372  0.3201  2.5008
12201TIP3    H258095   6.702   1.326   0.925 -1.1298 -2.0680 -1.1109
12202TIP3   OH258096   4.448   0.567  13.896  0.2695  0.0566  1.1074
12202TIP3    H158097   4.542   0.582  13.898  0.6384 -1.4723 -1.0089
12202TIP3    H258098   4.437   0.478  13.930 -0.4611  0.3175  1.5902
12203TIP3   OH258099   5.628   3.600   1.495 -0.0230  0.1402 -0.8246
12203TIP3    H158100   5.558   3.568   1.438 -0.2009  0.8136 -0.9922
12203TIP3    H258101   5.600   3.574   1.583 -0.4540  0.3464 -0.8959
12204TIP3   OH258102   4.256   6.281  13.254 -0.3762  0.0663  0.3099
12204TIP3    H158103   4.197   6.217  13.214 -2.6680  0.6840  2.4810
12204TIP3    H258104   4.206   6.362  13.256  1.9469  1.6490 -1.0688
12205TIP3   OH258105   3.119   2.561  11.498  0.6781 -0.6254  0.3069
12205TIP3    H158106   3.075   2.545  11.414  1.2364 -1.3099  0.1326
12205TIP3    H258107   3.056   2.612  11.549 -1.3126 -3.4682  0.9295
12206TIP3   OH258108   3.041   0.574  14.067  0.2762  0.1404 -0.5466
12206TIP3    H158109   2.966   0.530  14.027  0.8307 -3.0460  1.4952
12206TIP3    H258110   3.008   0.607  14.150  0.6508  0.6304 -0.5881
12207TIP3   OH258111   2.053   4.190  16.202 -0.1292 -0.1561  0.2483
12207TIP3    H158112   1.958   4.186  16.217 -0.1916  1.6464  0.5641
12207TIP3    H258113   2.091   4.188  16.289  0.1412 -0.9145  0.1194
12208TIP3   OH258114   0.951   2.287   6.560 -0.0932 -0.0126  0.1622
12208TIP3    H158115   0.931   2.195   6.578 -0.3538  0.1088  0.5228
12208TIP3    H258116   1.038   2.286   6.522 -0.7352 -0.5498 -1.3499
12209TIP3   OH258117   3.591   1.215  11.645 -0.4985 -0.0101 -0.4718
12209TIP3    H158118   3.515   1.272  11.631 -0.0888  0.1486 -2.3109
12209TIP3    H258119   3.621   1.193  11.557  2.4731  1.1265  0.1281
12210TIP3   OH258120   2.528   0.571  13.806  0.1467  0.0051 -0.0391
12210TIP3    H158121   2.526   0.558  13.901  1.1945  3.3553  0.5459
12210TIP3    H258122   2.606   0.523  13.777 -0.7050 -1.8491  0.5667
12211TIP3   OH258123   2.415   0.196  15.241 -0.1175 -0.2237  0.3280
12211TIP3    H158124   2.472   0.119  15.239  0.2900  0.0808 -0.1262
12211TIP3    H258125   2.394   0.208  15.333 -0.4099 -1.0380  0.3822
12212TIP3   OH258126   2.720   3.709  10.855  0.1226  0.1593 -0.1325
12212TIP3    H158127   2.811   3.720  10.880  0.7568 -0.2176 -2.1104
12212TIP3    H258128   2.676   3.679  10.935  1.7181  0.3642  0.8495
12213TIP3   OH258129   1.041   6.070   4.717  0.3073  0.8611 -0.1390
12213TIP3    H158130   1.128   6.074   4.679 -0.0031  0.4717 -0.9157
12213TIP3    H258131   0.983   6.102   4.648 -0.3695 -0.7521 -0.3667
12214TIP3   OH258132   4.596   6.262   5.056  0.3913  0.2672  0.6909
12214TIP3    H158133   4.662   6.298   5.116 -0.0715 -0.0471  1.3978
12214TIP3    H258134   4.623   6.294   4.970  0.0901  2.2129  1.2607
12215TIP3   OH258135   2.373   3.248  11.327  0.4700 -0.5561 -0.4189
12215TIP3    H158136   2.455   3.232  11.374  0.7084 -0.6299 -0.8439
12215TIP3    H258137   2.396   3.232  11.235 -0.4084 -2.1247 -0.3987
12216TIP3   OH258138   3.584   5.161  15.561  0.8883  0.5171 -0.2350
12216TIP3    H158139   3.499   5.151  15.604  1.1419 -1.7784 -0.1865
12216TIP3    H258140   3.563   5.179  15.469  0.3757  3.7573  0.3652
12217TIP3   OH258141   2.021   2.387  12.342  0.0496 -0.3698 -0.3048
12217TIP3    H158142   2.081   2.363  12.272  0.5093  1.8577 -0.7435
12217TIP3    H258143   1.954   2.319  12.340  0.8255 -1.1383 -1.9542
12218TIP3   OH258144   4.538   3.544  11.327  0.1516 -0.2052 -0.2340
12218TIP3    H158145   4.533   3.448  11.328  1.7646 -0.3124  0.6431
12218TIP3    H258146   4.532   3.567  11.234  0.2010 -1.1985 -0.4997
12219TIP3   OH258147   4.686   1.800   3.766 -0.3673  0.3757  0.1947
12219TIP3    H158148   4.773   1.813   3.729  0.1767  1.1045  1.6771
12219TIP3    H258149   4.670   1.877   3.820 -1.9347  0.2419 -0.0197
12220TIP3   OH258150   1.161   6.000   1.752  0.4448 -0.0340  0.0907
12220TIP3    H158151   1.163   5.905   1.739 -3.1619 -0.8413  3.5412
12220TIP3    H258152   1.133   6.035   1.667 -0.1689 -2.2919 -0.7223
12221TIP3   OH258153   4.514   4.549  13.688  0.5568 -0.1126 -0.1325
12221TIP3    H158154   4.458   4.609  13.639  0.2910 -0.9707 -0.9227
12221TIP3    H258155   4.589   4.601  13.714  1.7530 -0.0605 -3.2503
12222TIP3   OH258156   5.449   3.296   6.211  0.0767 -0.2694  0.3597
12222TIP3    H158157   5.389   3.243   6.263  0.0950 -0.9127 -0.2564
12222TIP3    H258158   5.474   3.368   6.269  0.0464 -0.9287  1.2176
12223TIP3   OH258159   0.880   0.703   2.732 -0.3335  0.8175 -0.6235
12223TIP3    H158160   0.860   0.793   2.705  0.3140  1.2332  0.2255
12223TIP3    H258161   0.934   0.668   2.661 -1.7008  0.6277 -1.6021
12224TIP3   OH258162   1.096   2.290   5.340  0.6631 -0.0584  0.0208
12224TIP3    H158163   1.160   2.219   5.346  0.2155 -0.3931  3.9566
12224TIP3    H258164   1.012   2.244   5.335  0.5322  0.3200 -1.5918
12225TIP3   OH258165   3.227   3.931  14.482 -0.3926  0.2784 -0.4622
12225TIP3    H158166   3.155   3.988  14.454 -1.6362 -0.7392  0.4962
12225TIP3    H258167   3.201   3.902  14.570  2.6727  2.2413  1.2612
12226TIP3   OH258168   6.793   4.028  17.225 -0.2516  1.3392 -0.1553
12226TIP3    H158169   6.874   4.067  17.191 -0.8273  1.6233 -1.2176
12226TIP3    H258170   6.796   3.937  17.195 -0.6633  1.5378 -0.8118
12227TIP3   OH258171   3.935   6.715  15.912 -0.4796 -0.5345  0.3626
12227TIP3    H158172   3.843   6.702  15.933 -1.1393  1.9549 -0.6450
12227TIP3    H258173   3.938   6.717  15.817  0.6952 -1.0305  0.3784
12228TIP3   OH258174   1.633   0.382  14.784  0.3788  0.2833 -0.1955
12228TIP3    H158175   1.694   0.375  14.710  1.5193  1.2404  0.6142
12228TIP3    H258176   1.555   0.336  14.755  1.0312  0.0987 -1.7630
12229TIP3   OH258177   1.114   4.250  13.063 -0.1078 -0.0859 -0.3613
12229TIP3    H158178   1.152   4.338  13.062 -0.8601  0.3494  2.1164
12229TIP3    H258179   1.032   4.259  13.113 -1.0982 -1.8850 -1.5190
12230TIP3   OH258180   2.801   0.830   2.987 -0.4081  0.0481  0.0547
12230TIP3    H158181   2.872   0.894   2.982  0.1714 -0.3246  2.1516
12230TIP3    H258182   2.823   0.764   2.921 -0.3622  1.3630 -1.2799
12231TIP3   OH258183   5.658   3.071   1.504  0.0109  0.8681 -0.6076
12231TIP3    H158184   5.675   3.130   1.577  2.0117 -0.5035  0.1290
12231TIP3    H258185   5.716   3.103   1.434  1.6123 -0.5168  0.0153
12232TIP3   OH258186   0.122   0.330   2.412  0.2159  0.0999 -0.0750
12232TIP3    H158187   0.086   0.242   2.426 -2.0020  1.0504  0.6367
12232TIP3    H258188   0.162   0.353   2.495  0.2784 -0.0142 -0.0734
12233TIP3   OH258189   4.361   2.968   4.105  0.3229  0.0002 -0.3947
12233TIP3    H158190   4.292   2.916   4.147  1.3756  0.0340  1.4622
12233TIP3    H258191   4.360   2.938   4.014 -0.1833 -2.1259  0.2466
12234TIP3   OH258192   4.173   6.111  11.002  0.2642  0.0776  0.3388
12234TIP3    H158193   4.138   6.092  10.915  2.7937 -2.2687 -0.3079
12234TIP3    H258194   4.163   6.206  11.012 -0.8805  0.2990 -2.1247
12235TIP3   OH258195   2.560   3.249   0.183  0.4603  0.0116  0.8389
12235TIP3    H158196   2.647   3.247   0.144  0.1249  1.5566 -0.0735
12235TIP3    H258197   2.544   3.160   0.213  1.4120 -0.8467 -1.0877
12236TIP3   OH258198   0.503   0.527  16.330 -0.1184  0.2303  0.6385
12236TIP3    H158199   0.421   0.519  16.282  0.7435  0.5139 -0.9499
12236TIP3    H258200   0.534   0.437  16.340  0.7191  0.2681 -1.2484
12237TIP3   OH258201   1.317   1.977   4.510 -0.7074  0.0370 -0.6073
12237TIP3    H158202   1.319   1.903   4.571 -1.1951 -0.4444 -1.1599
12237TIP3    H258203   1.370   2.044   4.552 -1.7434  0.0485  0.7780
12238TIP3   OH258204   0.569   4.985  15.899 -0.5456  0.2976 -0.2073
12238TIP3    H158205   0.493   4.945  15.942 -0.5996 -0.4312 -0.9624
12238TIP3    H258206   0.569   5.075  15.930  0.0168 -0.4358  2.1598
12239TIP3   OH258207   5.486   3.395  11.850 -0.4096  0.2165 -0.3920
12239TIP3    H158208   5.402   3.415  11.809 -0.8361 -2.4581 -0.9979
12239TIP3    H258209   5.549   3.396  11.778 -0.3168 -0.0129 -0.3123
12240TIP3   OH258210   5.287   6.386  16.120 -0.1710 -0.4892  0.5167
12240TIP3    H158211   5.226   6.317  16.145 -0.4326 -0.2356  0.5797
12240TIP3    H258212   5.234   6.450  16.072  0.3016 -0.9221 -0.6124
12241TIP3   OH258213   2.339   3.019  14.278  0.0652  0.3969 -0.4303
12241TIP3    H158214   2.412   3.012  14.340  0.2321 -0.6542 -0.7178
12241TIP3    H258215   2.265   3.046  14.332 -0.0983 -1.7373  0.5320
12242TIP3   OH258216   3.695   2.282   1.178 -0.0521 -0.2185 -0.7499
12242TIP3    H158217   3.633   2.340   1.135 -0.4672 -0.9951 -1.2147
12242TIP3    H258218   3.735   2.336   1.247 -1.2985  0.2643 -0.3837
12243TIP3   OH258219   1.724   3.248  12.403 -0.0925  0.1297 -0.0217
12243TIP3    H158220   1.663   3.290  12.342  0.6427  1.9024  0.3843
12243TIP3    H258221   1.691   3.272  12.490  0.3633 -0.1087  0.2214
12244TIP3   OH258222   1.163   2.051   0.947  0.1050  0.2171  0.2725
12244TIP3    H158223   1.082   2.081   0.987 -1.3232 -2.9984  0.1211
12244TIP3    H258224   1.221   2.032   1.021  0.1845  1.0844  0.4432
12245TIP3   OH258225   1.719   2.123  11.729  0.2687  0.2734  0.0487
12245TIP3    H158226   1.710   2.046  11.673 -1.8203  2.2820 -2.7129
12245TIP3    H258227   1.802   2.111  11.775  1.3975 -2.2904 -2.3737
12246TIP3   OH258228   1.492   4.918   2.359 -0.3427 -0.2529  0.5432
12246TIP3    H158229   1.429   4.918   2.287 -1.0169  1.5150  1.0731
12246TIP3    H258230   1.502   4.825   2.382 -3.5255 -0.5917  1.0630
12247TIP3   OH258231   2.719   2.356  14.552 -0.0698 -0.0471 -0.5516
12247TIP3    H158232   2.758   2.286  14.603 -0.8869 -0.8815 -1.0194
12247TIP3    H258233   2.626   2.354  14.576 -0.4605 -0.4072 -1.9468
12248TIP3   OH258234   3.915   5.401   3.778  0.6688  0.3538 -0.0237
12248TIP3    H158235   3.848   5.411   3.846  0.6488  0.1091 -0.0058
12248TIP3    H258236   3.949   5.312   3.792  1.3269  0.6460  0.2683
12249TIP3   OH258237   6.113   4.048  16.102  0.4171 -0.5991  0.6276
12249TIP3    H158238   6.111   4.091  16.016  0.3893 -0.2396  0.8079
12249TIP3    H258239   6.164   3.969  16.087  0.6628 -0.3898  0.3451
12250TIP3   OH258240   1.929   3.446   4.164  0.5124 -0.5170 -0.1370
12250TIP3    H158241   1.905   3.354   4.164 -0.1408 -0.3630 -1.2427
12250TIP3    H258242   1.848   3.492   4.187  0.5573 -0.1587 -0.6835
12251TIP3   OH258243   0.569   6.354  12.586  0.1829 -0.0150  0.0593
12251TIP3    H158244   0.569   6.450  12.584  0.1971 -0.0245 -0.4543
12251TIP3    H258245   0.641   6.329  12.528 -0.1984 -0.3459 -0.2796
12252TIP3   OH258246   6.477   0.263   0.012  0.1908 -0.1105 -0.6995
12252TIP3    H158247   6.424   0.222   0.081 -0.8537 -0.2167 -1.5196
12252TIP3    H258248   6.425   0.339  -0.015  1.4672  0.9972 -0.1297
12253TIP3   OH258249   1.147   3.828   4.964 -0.0780  0.3194 -0.1094
12253TIP3    H158250   1.170   3.908   4.917 -0.8966  0.3565 -0.4734
12253TIP3    H258251   1.200   3.830   5.044  0.4509  0.8511 -0.4707
12254TIP3   OH258252   6.328   5.278  11.867 -0.0637  0.4999  0.3477
12254TIP3    H158253   6.251   5.243  11.821 -1.3130  2.1388  1.0899
12254TIP3    H258254   6.379   5.322  11.798 -0.1230 -0.0316 -0.0381
12255TIP3   OH258255   3.796   4.015   4.395  0.2052 -0.3117  0.2646
12255TIP3    H158256   3.851   3.957   4.446  1.1283  0.5251  0.2465
12255TIP3    H258257   3.821   4.103   4.423 -0.8415  0.1048 -0.0328
12256TIP3   OH258258   3.042   5.154   5.297  0.1942  0.2259 -0.4833
12256TIP3    H158259   3.116   5.190   5.248 -0.6156  0.4658 -1.5806
12256TIP3    H258260   3.051   5.192   5.384 -0.2525  2.6825 -1.4014
12257TIP3   OH258261   5.772   0.572  11.722  0.0306  1.0338  0.0758
12257TIP3    H158262   5.804   0.661  11.734  1.0535  0.9801 -1.8241
12257TIP3    H258263   5.723   0.574  11.640  0.4901 -0.2356 -0.2608
12258TIP3   OH258264   4.279   6.040   2.791  0.3895 -0.2601  0.0362
12258TIP3    H158265   4.297   6.072   2.702 -0.4762  1.5951  0.4846
12258TIP3    H258266   4.213   5.972   2.779 -1.2269  1.3582 -0.6287
12259TIP3   OH258267   6.200   2.950  12.611 -0.0080 -0.6128  0.0052
12259TIP3    H158268   6.178   2.863  12.646 -1.7232 -0.3972 -0.4331
12259TIP3    H258269   6.162   2.950  12.523 -0.2538  0.6638  0.0989
12260TIP3   OH258270   5.502   3.783  10.529 -0.3609  0.2243  0.1874
12260TIP3    H158271   5.545   3.700  10.509  1.9767  1.6864 -1.4370
12260TIP3    H258272   5.417   3.777  10.486 -0.7464 -1.7174  1.0987
12261TIP3   OH258273   2.502   0.410   4.208 -0.3596 -0.0824 -0.0783
12261TIP3    H158274   2.461   0.481   4.160  1.5622 -0.5351 -2.5986
12261TIP3    H258275   2.590   0.443   4.229 -0.0491 -1.0823  0.2466
12262TIP3   OH258276   3.609   6.338  13.008 -0.0497 -0.5630  0.2232
12262TIP3    H158277   3.572   6.377  12.929  1.1041 -1.6556 -0.9081
12262TIP3    H258278   3.547   6.269  13.031 -0.6561  0.0922  0.5988
12263TIP3   OH258279   3.368   6.012   4.861 -0.1010  0.7852 -0.2472
12263TIP3    H158280   3.454   6.041   4.891  0.8036 -1.7769 -0.0895
12263TIP3    H258281   3.364   6.039   4.769  1.2439  0.2229 -0.4917
12264TIP3   OH258282   4.450   1.252   1.422 -0.1215 -0.7339 -0.2641
12264TIP3    H158283   4.448   1.163   1.457 -1.0542  0.1499  2.1080
12264TIP3    H258284   4.457   1.240   1.327 -2.5129 -3.3995 -0.2576
12265TIP3   OH258285   0.104   0.282  12.106  0.1945 -0.0381  0.7111
12265TIP3    H158286   0.037   0.232  12.059 -0.1146  0.0691  1.0291
12265TIP3    H258287   0.161   0.216  12.145  0.7211 -0.1274 -0.1830
12266TIP3   OH258288   1.992   0.794   2.079 -0.3108 -0.3649  0.1988
12266TIP3    H158289   1.934   0.728   2.116 -1.4532 -0.4900 -1.6606
12266TIP3    H258290   1.935   0.846   2.021  1.5199 -1.0442 -2.3883
12267TIP3   OH258291   3.696   1.286   3.313  0.5709  0.2577 -0.1546
12267TIP3    H158292   3.721   1.211   3.260  1.3139  0.6175 -0.3178
12267TIP3    H258293   3.651   1.345   3.252  1.1371  0.5245 -0.3207
12268TIP3   OH258294   4.829   1.556   3.468 -0.1628  0.5462 -0.2894
12268TIP3    H158295   4.784   1.641   3.468 -2.0323 -0.3965 -0.6365
12268TIP3    H258296   4.859   1.545   3.558 -0.9991  1.0272  0.0627
12269TIP3   OH258297   2.537   1.975   3.419  0.1002 -0.1717  0.0004
12269TIP3    H158298   2.477   1.982   3.494 -0.9688  0.6775 -0.8939
12269TIP3    H258299   2.560   1.882   3.415 -0.2000 -0.3055  1.0882
12270TIP3   OH258300   3.052   4.297  14.594  0.2261 -0.1503 -0.1108
12270TIP3    H158301   3.074   4.388  14.615  0.7781 -0.3797  0.3357
12270TIP3    H258302   3.106   4.245  14.653  1.1076 -0.8175 -1.4610
12271TIP3   OH258303   5.792   1.883  13.004 -0.0635 -0.1602 -0.3739
12271TIP3    H158304   5.737   1.916  12.933  0.2852  0.7298 -0.2450
12271TIP3    H258305   5.881   1.884  12.969 -0.1260 -1.6357 -0.5962
12272TIP3   OH258306   1.702   4.569   1.138  0.4034  0.1757 -0.2072
12272TIP3    H158307   1.634   4.598   1.077  1.2026 -0.8463 -1.6695
12272TIP3    H258308   1.663   4.579   1.225 -1.3025  0.3743 -0.9538
12273TIP3   OH258309   2.461   0.289  12.989 -0.3741 -0.8783 -0.2281
12273TIP3    H158310   2.556   0.293  12.976 -0.5243 -1.5438 -1.6452
12273TIP3    H258311   2.450   0.281  13.084  0.8393  2.6626  0.3806
12274TIP3   OH258312   6.656   6.812   3.105  0.1542 -0.4069 -0.1517
12274TIP3    H158313   6.593   6.859   3.159 -0.5658 -1.5933  0.0808
12274TIP3    H258314   6.635   6.839   3.015  0.2401  0.2688  0.0238
12275TIP3   OH258315   0.168   3.781  14.083 -0.7912  0.3122  0.0120
12275TIP3    H158316   0.095   3.733  14.122 -0.0783  0.0728  1.1050
12275TIP3    H258317   0.159   3.870  14.118 -0.2503  0.1410  0.6049
12276TIP3   OH258318   4.697   2.075  12.558 -0.2503  0.1297  0.3630
12276TIP3    H158319   4.709   2.109  12.469 -2.3015 -0.9735 -0.4049
12276TIP3    H258320   4.602   2.081  12.573 -0.2598 -1.9721  1.5149
12277TIP3   OH258321   4.037   6.359  14.975  0.3046  0.4760  0.4329
12277TIP3    H158322   4.042   6.272  14.936 -0.0613  0.7933 -0.3318
12277TIP3    H258323   4.072   6.418  14.908 -0.0568  0.9900  0.6889
12278TIP3   OH258324   6.175   2.722   0.484  0.5683 -0.3352  0.5862
12278TIP3    H158325   6.221   2.694   0.563  0.0205  0.0361  1.0498
12278TIP3    H258326   6.147   2.641   0.441  1.2720 -0.5475  0.5315
12279TIP3   OH258327   6.297   5.434  12.593 -0.0478  0.6418 -0.3176
12279TIP3    H158328   6.243   5.441  12.515  0.8059  2.8654 -0.7679
12279TIP3    H258329   6.373   5.383  12.565 -1.3613 -1.6788  0.0773
12280TIP3   OH258330   5.731   6.499  11.966  0.5001 -0.2771 -0.1301
12280TIP3    H158331   5.782   6.573  11.933 -0.1452  1.0054  1.6286
12280TIP3    H258332   5.645   6.510  11.927  0.1013  0.5202  0.9481
12281TIP3   OH258333   0.091   0.819  16.106 -0.0790  0.1525 -0.0554
12281TIP3    H158334   0.096   0.874  16.184  1.0754  0.3920 -0.2779
12281TIP3    H258335   0.150   0.746  16.124 -0.5592 -0.3150 -0.3202
12282TIP3   OH258336   6.243   6.072   5.370  0.2723  0.9031 -0.3882
12282TIP3    H158337   6.260   6.163   5.345 -0.9105  1.8347  1.9172
12282TIP3    H258338   6.255   6.070   5.465  0.0801 -1.3351 -0.3465
12283TIP3   OH258339   4.323   6.369   6.122 -0.5212 -0.0803 -0.3541
12283TIP3    H158340   4.360   6.294   6.076  1.4542  1.3145 -1.1695
12283TIP3    H258341   4.399   6.420   6.150 -1.7770  1.0810  1.1408
12284TIP3   OH258342   5.190   0.652  14.676  0.1216 -0.4169 -0.4131
12284TIP3    H158343   5.153   0.711  14.610  1.0703 -1.3079 -1.7585
12284TIP3    H258344   5.127   0.657  14.749 -1.4012 -0.0763 -1.6930
12285TIP3   OH258345   6.018   5.180   1.113 -0.3986  0.0917 -0.2401
12285TIP3    H158346   5.945   5.127   1.145  0.1245 -0.2636  0.3796
12285TIP3    H258347   6.071   5.120   1.061  0.1545  0.0251  0.3977
12286TIP3   OH258348   0.225   4.791  14.194 -0.2700 -0.1762  0.0323
12286TIP3    H158349   0.172   4.787  14.115  0.9274  0.9922 -0.8741
12286TIP3    H258350   0.211   4.880  14.228  0.8596  0.0619 -0.0788
12287TIP3   OH258351   2.270   2.408  15.326  0.2715  0.2750 -0.1935
12287TIP3    H158352   2.307   2.321  15.343 -0.6031 -0.0396  0.1376
12287TIP3    H258353   2.337   2.452  15.273  1.2429 -0.1754  0.6221
12288TIP3   OH258354   4.237   2.896   1.684 -0.3336  0.5671  0.7235
12288TIP3    H158355   4.161   2.857   1.727 -1.5398 -0.2596 -1.9086
12288TIP3    H258356   4.289   2.821   1.655 -0.3792  0.9964 -0.5385
12289TIP3   OH258357   5.097   5.768  13.804  0.9401 -0.3505  0.4841
12289TIP3    H158358   5.044   5.688  13.799 -0.2709  0.4955 -0.7991
12289TIP3    H258359   5.105   5.798  13.714  0.8265  1.3283  0.9996
12290TIP3   OH258360   6.515   3.261   2.614  0.3580 -0.0213 -0.3921
12290TIP3    H158361   6.570   3.210   2.554  0.2551 -0.7042  0.0823
12290TIP3    H258362   6.426   3.231   2.596  0.2185  0.5137 -0.6072
12291TIP3   OH258363   5.389   4.132   0.797 -0.8776  0.0261  0.5097
12291TIP3    H158364   5.446   4.209   0.789 -2.3430  1.0030 -1.6941
12291TIP3    H258365   5.318   4.161   0.855 -0.2345 -0.4930  1.5800
12292TIP3   OH258366   5.634   3.800  12.673  0.2941  0.7872  0.1733
12292TIP3    H158367   5.701   3.792  12.740  0.1473  0.7821  0.3185
12292TIP3    H258368   5.649   3.887  12.635 -1.1812  1.8423  1.8863
12293TIP3   OH258369   1.450   0.043   3.865  0.2406 -0.4232 -0.0535
12293TIP3    H158370   1.390   0.046   3.790 -0.6179 -0.1851  0.6288
12293TIP3    H258371   1.403   0.088   3.935  0.4878 -1.7776  1.0236
12294TIP3   OH258372   5.783   0.414   1.044  0.2395 -0.1849 -0.3310
12294TIP3    H158373   5.744   0.376   1.123  0.7087 -1.0902 -0.5179
12294TIP3    H258374   5.780   0.343   0.980  1.6658 -0.0944 -0.5230
12295TIP3   OH258375   2.170   0.491  15.187 -0.2977 -0.3123  0.0767
12295TIP3    H158376   2.090   0.531  15.221  0.3934  0.2025  1.1387
12295TIP3    H258377   2.187   0.419  15.247  0.6590  0.2919  0.5466
12296TIP3   OH258378   4.755   1.576   1.812  0.3599  0.0823  0.1691
12296TIP3    H158379   4.805   1.647   1.773 -1.4294  1.7737  0.7733
12296TIP3    H258380   4.783   1.574   1.904  0.7785 -0.3681  0.0382
12297TIP3   OH258381   3.819   3.155  13.515 -0.3636 -0.0699  0.3336
12297TIP3    H158382   3.895   3.173  13.460 -0.6523  1.5237  0.4008
12297TIP3    H258383   3.796   3.240  13.552 -1.2359 -0.8090  1.5456
12298TIP3   OH258384   5.825   5.637   2.692 -0.3545 -0.1991  0.1124
12298TIP3    H158385   5.911   5.656   2.728 -0.0331  1.5006 -1.3738
12298TIP3    H258386   5.764   5.660   2.762  0.3608 -1.0468  1.0394
12299TIP3   OH258387   2.112   4.544  11.057 -0.1192  1.1134  0.2857
12299TIP3    H158388   2.133   4.474  10.995 -0.0813  2.9473 -1.9188
12299TIP3    H258389   2.063   4.607  11.005 -2.7283  1.4373  2.9186
12300TIP3   OH258390   0.265   5.030   6.813 -0.1214 -0.1606  0.7672
12300TIP3    H158391   0.186   4.977   6.803  1.4409 -2.3110 -1.4979
12300TIP3    H258392   0.236   5.119   6.792 -2.4091 -0.3649  2.6086
12301TIP3   OH258393   0.003   0.765   0.232 -0.4668 -0.7091  0.2405
12301TIP3    H158394  -0.036   0.841   0.274 -1.8174 -0.4778 -1.3136
12301TIP3    H258395  -0.062   0.695   0.243  0.1546 -1.2614  0.4776
12302TIP3   OH258396   5.113   6.178  15.803  0.1441 -0.8171  1.0074
12302TIP3    H158397   5.035   6.165  15.750  1.2898 -2.4870 -0.4030
12302TIP3    H258398   5.098   6.260  15.849 -1.9680 -0.5616 -0.0301
12303TIP3   OH258399   4.673   1.074  12.441 -0.4889 -0.0035 -0.7216
12303TIP3    H158400   4.606   1.008  12.426 -0.5396  0.2884 -1.9001
12303TIP3    H258401   4.725   1.040  12.514 -3.4058  0.9390  2.0316
12304TIP3   OH258402   6.462   5.888  12.171  0.2291 -1.1744  0.0569
12304TIP3    H158403   6.472   5.896  12.266  1.3502 -0.0396 -0.1408
12304TIP3    H258404   6.531   5.942  12.134 -0.0479 -1.7775 -1.4269
12305TIP3   OH258405   0.163   3.561   1.585  0.2691  0.0787 -0.2379
12305TIP3    H158406   0.247   3.568   1.539  0.9508 -0.7742  0.8431
12305TIP3    H258407   0.163   3.633   1.648 -0.1126  0.4731 -0.6755
12306TIP3   OH258408   5.583   3.663   4.152  0.1320 -0.0244  0.4083
12306TIP3    H158409   5.584   3.733   4.217 -1.4675  0.2447  0.1784
12306TIP3    H258410   5.576   3.582   4.203  1.0904  0.0233  0.6348
12307TIP3   OH258411   3.276   4.651  11.556 -0.3603 -0.8207  0.1939
12307TIP3    H158412   3.296   4.622  11.645  0.2913 -0.6862  0.0902
12307TIP3    H258413   3.355   4.631  11.505 -0.3727 -0.0179 -0.1505
12308TIP3   OH258414   5.821   6.336  13.948  1.0744  0.2095 -0.2501
12308TIP3    H158415   5.770   6.392  13.889  0.4558 -1.3945 -1.3005
12308TIP3    H258416   5.816   6.381  14.032 -1.4761  0.5253 -0.4812
12309TIP3   OH258417   4.222   5.170   6.915  0.6106 -0.2483  0.2144
12309TIP3    H158418   4.148   5.197   6.860  0.9051  1.4990  0.6060
12309TIP3    H258419   4.182   5.145   6.998  0.3524 -0.8282 -0.0722
12310TIP3   OH258420   2.844   4.585  10.431  0.0806  0.2580  0.7430
12310TIP3    H158421   2.807   4.498  10.445  0.2487  0.1815  0.7150
12310TIP3    H258422   2.809   4.638  10.503  0.0596  0.1422  0.8183
12311TIP3   OH258423   5.334   2.697  16.156  0.0169  0.1734  0.4617
12311TIP3    H158424   5.287   2.708  16.074  1.2879 -2.2383 -0.7193
12311TIP3    H258425   5.415   2.746  16.144  0.5330 -0.7805 -0.0714
12312TIP3   OH258426   2.335   1.978   3.588  0.0195  0.3812  0.0587
12312TIP3    H158427   2.314   1.924   3.511  0.7118 -1.4428  1.0950
12312TIP3    H258428   2.252   2.021   3.609 -0.9536 -1.3452 -0.0229
12313TIP3   OH258429   1.805   3.623  13.443 -0.6819 -0.0725  0.1374
12313TIP3    H158430   1.709   3.625  13.452 -1.1508 -1.9305 -2.9890
12313TIP3    H258431   1.830   3.537  13.476 -0.4739 -0.6325 -1.4274
12314TIP3   OH258432   1.759   3.752  16.558 -0.1920  0.1854 -0.1324
12314TIP3    H158433   1.700   3.827  16.551 -0.6264 -0.0399  0.9475
12314TIP3    H258434   1.760   3.730  16.651  0.7723 -0.4811 -0.2798
12315TIP3   OH258435   4.354   6.801   2.167 -0.5323  0.1091  0.6881
12315TIP3    H158436   4.346   6.708   2.188 -0.1964  0.0431  0.5308
12315TIP3    H258437   4.399   6.803   2.083 -1.2128  0.3973  0.3242
12316TIP3   OH258438   5.995   3.462  13.957  0.0839  0.5251  0.2139
12316TIP3    H158439   5.910   3.423  13.978  0.5648 -0.3432  0.6111
12316TIP3    H258440   5.982   3.556  13.970 -0.4553  0.2805  1.5608
12317TIP3   OH258441   3.772   4.822   4.683  0.3611 -0.3358  0.2034
12317TIP3    H158442   3.777   4.912   4.716  3.4524 -0.8257  1.4212
12317TIP3    H258443   3.863   4.798   4.666 -0.5694 -2.3429 -2.7889
12318TIP3   OH258444   2.328   1.598   2.624 -0.5872 -0.3864 -0.4974
12318TIP3    H158445   2.287   1.514   2.648  0.1331 -0.0659  2.1825
12318TIP3    H258446   2.420   1.588   2.648 -0.5024  1.1969 -0.0601
12319TIP3   OH258447   0.432   0.533   2.618 -0.4028 -0.1746 -0.6813
12319TIP3    H158448   0.425   0.458   2.560 -2.7491  0.1337 -0.9082
12319TIP3    H258449   0.436   0.609   2.559  3.0007 -0.0746 -0.4854
12320TIP3   OH258450   6.217   0.367  16.212 -0.2837 -0.1543 -0.1384
12320TIP3    H158451   6.145   0.337  16.156 -0.2494  1.0266 -0.8606
12320TIP3    H258452   6.232   0.458  16.185  2.6377 -0.8288 -1.2818
12321TIP3   OH258453   5.483   1.745  11.779 -0.7067 -0.0680  0.6289
12321TIP3    H158454   5.489   1.744  11.684  0.8349  1.6221  0.6369
12321TIP3    H258455   5.426   1.820  11.799 -0.1263  0.2903  1.0141
12322TIP3   OH258456   1.799   5.860   0.567 -0.2937 -0.6729 -0.3910
12322TIP3    H158457   1.870   5.818   0.518 -0.6742 -0.5262 -1.0668
12322TIP3    H258458   1.773   5.935   0.514 -0.7749 -0.5663 -0.0137
12323TIP3   OH258459   2.416   5.968   3.334  0.1457 -0.4043  0.0095
12323TIP3    H158460   2.376   5.885   3.309  1.1495 -1.1337  0.7571
12323TIP3    H258461   2.433   6.013   3.251 -0.7349 -0.7647 -0.3838
12324TIP3   OH258462   0.630   2.726  11.945 -0.0061  0.7871 -0.0356
12324TIP3    H158463   0.595   2.800  11.994 -2.0280 -0.5853  0.7121
12324TIP3    H258464   0.556   2.667  11.933  1.9099 -2.1528  1.2782
12325TIP3   OH258465   1.477   4.531  15.269  0.2793  0.2562  0.4665
12325TIP3    H158466   1.388   4.554  15.244 -0.6995 -0.6610  2.8533
12325TIP3    H258467   1.478   4.435  15.267  1.1054  0.2520  0.8078
12326TIP3   OH258468   1.239   1.541   4.435  0.2005 -0.0855 -0.7598
12326TIP3    H158469   1.274   1.506   4.354 -0.7245 -1.2685 -0.6827
12326TIP3    H258470   1.148   1.509   4.437  0.7180 -1.6947  1.5930
12327TIP3   OH258471   6.262   5.887  11.105 -0.0227 -0.6804 -0.1992
12327TIP3    H158472   6.235   5.928  11.022  1.6740 -1.3498 -1.1325
12327TIP3    H258473   6.286   5.798  11.081  2.5367 -0.2878  0.5685
12328TIP3   OH258474   5.018   4.923  13.442  0.1100  0.0479 -0.3493
12328TIP3    H158475   4.980   4.978  13.374 -0.6335 -0.1074 -0.0721
12328TIP3    H258476   5.109   4.911  13.416 -0.4250 -0.8774 -1.8817
12329TIP3   OH258477   3.622   0.204  16.982 -1.0669  0.3202 -0.5926
12329TIP3    H158478   3.686   0.273  16.964  0.2668 -0.8337 -0.4431
12329TIP3    H258479   3.573   0.195  16.901  0.8537 -0.6585 -1.7388
12330TIP3   OH258480   3.652   1.704   5.900 -0.0879 -0.3991 -0.0280
12330TIP3    H158481   3.673   1.781   5.846  1.1389 -1.1348 -0.6674
12330TIP3    H258482   3.561   1.685   5.880  0.3893 -0.8068 -2.1381
12331TIP3   OH258483   2.472   4.608   1.774 -0.4206  0.4139 -0.3121
12331TIP3    H158484   2.547   4.663   1.795  0.0741  0.3406 -1.8100
12331TIP3    H258485   2.426   4.655   1.705 -0.7472 -0.3993 -0.6622
12332TIP3   OH258486   5.615   3.983   0.759 -0.4533  0.1014  0.1518
12332TIP3    H158487   5.580   3.901   0.724 -0.9303  1.3577 -2.6151
12332TIP3    H258488   5.538   4.037   0.773 -0.0963  0.3276  1.3251
12333TIP3   OH258489   6.604   4.740   5.273 -0.4700 -0.0722 -0.2067
12333TIP3    H158490   6.644   4.669   5.323  0.5564  0.5431 -0.1268
12333TIP3    H258491   6.517   4.707   5.251 -0.1444 -1.2192  0.1174
12334TIP3   OH258492   0.401   1.041  12.556 -0.0180 -0.2406  0.4799
12334TIP3    H158493   0.469   1.102  12.526 -0.8250  0.1363 -0.6260
12334TIP3    H258494   0.333   1.046  12.490 -0.9477 -0.9462  1.3499
12335TIP3   OH258495   2.425   4.960  15.619  0.1018 -0.4733  0.3118
12335TIP3    H158496   2.377   5.031  15.661  0.9403  0.8122 -0.8392
12335TIP3    H258497   2.482   4.925  15.688 -2.4901 -2.1521  1.7688
12336TIP3   OH258498   4.241   3.973   3.394 -0.3181  0.5879  0.0406
12336TIP3    H158499   4.171   4.038   3.405  0.6092  1.4712  0.9389
12336TIP3    H258500   4.201   3.904   3.341 -2.2910  0.4000  1.6566
12337TIP3   OH258501   2.590   4.431   6.569 -0.7633  0.0769  0.0691
12337TIP3    H158502   2.603   4.525   6.552  0.3213 -0.2118 -0.7778
12337TIP3    H258503   2.538   4.429   6.649  0.7269  1.3871  1.1405
12338TIP3   OH258504   5.394   3.032  13.830  0.6933  0.2018  0.5127
12338TIP3    H158505   5.377   2.945  13.793  1.4284  0.6048 -0.8756
12338TIP3    H258506   5.467   3.020  13.891  1.7482  0.0328 -0.7279
12339TIP3   OH258507   1.081   6.299  11.358 -0.2472  0.5152 -0.1482
12339TIP3    H158508   1.051   6.249  11.283 -0.4873  3.0222 -1.8574
12339TIP3    H258509   1.176   6.285  11.360 -0.5007 -1.2501  0.4347
12340TIP3   OH258510   1.077   3.238  16.838 -0.2960  0.6603 -0.7377
12340TIP3    H158511   1.100   3.159  16.885 -1.0449  0.5616 -0.5128
12340TIP3    H258512   1.143   3.246  16.769 -0.0797 -0.0251 -0.6140
12341TIP3   OH258513   4.088   2.937   0.770  0.7246 -0.4341  0.6647
12341TIP3    H158514   4.002   2.900   0.751  0.7085 -0.2987  0.4722
12341TIP3    H258515   4.085   3.025   0.732  0.7776 -0.2503  1.0790
12342TIP3   OH258516   1.803   1.190  12.755  0.0411  0.0869  0.7738
12342TIP3    H158517   1.733   1.213  12.695 -0.2239  1.9973  1.7326
12342TIP3    H258518   1.782   1.237  12.836  2.6966  1.2217  0.9216
12343TIP3   OH258519   2.161   1.832   2.239  0.5439  0.1278  0.1689
12343TIP3    H158520   2.190   1.813   2.328  0.5029  0.2003  0.1977
12343TIP3    H258521   2.101   1.761   2.217  0.3546  0.2491  0.2929
12344TIP3   OH258522   4.940   1.877   3.344 -0.5638 -0.5179 -0.4009
12344TIP3    H158523   4.860   1.825   3.338 -0.9976 -0.0608  1.0721
12344TIP3    H258524   4.914   1.956   3.392  0.7166 -0.2266 -0.1442
12345TIP3   OH258525   1.827   1.655   5.621 -0.0978  0.4946  0.5215
12345TIP3    H158526   1.770   1.688   5.691 -2.4013 -1.3632 -0.3142
12345TIP3    H258527   1.823   1.559   5.631  1.8872  0.2706 -0.4052
12346TIP3   OH258528   3.982   4.734   0.794  0.1260 -0.0032  0.2154
12346TIP3    H158529   3.900   4.689   0.817  0.3535 -0.3872  0.2693
12346TIP3    H258530   3.956   4.797   0.726  0.2145 -1.8266 -1.5955
12347TIP3   OH258531   3.839   0.681  14.139  0.2011  0.1890  1.0475
12347TIP3    H158532   3.913   0.647  14.088  0.1739  0.6629  0.6928
12347TIP3    H258533   3.764   0.675  14.079  0.1885  0.8350  0.9981
12348TIP3   OH258534   5.578   1.648  14.235  0.1321  0.5667  0.0506
12348TIP3    H158535   5.636   1.629  14.161 -0.2537 -1.5004  0.2382
12348TIP3    H258536   5.492   1.660  14.195 -0.2546 -1.4350  0.1738
12349TIP3   OH258537   0.272   1.305   3.188  0.0047  0.0094  0.0253
12349TIP3    H158538   0.316   1.378   3.145  1.1896  0.0159  1.1762
12349TIP3    H258539   0.270   1.236   3.122 -1.7762  1.2447 -1.3282
12350TIP3   OH258540   1.244   0.419   0.109  0.1634  0.3869 -0.5146
12350TIP3    H158541   1.186   0.455   0.175  3.3303  0.9876  2.1877
12350TIP3    H258542   1.236   0.479   0.035 -2.4437  0.5023 -0.2211
12351TIP3   OH258543   5.043   3.303  11.155  0.1182 -0.0522  0.2671
12351TIP3    H158544   4.964   3.345  11.120  0.5820 -1.5716 -2.9414
12351TIP3    H258545   5.035   3.212  11.129  3.1341 -0.1504 -0.5980
12352TIP3   OH258546   3.923   2.254   3.918 -0.6451 -0.9552 -0.0130
12352TIP3    H158547   3.838   2.241   3.876 -0.4330 -0.9193 -0.4612
12352TIP3    H258548   3.965   2.168   3.914  0.0919 -0.5774 -1.4952
12353TIP3   OH258549   1.099   4.268   4.918  0.8099  0.0903 -0.8877
12353TIP3    H158550   1.151   4.195   4.884  0.6411  1.1333 -3.7069
12353TIP3    H258551   1.009   4.239   4.909  0.7484  0.5236 -1.8778
12354TIP3   OH258552   6.390   2.811  11.236  0.3747  0.1626  0.9523
12354TIP3    H158553   6.471   2.785  11.192  0.7594  0.1551  1.6351
12354TIP3    H258554   6.320   2.769  11.186  0.7840  0.2516  0.2917
12355TIP3   OH258555   0.248   0.911   2.649  0.1333 -0.6854 -0.2925
12355TIP3    H158556   0.172   0.954   2.610 -0.1247 -0.1219  0.7736
12355TIP3    H258557   0.211   0.855   2.718  0.7489  1.1257  1.6229
12356TIP3   OH258558   4.774   1.073   3.443  0.0353  0.4598  0.4699
12356TIP3    H158559   4.795   1.022   3.365 -1.5454  0.7949 -0.2144
12356TIP3    H258560   4.765   1.163   3.411 -1.1292  0.5255  0.9156
12357TIP3   OH258561   3.547   2.934  14.383  0.4136  0.2855  0.2342
12357TIP3    H158562   3.564   2.895  14.297  1.5416  0.0158  0.5598
12357TIP3    H258563   3.485   2.875  14.425  1.1282 -0.4916  0.2278
12358TIP3   OH258564   0.830   6.457  13.291  0.0241 -0.2788  0.7215
12358TIP3    H158565   0.924   6.468  13.303  0.8934 -2.1120 -3.0416
12358TIP3    H258566   0.806   6.520  13.223 -0.3470 -2.8442 -1.7180
12359TIP3   OH258567   1.008   5.132   2.135  0.2818  0.7385  0.3040
12359TIP3    H158568   0.932   5.181   2.104  0.1520  1.2396  1.3960
12359TIP3    H258569   0.972   5.049   2.166  0.6367 -0.7400 -2.7918
12360TIP3   OH258570   0.441   1.388   2.090  0.2057 -0.5222 -0.7706
12360TIP3    H158571   0.421   1.459   2.150  0.7516 -1.2193  0.2689
12360TIP3    H258572   0.495   1.328   2.141  0.4808 -1.2580 -1.8882
12361TIP3   OH258573   1.926   0.948  13.795  0.1846  0.7225  0.4764
12361TIP3    H158574   1.929   0.921  13.703  1.2001  0.8932  0.4508
12361TIP3    H258575   1.848   0.905  13.830  1.2504 -1.5953  0.2206
12362TIP3   OH258576   0.849   6.552   4.694  0.4642  0.1469 -0.3497
12362TIP3    H158577   0.875   6.461   4.678  0.5574  0.2550 -0.8187
12362TIP3    H258578   0.865   6.597   4.611 -0.4322  0.4001 -0.3955
12363TIP3   OH258579   3.944   6.398  12.132  0.4391 -0.2115 -0.3838
12363TIP3    H158580   3.904   6.328  12.185  0.4010  0.4572  0.4796
12363TIP3    H258581   3.990   6.453  12.195 -0.8395  1.4490 -0.8300
12364TIP3   OH258582   0.906   1.500  13.664 -0.5772  0.6596 -0.7738
12364TIP3    H158583   0.897   1.593  13.686  0.1681  0.3169  1.2022
12364TIP3    H258584   0.884   1.455  13.746  2.0719 -0.7730 -0.7526
12365TIP3   OH258585   3.984   5.893   1.383  0.1160  0.1405 -0.0095
12365TIP3    H158586   4.074   5.924   1.393  0.0313  1.1378 -1.7935
12365TIP3    H258587   3.961   5.918   1.294 -1.3715 -1.5974 -0.1686
12366TIP3   OH258588   4.203   5.558  12.161  0.2731  0.1136  0.5009
12366TIP3    H158589   4.134   5.555  12.227 -0.8759 -1.2277 -0.7061
12366TIP3    H258590   4.246   5.473  12.166  1.2853  0.6073  0.6268
12367TIP3   OH258591   1.031   2.842  14.315 -0.0630  0.0869 -0.4882
12367TIP3    H158592   0.979   2.869  14.390  0.1064 -1.1860  0.1161
12367TIP3    H258593   0.971   2.849  14.241 -0.3508  0.9774 -0.1780
12368TIP3   OH258594   2.958   5.278   0.085 -0.0677 -0.5503  0.0912
12368TIP3    H158595   2.944   5.371   0.066 -2.3805 -1.0313 -0.9337
12368TIP3    H258596   3.034   5.254   0.032  1.1205  0.9084  1.0446
12369TIP3   OH258597   5.817   2.605   1.888 -0.2677  0.5575  0.5435
12369TIP3    H158598   5.756   2.563   1.827 -0.2711  0.2658  0.7463
12369TIP3    H258599   5.903   2.595   1.847 -0.1945 -0.1534  0.8602
12370TIP3   OH258600   4.266   1.881  13.504 -0.0303 -0.2597  0.4288
12370TIP3    H158601   4.341   1.938  13.488 -0.4879  0.1467 -0.3075
12370TIP3    H258602   4.304   1.793  13.506  0.2622 -0.2567 -1.8498
12371TIP3   OH258603   2.918   4.408  14.271  0.1216 -0.0252 -0.5761
12371TIP3    H158604   3.001   4.370  14.241  0.3480  0.3364 -0.4170
12371TIP3    H258605   2.855   4.337  14.264  0.3987 -0.2374 -0.9153
12372TIP3   OH258606   1.535   3.092  11.160 -0.2587 -0.6282  0.0725
12372TIP3    H158607   1.622   3.112  11.127 -0.3107 -1.3688 -0.5504
12372TIP3    H258608   1.495   3.178  11.176  0.8712 -0.2791  1.1858
12373TIP3   OH258609   5.664   3.316   2.509  0.5883 -0.1774  0.0120
12373TIP3    H158610   5.759   3.307   2.501  0.6525 -0.2025  0.7077
12373TIP3    H258611   5.651   3.357   2.595 -0.0562 -0.8304  0.2388
12374TIP3   OH258612   2.186   1.995   3.167  0.0778 -0.6551 -0.0344
12374TIP3    H158613   2.129   1.941   3.222 -0.4742 -1.0844 -1.0047
12374TIP3    H258614   2.171   2.084   3.198  0.8211 -0.9982  1.4289
12375TIP3   OH258615   0.742   4.524   4.077  0.8897 -0.5154  0.7535
12375TIP3    H158616   0.740   4.450   4.138 -0.4113 -1.0123  0.1401
12375TIP3    H258617   0.780   4.487   3.997  0.2191 -0.5279  0.4395
12376TIP3   OH258618   6.450   3.985  12.568  0.6887  1.0323 -0.5254
12376TIP3    H158619   6.515   4.001  12.500  0.9640  0.2915 -0.4449
12376TIP3    H258620   6.500   3.951  12.642 -0.0435 -2.6311 -1.4929
12377TIP3   OH258621   0.801   4.457   0.473 -0.4005  0.4672 -0.3626
12377TIP3    H158622   0.856   4.379   0.462 -0.1319  0.1936  2.2630
12377TIP3    H258623   0.739   4.433   0.542 -1.7370  1.8699 -1.0135
12378TIP3   OH258624   6.526   4.731   1.035 -0.3020 -0.2562  0.0145
12378TIP3    H158625   6.488   4.731   1.123  0.7104 -0.6391  0.4511
12378TIP3    H258626   6.618   4.712   1.048  0.4848  2.4418 -0.8524
12379TIP3   OH258627   3.026   6.245  12.422  0.6326 -0.3823  0.0465
12379TIP3    H158628   2.962   6.317  12.425  0.1298 -0.7877 -0.6370
12379TIP3    H258629   3.024   6.207  12.509  0.5806  0.1593  0.2826
12380TIP3   OH258630   5.492   6.450  12.396 -0.3556 -0.7684 -0.9283
12380TIP3    H158631   5.435   6.385  12.438  0.8438  0.3826  2.8219
12380TIP3    H258632   5.437   6.528  12.388  0.5594  0.6108  3.4487
12381TIP3   OH258633   3.179   3.572   0.762  0.0745  0.1938  0.2187
12381TIP3    H158634   3.089   3.571   0.793 -0.0639  0.0306 -0.1762
12381TIP3    H258635   3.187   3.653   0.712  0.4844  0.7756  1.2046
12382TIP3   OH258636   4.603   3.441   4.028  0.4714  0.3481  0.3563
12382TIP3    H158637   4.662   3.407   3.961  2.8906  0.0261  2.4630
12382TIP3    H258638   4.558   3.364   4.063 -1.1778  0.5761 -1.1555
12383TIP3   OH258639   2.058   5.313   2.873  0.1739  0.1098 -0.3770
12383TIP3    H158640   2.013   5.377   2.818 -0.0122  0.0630 -0.2764
12383TIP3    H258641   2.000   5.298   2.947  0.2543 -0.1151 -0.3580
12384TIP3   OH258642   3.628   1.853  17.183  0.1549  0.2576 -0.2141
12384TIP3    H158643   3.621   1.949  17.177  0.2684  0.2030 -1.4468
12384TIP3    H258644   3.625   1.835  17.277 -0.1959  1.4462  0.0266
12385TIP3   OH258645   4.583   3.334   2.095  0.1917 -0.6459 -0.1801
12385TIP3    H158646   4.610   3.322   2.004 -1.9328  1.1589 -1.1440
12385TIP3    H258647   4.521   3.263   2.111 -0.1123 -0.4525 -0.4671
12386TIP3   OH258648   6.677   4.770  10.628  0.6813 -0.0073 -0.1213
12386TIP3    H158649   6.655   4.780  10.721 -0.8101  0.7133 -0.5222
12386TIP3    H258650   6.650   4.680  10.607 -0.9881  0.4936 -0.3218
12387TIP3   OH258651   1.401   3.554  12.315  0.4603 -0.4341  0.6668
12387TIP3    H158652   1.406   3.649  12.314  1.0336 -0.4630  0.5654
12387TIP3    H258653   1.402   3.531  12.408  1.1457 -0.3790  0.6764
12388TIP3   OH258654   0.279   5.364  11.280 -0.2301  0.2340  0.2648
12388TIP3    H158655   0.257   5.353  11.188  0.3962 -0.8034  0.2249
12388TIP3    H258656   0.223   5.436  11.310  1.2627  2.2710 -1.5090
12389TIP3   OH258657   3.285   6.161  13.365 -0.3708  0.4927  0.3877
12389TIP3    H158658   3.226   6.102  13.319  1.7368  0.3847 -2.4736
12389TIP3    H258659   3.268   6.247  13.326  1.4910  0.3980 -0.7395
12390TIP3   OH258660   5.635   5.190  11.464 -0.1621 -0.3636 -0.0645
12390TIP3    H158661   5.683   5.113  11.496  1.1970  0.7302  0.6505
12390TIP3    H258662   5.598   5.229  11.543  0.8284  0.7837 -0.1280
12391TIP3   OH258663   3.484   1.489   1.325  0.4731 -0.4331 -0.5585
12391TIP3    H158664   3.566   1.442   1.310  0.9278  0.4745 -0.9820
12391TIP3    H258665   3.494   1.530   1.411  0.3682 -0.5154 -0.5065
12392TIP3   OH258666   5.728   4.035   4.729 -0.0381 -0.3945 -0.3368
12392TIP3    H158667   5.772   4.033   4.644 -1.7605  0.5786 -1.3042
12392TIP3    H258668   5.794   4.069   4.789  1.0778 -0.6761 -1.3630
12393TIP3   OH258669   5.490   1.527   4.106  0.2661 -0.1025 -0.6168
12393TIP3    H158670   5.492   1.585   4.029  0.9481 -0.6386 -1.0129
12393TIP3    H258671   5.398   1.526   4.132 -0.3003 -1.1963 -2.4455
12394TIP3   OH258672   6.609   0.405  14.949 -0.0039 -0.8179  0.2579
12394TIP3    H158673   6.629   0.343  14.878  2.0347  0.9111 -0.7772
12394TIP3    H258674   6.537   0.457  14.914  0.6884 -0.2726 -0.3844
12395TIP3   OH258675   0.087   6.072   2.077 -0.3907 -0.0658  0.5640
12395TIP3    H158676   0.022   6.003   2.093  1.4319 -2.0077  0.0206
12395TIP3    H258677   0.160   6.050   2.134 -0.3311  2.3337  1.5049
12396TIP3   OH258678   4.531   0.822   1.331 -0.6892  0.1706 -0.4850
12396TIP3    H158679   4.604   0.884   1.328 -0.1753 -0.4337 -1.1688
12396TIP3    H258680   4.459   0.867   1.287 -1.1831  1.2916  1.3578
12397TIP3   OH258681   6.290   4.969  12.210  0.3334 -0.6745 -0.0058
12397TIP3    H158682   6.345   4.989  12.286 -1.1545  0.7279  0.7614
12397TIP3    H258683   6.288   5.050  12.160 -1.5237 -0.4867  0.3251
12398TIP3   OH258684   5.936   4.154   4.580  0.2312  0.0365 -0.4843
12398TIP3    H158685   6.010   4.202   4.617 -0.1111  1.4818 -1.5728
12398TIP3    H258686   5.973   4.107   4.506  0.2773 -0.1532 -0.3406
12399TIP3   OH258687   1.125   3.097  15.964 -0.0378  0.8872 -0.3520
12399TIP3    H158688   1.106   3.005  15.947  0.8737  0.5050  0.6210
12399TIP3    H258689   1.046   3.129  16.008 -0.2344  0.5010 -0.4157
12400TIP3   OH258690   4.850   3.634   1.889  0.5588  0.1927 -0.1883
12400TIP3    H158691   4.874   3.700   1.954 -0.1473  0.8482 -0.5757
12400TIP3    H258692   4.903   3.558   1.911  1.1161  0.7690  0.4940
12401TIP3   OH258693   4.035   4.400  12.760 -0.1573 -0.8067  0.3226
12401TIP3    H158694   4.091   4.474  12.781  0.6812 -1.8183  1.9356
12401TIP3    H258695   3.968   4.400  12.830  0.0022 -1.6845  0.4874
12402TIP3   OH258696   3.427   5.387  10.433 -0.5781 -0.0763  0.0495
12402TIP3    H158697   3.471   5.462  10.392  1.7395 -0.2661  1.9414
12402TIP3    H258698   3.454   5.312  10.380 -0.2398  0.0491  0.0413
12403TIP3   OH258699   2.206   5.984   0.379  0.3452  0.0918 -0.2581
12403TIP3    H158700   2.211   6.076   0.352 -1.0057  0.5199  0.8168
12403TIP3    H258701   2.200   5.988   0.475 -2.0600 -0.9565 -0.2977
12404TIP3   OH258702   5.143   3.484  12.948 -0.8310  0.1808  0.4831
12404TIP3    H158703   5.056   3.500  12.911 -1.2733 -1.1913  0.8791
12404TIP3    H258704   5.134   3.504  13.041 -1.0453 -1.0114  0.7372
12405TIP3   OH258705   3.530   0.537   3.647  0.2477 -0.0409 -0.7310
12405TIP3    H158706   3.541   0.613   3.703  1.4412  1.6669 -3.1302
12405TIP3    H258707   3.604   0.480   3.669 -0.1026 -0.0948  0.3869
12406TIP3   OH258708   5.404   1.954   2.191 -0.4910 -0.2965  0.8400
12406TIP3    H158709   5.366   1.995   2.269  0.4741 -1.4972  1.9829
12406TIP3    H258710   5.392   1.860   2.206  2.4414 -0.7074  1.0215
12407TIP3   OH258711   6.326   6.335  12.242  0.3473  0.1824  0.5460
12407TIP3    H158712   6.262   6.293  12.185 -1.0365  2.3793  0.3678
12407TIP3    H258713   6.385   6.264  12.269 -2.3661 -2.0560  1.0497
12408TIP3   OH258714   0.189   3.350  12.646 -0.1209 -0.2872  0.2354
12408TIP3    H158715   0.162   3.336  12.555  0.1029  0.7607 -0.0062
12408TIP3    H258716   0.165   3.269  12.691 -0.1656 -0.8457 -0.7695
12409TIP3   OH258717   5.903   5.787   0.203  0.2875 -0.1731  0.2414
12409TIP3    H158718   5.972   5.841   0.241  1.1679 -0.5693 -0.7393
12409TIP3    H258719   5.823   5.838   0.215  1.1296  1.5441 -0.9586
12410TIP3   OH258720   2.475   2.407  13.677 -0.0129  0.5565  0.3925
12410TIP3    H158721   2.544   2.444  13.733 -1.2610  0.7070  1.8959
12410TIP3    H258722   2.487   2.312  13.684 -0.4688  0.5629  1.3346
12411TIP3   OH258723   3.047   4.153  13.582  0.0109 -0.1402 -0.3946
12411TIP3    H158724   2.967   4.136  13.631  0.1442 -0.7980 -0.3980
12411TIP3    H258725   3.108   4.189  13.647 -0.2879  0.3800 -0.3965
12412TIP3   OH258726   1.835   2.877   4.963 -0.0826  0.4916 -0.5028
12412TIP3    H158727   1.882   2.957   4.985 -0.5003  0.9125 -1.1151
12412TIP3    H258728   1.768   2.869   5.030  0.5872  0.1070  0.1389
12413TIP3   OH258729   0.233   4.884   4.245  0.4945 -0.4023  0.1799
12413TIP3    H158730   0.156   4.903   4.299  1.5838  1.7510  1.1134
12413TIP3    H258731   0.216   4.930   4.163  1.6538  2.0708  1.2071
12414TIP3   OH258732   0.667   4.775  13.991 -0.0055 -0.1777 -0.5385
12414TIP3    H158733   0.662   4.794  13.898 -1.6139  1.5073 -0.1667
12414TIP3    H258734   0.686   4.860  14.032  1.3259 -0.9905  0.6530
12415TIP3   OH258735   4.474   1.124   5.027 -0.0400 -0.4446  0.1477
12415TIP3    H158736   4.465   1.042   5.075  1.8114 -0.4398  0.5893
12415TIP3    H258737   4.562   1.121   4.989 -0.0839  1.1430 -0.1808
12416TIP3   OH258738   0.028   4.664  14.386  0.2875  0.0689 -0.4177
12416TIP3    H158739   0.004   4.723  14.458 -1.5769 -2.7544  1.4820
12416TIP3    H258740   0.009   4.715  14.306 -0.6023  2.2270  1.0614
12417TIP3   OH258741   6.703   2.640   3.725 -0.4857  0.4404  0.4103
12417TIP3    H158742   6.688   2.675   3.813  2.3108  2.9471  0.0591
12417TIP3    H258743   6.776   2.579   3.736  1.5380  2.5841 -0.3850
12418TIP3   OH258744   6.142   3.983   2.039  0.5112  0.4997  0.1212
12418TIP3    H158745   6.151   4.077   2.026 -1.3198  0.7900  0.6720
12418TIP3    H258746   6.048   3.970   2.055  0.9129 -1.2420  1.3526
12419TIP3   OH258747   2.350   1.467  15.000  0.6612 -0.2736 -0.3704
12419TIP3    H158748   2.335   1.439  15.090 -0.4674 -2.1449 -1.0809
12419TIP3    H258749   2.418   1.534  15.007  1.7728 -1.4983  1.7285
12420TIP3   OH258750   5.282   3.124  16.816 -0.0763 -0.3733 -0.3407
12420TIP3    H158751   5.323   3.127  16.729 -1.2661 -0.7372 -0.9268
12420TIP3    H258752   5.356   3.134  16.876  1.1144 -2.5133 -1.3207
12421TIP3   OH258753   2.314   5.603   4.895  0.1119  0.1461  0.0613
12421TIP3    H158754   2.221   5.616   4.913  0.4156 -0.0936  2.0476
12421TIP3    H258755   2.356   5.615   4.980  1.9004  0.2518 -0.8064
12422TIP3   OH258756   0.453   1.766  13.135  0.2636 -0.2481  0.2601
12422TIP3    H158757   0.457   1.823  13.213  1.2047 -0.9788  0.7751
12422TIP3    H258758   0.391   1.698  13.159  1.9683 -1.5660  1.1839
12423TIP3   OH258759   5.325   6.005   4.337  0.2485  0.0199 -0.2029
12423TIP3    H158760   5.336   6.072   4.404  1.3092 -0.6753  0.3361
12423TIP3    H258761   5.411   5.964   4.329 -0.2043 -0.8107 -1.0230
12424TIP3   OH258762   5.225   4.755   6.370  0.3837 -0.1153  0.2472
12424TIP3    H158763   5.216   4.809   6.292 -2.2412 -0.1546  0.4368
12424TIP3    H258764   5.297   4.695   6.350 -1.0996 -1.0883 -2.7889
12425TIP3   OH258765   3.543   5.085  10.665 -0.4640 -0.2016  0.4645
12425TIP3    H158766   3.584   5.052  10.745 -0.0581  0.0886  0.3782
12425TIP3    H258767   3.508   5.170  10.690  1.6202  0.9100 -0.2316
12426TIP3   OH258768   3.593   6.343   4.967  0.1705 -0.3568 -0.7380
12426TIP3    H158769   3.608   6.420   4.913 -4.7972  0.1347 -1.9392
12426TIP3    H258770   3.618   6.269   4.911  2.9306  0.1839 -0.3697
12427TIP3   OH258771   0.112   5.557   0.593 -0.2791  0.5852  0.3546
12427TIP3    H158772   0.195   5.593   0.625  0.5067 -1.1710  0.4400
12427TIP3    H258773   0.046   5.594   0.652 -0.0166  4.1814 -1.3535
12428TIP3   OH258774   6.327   3.603   1.730  0.1893  0.0154  0.1397
12428TIP3    H158775   6.415   3.621   1.763  0.0279  0.1884  0.4794
12428TIP3    H258776   6.322   3.653   1.648  1.1330 -1.6242 -0.9707
12429TIP3   OH258777   6.590   5.961  12.906  0.2288 -0.0877  0.3375
12429TIP3    H158778   6.579   6.050  12.939 -0.2815  0.5148 -1.3428
12429TIP3    H258779   6.501   5.925  12.906  0.1975 -0.0279 -0.4591
12430TIP3   OH258780   0.857   6.701   1.653  0.0707  0.9298  0.2076
12430TIP3    H158781   0.812   6.720   1.735 -1.7783  3.4720 -1.2457
12430TIP3    H258782   0.808   6.749   1.587  1.0199 -1.6168 -2.5658
12431TIP3   OH258783   4.791   2.109   0.719 -0.1841 -0.2177 -0.2069
12431TIP3    H158784   4.734   2.185   0.734 -0.6920 -0.1429 -2.1860
12431TIP3    H258785   4.873   2.147   0.686  1.2258 -0.3019  2.9055
12432TIP3   OH258786   1.543   4.825  13.281  0.1222 -0.5350  0.0814
12432TIP3    H158787   1.565   4.746  13.231  0.3121 -0.2158 -0.3361
12432TIP3    H258788   1.581   4.809  13.368 -0.0915 -1.0280  0.0899
12433TIP3   OH258789   1.671   3.136   0.104  0.1142 -0.1071 -0.6473
12433TIP3    H158790   1.666   3.076   0.029 -1.4211 -3.1721  1.6901
12433TIP3    H258791   1.580   3.158   0.124  0.5066  0.8682  0.2005
12434TIP3   OH258792   4.112   3.486  11.588  0.3234 -0.3502 -0.3615
12434TIP3    H158793   4.180   3.552  11.577 -0.7538  1.3071  1.9432
12434TIP3    H258794   4.155   3.403  11.571  2.2212  0.7972 -1.4923
12435TIP3   OH258795   4.882   2.469  16.540 -0.3154  0.9248  0.1302
12435TIP3    H158796   4.848   2.558  16.532 -1.3002  0.4984 -0.6165
12435TIP3    H258797   4.971   2.480  16.573 -0.4757  2.1756  0.1821
12436TIP3   OH258798   4.061   3.579  15.211  0.8036  0.0242  0.1207
12436TIP3    H158799   4.006   3.656  15.221  2.4303  1.2107  0.4772
12436TIP3    H258800   4.021   3.528  15.141 -1.6741 -0.0764  1.5092
12437TIP3   OH258801   1.938   2.733   0.893  0.0055  0.5845 -0.3246
12437TIP3    H158802   1.917   2.826   0.892  0.9479  0.8765  1.5935
12437TIP3    H258803   1.908   2.700   0.809 -0.8054  2.5159 -0.8366
12438TIP3   OH258804   4.112   4.754  17.213  0.1203  0.4967 -0.8103
12438TIP3    H158805   4.118   4.793  17.301 -0.0417 -0.5634 -0.3087
12438TIP3    H258806   4.194   4.776  17.171 -0.0259  1.4877 -0.5934
12439TIP3   OH258807   2.053   3.634  14.718  0.6951 -0.9303  0.2796
12439TIP3    H158808   2.054   3.729  14.727 -1.7620 -0.9942  2.2020
12439TIP3    H258809   1.970   3.614  14.675  0.8123 -2.2274  0.6048
12440TIP3   OH258810   4.480   6.297  13.739 -0.1274 -0.0109  0.1879
12440TIP3    H158811   4.413   6.313  13.805  0.5601 -0.5351  1.0384
12440TIP3    H258812   4.451   6.219  13.693  0.0677 -0.4371  0.7827
12441TIP3   OH258813   1.426   1.513   0.252  0.4883  0.6263 -0.3140
12441TIP3    H158814   1.491   1.578   0.279  0.4397  0.2721  0.7022
12441TIP3    H258815   1.466   1.468   0.178  1.8044 -0.1838  0.8489
12442TIP3   OH258816   1.136   2.475   5.860  0.3605 -0.2692  0.5220
12442TIP3    H158817   1.141   2.390   5.817 -0.0720  0.0949 -0.2712
12442TIP3    H258818   1.178   2.462   5.945 -0.8457 -1.6018  0.9413
12443TIP3   OH258819   6.411   4.335  16.657 -0.2283  0.3207  0.1189
12443TIP3    H158820   6.506   4.332  16.646 -0.2496  0.3771 -0.0695
12443TIP3    H258821   6.398   4.393  16.732 -0.1853  1.3964 -0.6960
12444TIP3   OH258822   4.369   4.359  12.596  0.7826 -0.2850 -0.2688
12444TIP3    H158823   4.404   4.445  12.619 -0.0944 -0.0814  0.3761
12444TIP3    H258824   4.282   4.377  12.560  0.2937 -0.9400  0.5468
12445TIP3   OH258825   2.829   3.655   5.294 -0.2814  0.2592  0.0379
12445TIP3    H158826   2.792   3.572   5.326 -3.6695  2.1444  1.5316
12445TIP3    H258827   2.819   3.649   5.198 -3.5747  0.1186  0.2821
12446TIP3   OH258828   1.862   5.337  11.358 -0.2656 -0.5632 -0.1513
12446TIP3    H158829   1.945   5.365  11.319  0.2565 -0.4461  1.0174
12446TIP3    H258830   1.798   5.401  11.326  0.2557 -0.1501 -0.3826
12447TIP3   OH258831   5.021   0.362  12.560  0.1484  0.2279  0.1302
12447TIP3    H158832   5.013   0.400  12.648  0.1052 -0.3091  0.3636
12447TIP3    H258833   5.040   0.437  12.503 -3.0717  1.1240  0.0466
12448TIP3   OH258834   3.988   2.824   4.563 -0.2248  0.1660  0.7224
12448TIP3    H158835   3.973   2.914   4.592 -0.0884  0.3590  0.2075
12448TIP3    H258836   4.078   2.824   4.529 -0.4890  0.0329 -0.0031
12449TIP3   OH258837   0.561   1.940   2.581 -0.5802 -0.1414  0.3301
12449TIP3    H158838   0.619   2.015   2.573 -0.7154 -0.0973 -0.2522
12449TIP3    H258839   0.619   1.865   2.593 -0.1813 -0.5458 -3.1083
12450TIP3   OH258840   5.629   0.210  11.616 -0.1137 -0.3153  0.5719
12450TIP3    H158841   5.624   0.140  11.551 -0.8708  0.6410 -0.4242
12450TIP3    H258842   5.633   0.291  11.565 -2.5999  0.6009  1.6494
12451TIP3   OH258843   0.448   3.561  14.480  0.4443  0.7100 -0.2035
12451TIP3    H158844   0.501   3.486  14.505 -0.2218  0.7517  1.4163
12451TIP3    H258845   0.416   3.540  14.392  0.9059 -0.5305 -0.0856
12452TIP3   OH258846   4.091   5.070  12.099  0.4686  0.2628 -0.1686
12452TIP3    H158847   4.133   5.109  12.175 -0.7846  0.2156  0.5829
12452TIP3    H258848   4.054   4.988  12.131 -0.2229  0.3276 -0.7680
12453TIP3   OH258849   1.375   5.797   5.095 -0.2897 -0.8091  0.3202
12453TIP3    H158850   1.414   5.821   5.178 -0.9073 -0.9723  0.6647
12453TIP3    H258851   1.285   5.832   5.099 -0.4535 -1.1660 -0.1058
12454TIP3   OH258852   5.391   6.386  14.500 -0.0528  0.1518  0.0594
12454TIP3    H158853   5.342   6.439  14.563 -1.3116 -2.5147  1.4895
12454TIP3    H258854   5.436   6.321  14.554 -0.2712 -1.5338 -1.6961
12455TIP3   OH258855   4.247   6.114   0.748 -0.2908 -0.1580  0.0987
12455TIP3    H158856   4.334   6.095   0.713 -1.5946  0.4750 -4.1130
12455TIP3    H258857   4.259   6.193   0.800  1.7389 -0.5200  0.2741
12456TIP3   OH258858   3.954   1.176  13.728  0.8473  0.2596  0.2571
12456TIP3    H158859   3.982   1.211  13.643  0.1540  2.3549  0.8365
12456TIP3    H258860   4.017   1.210  13.791  0.1113  0.5496  0.8538
12457TIP3   OH258861   1.591   1.580  14.189  0.2716  0.4166 -0.3601
12457TIP3    H158862   1.658   1.586  14.121  0.6447 -3.5968 -0.5741
12457TIP3    H258863   1.515   1.626  14.152  1.8691  2.4168 -1.3829
12458TIP3   OH258864   0.697   2.878   5.949 -0.3233  0.0554  0.7987
12458TIP3    H158865   0.630   2.834   5.897  0.0189  1.3358 -0.8215
12458TIP3    H258866   0.682   2.848   6.039  1.2866 -5.1005 -0.3405
12459TIP3   OH258867   1.120   5.677   3.095 -0.5233  0.5351  0.2944
12459TIP3    H158868   1.180   5.734   3.047 -0.2775  1.1969  1.3652
12459TIP3    H258869   1.083   5.733   3.163 -1.3985 -0.2033  0.4350
12460TIP3   OH258870   1.759   4.130  15.449 -0.0203 -0.1115  0.2491
12460TIP3    H158871   1.834   4.094  15.497  0.4231  0.6912  0.1894
12460TIP3    H258872   1.799   4.186  15.382 -0.6695  0.1739  0.0947
12461TIP3   OH258873   0.850   5.731   1.171  0.3663  0.0259  0.3641
12461TIP3    H158874   0.878   5.821   1.180  0.7082  0.0160 -0.5035
12461TIP3    H258875   0.801   5.729   1.088 -0.5868 -0.3516  0.9163
12462TIP3   OH258876   2.789   1.221   2.312 -0.4916 -0.0141 -0.7544
12462TIP3    H158877   2.789   1.137   2.266 -2.7533 -0.0343 -0.8186
12462TIP3    H258878   2.828   1.282   2.249  2.5221 -1.1646 -0.1952
12463TIP3   OH258879   0.474   4.850  11.717  0.5595 -0.2591 -0.2070
12463TIP3    H158880   0.468   4.757  11.737 -0.4721 -0.4633 -1.3109
12463TIP3    H258881   0.406   4.891  11.771  0.9636 -0.1413  0.2231
12464TIP3   OH258882   1.703   3.513  11.697  0.2840 -0.7085  0.3361
12464TIP3    H158883   1.725   3.496  11.605 -1.4159 -2.1114  0.1361
12464TIP3    H258884   1.641   3.587  11.693  0.1243 -0.8411  0.3296
12465TIP3   OH258885   3.770   4.576   0.288  0.1266 -0.3477  0.2508
12465TIP3    H158886   3.760   4.527   0.370  2.4033  0.0558  0.8528
12465TIP3    H258887   3.861   4.561   0.262 -0.5021 -0.3809 -2.1936
12466TIP3   OH258888   4.882   2.650  13.942  0.1242 -0.6775  0.3431
12466TIP3    H158889   4.906   2.563  13.909 -1.7960 -0.5805 -1.5085
12466TIP3    H258890   4.826   2.687  13.873 -2.0738  0.5792  2.6539
12467TIP3   OH258891   4.515   1.653  11.400  0.4754  0.3221  0.3714
12467TIP3    H158892   4.514   1.574  11.455  0.9146  1.4411  2.0674
12467TIP3    H258893   4.448   1.709  11.439  1.0055  1.2594 -0.0503
12468TIP3   OH258894   1.583   6.193  16.832  0.5003 -0.5876 -0.0984
12468TIP3    H158895   1.577   6.105  16.868  1.2112 -1.0131 -0.9755
12468TIP3    H258896   1.656   6.189  16.769  0.5569  0.6234 -0.1498
12469TIP3   OH258897   5.295   4.195   4.639  0.4991 -0.0373 -0.2520
12469TIP3    H158898   5.239   4.235   4.705  0.9222 -0.7303  0.5561
12469TIP3    H258899   5.248   4.207   4.557 -0.9409 -0.7847  0.4271
12470TIP3   OH258900   5.935   5.658  13.793 -0.2343  0.2073  0.1716
12470TIP3    H158901   5.860   5.705  13.829  0.4328  0.6629  0.9954
12470TIP3    H258902   5.940   5.578  13.845 -0.1911  0.1394  0.0644
12471TIP3   OH258903   6.066   3.050   5.918 -0.3711 -0.1215 -0.2220
12471TIP3    H158904   6.039   3.064   6.009  1.0860 -0.7682  0.3423
12471TIP3    H258905   6.042   2.959   5.899  1.4962 -0.7804  0.3637
12472TIP3   OH258906   1.784   3.438  17.132 -0.0182  0.4230  0.0147
12472TIP3    H158907   1.744   3.384  17.064  1.2584  0.1713 -0.5743
12472TIP3    H258908   1.723   3.511  17.144 -1.3929 -0.7225  0.2714
12473TIP3   OH258909   6.307   3.323   1.820 -0.4642 -0.5998  0.0277
12473TIP3    H158910   6.268   3.331   1.733  0.1625 -1.1525 -0.3220
12473TIP3    H258911   6.311   3.413   1.854 -1.2324 -0.4482 -0.2787
12474TIP3   OH258912   3.805   1.579   1.092  0.5953 -0.3954 -0.1754
12474TIP3    H158913   3.749   1.503   1.081  0.2688 -0.8337  3.2579
12474TIP3    H258914   3.753   1.639   1.147  2.1511  0.7574  0.1123
12475TIP3   OH258915   6.546   3.709   5.759  0.0062 -0.0221 -0.7254
12475TIP3    H158916   6.499   3.670   5.685 -1.9019  0.2627  0.2640
12475TIP3    H258917   6.550   3.639   5.824 -0.7555  0.4992 -0.0943
12476TIP3   OH258918   3.520   1.029   5.455 -0.3586 -0.2181  0.5453
12476TIP3    H158919   3.575   0.973   5.400 -1.0409  0.0062 -0.3928
12476TIP3    H258920   3.452   1.062   5.396 -1.7328 -0.7737  1.7312
12477TIP3   OH258921   2.499   5.552   1.309 -0.5161  0.4420  0.3173
12477TIP3    H158922   2.471   5.610   1.381  2.8505  1.0853  1.3051
12477TIP3    H258923   2.541   5.611   1.246 -2.4052 -0.2691 -1.7317
12478TIP3   OH258924   6.026   6.671  13.018  0.1339 -1.1504 -0.1950
12478TIP3    H158925   5.984   6.635  13.097  0.5312 -1.4582 -0.1184
12478TIP3    H258926   5.981   6.628  12.946  0.3989 -1.5817 -0.1099
12479TIP3   OH258927   2.137   1.106   0.046  0.7301 -0.2071 -0.0362
12479TIP3    H158928   2.214   1.123   0.099  1.6382  2.3654 -1.9940
12479TIP3    H258929   2.064   1.107   0.108  2.0880 -1.6013  1.6973
12480TIP3   OH258930   4.181   1.557  11.944  0.0045 -1.0361  0.0441
12480TIP3    H158931   4.209   1.476  11.988 -1.8782 -1.8559 -0.1764
12480TIP3    H258932   4.150   1.613  12.015  2.0230 -0.1235  0.2893
12481TIP3   OH258933   0.477   5.635  10.559  0.2381 -0.1560 -0.2324
12481TIP3    H158934   0.405   5.572  10.558 -1.2495  1.4208  1.2295
12481TIP3    H258935   0.553   5.585  10.586 -0.6339 -1.5488 -0.2716
12482TIP3   OH258936   4.286   3.933  17.028 -0.4766  1.0772 -0.3721
12482TIP3    H158937   4.277   3.957  17.121 -0.3175  0.5231 -0.2105
12482TIP3    H258938   4.205   3.886  17.007  0.5388 -1.0463  0.1981
12483TIP3   OH258939   4.610   2.262  14.993  0.0997  0.0708  0.4599
12483TIP3    H158940   4.520   2.251  14.963  1.3261 -0.8301 -3.4896
12483TIP3    H258941   4.642   2.173  15.008  0.6000  0.3157  0.8864
12484TIP3   OH258942   0.377   4.144   3.065  0.3293 -0.5109  0.7948
12484TIP3    H158943   0.420   4.186   2.991 -0.5147 -1.3160 -0.1822
12484TIP3    H258944   0.288   4.178   3.064 -0.1637 -1.7622  0.4116
12485TIP3   OH258945   3.426   2.523  14.607 -0.2386 -0.1807  0.3206
12485TIP3    H158946   3.359   2.500  14.671  1.5750 -2.5250  1.5566
12485TIP3    H258947   3.507   2.529  14.657  1.0225 -0.6806 -1.5260
12486TIP3   OH258948   0.838   6.809   3.946 -0.1708 -0.3896 -0.2236
12486TIP3    H158949   0.853   6.890   3.898 -1.3638 -0.9115 -1.5437
12486TIP3    H258950   0.925   6.769   3.954  0.2333  0.3627 -0.7509
12487TIP3   OH258951   0.546   0.845  11.925 -0.0139 -0.3295 -0.5977
12487TIP3    H158952   0.485   0.914  11.950 -0.1952 -0.3283 -1.0270
12487TIP3    H258953   0.490   0.768  11.911  0.1407 -0.4565 -0.5233
12488TIP3   OH258954   6.705   0.370   1.816  0.6695 -0.2300  0.4212
12488TIP3    H158955   6.731   0.318   1.892  1.0446 -1.1200 -0.2963
12488TIP3    H258956   6.615   0.344   1.798  0.4207  0.3251  0.8316
12489TIP3   OH258957   2.029   3.845  16.980  0.2328  0.0773 -0.1712
12489TIP3    H158958   2.071   3.760  16.968  0.7721  0.4568 -1.0785
12489TIP3    H258959   1.991   3.841  17.067  3.4242  0.2659  1.3554
12490TIP3   OH258960   0.034   3.274  15.967 -0.5581 -0.3926  0.1116
12490TIP3    H158961   0.052   3.366  15.986  0.1309 -0.9289  2.3975
12490TIP3    H258962   0.041   3.267  15.872  0.7353  1.6413  0.0035
12491TIP3   OH258963   3.528   3.459  11.438  0.4524 -0.4288 -0.1786
12491TIP3    H158964   3.615   3.419  11.442 -0.1065 -1.8599 -1.3852
12491TIP3    H258965   3.509   3.466  11.344 -0.4665  0.4741  0.0548
12492TIP3   OH258966   5.237   4.117  16.152 -0.1115  0.4158 -0.0341
12492TIP3    H158967   5.279   4.108  16.067 -2.3527 -0.7453 -1.1018
12492TIP3    H258968   5.143   4.107  16.134 -0.7684  1.3753  2.4059
12493TIP3   OH258969   3.345   0.600  16.902  0.1344  0.2437 -0.6784
12493TIP3    H158970   3.419   0.652  16.933 -0.1395  0.2781 -0.0543
12493TIP3    H258971   3.281   0.605  16.974  0.5665 -1.9109 -0.0911
12494TIP3   OH258972   4.075   3.326  11.021 -0.0896  0.0402 -0.3639
12494TIP3    H158973   4.115   3.242  11.043 -0.2147  0.0359 -0.1483
12494TIP3    H258974   4.067   3.325  10.926  0.4643  0.0608 -0.4124
12495TIP3   OH258975   5.636   1.296   5.535  0.2807  0.0107  0.4375
12495TIP3    H158976   5.698   1.369   5.526 -0.8633  1.1561  1.3989
12495TIP3    H258977   5.572   1.327   5.599 -0.6958 -1.5476  0.2655
12496TIP3   OH258978   6.423   3.490  14.618  0.4967 -0.2736 -0.4839
12496TIP3    H158979   6.376   3.498  14.701  0.3296 -0.6095 -0.5418
12496TIP3    H258980   6.515   3.501  14.642  0.4574 -0.4499 -0.2410
12497TIP3   OH258981   6.437   3.024  10.922  0.3192  0.8742  0.7134
12497TIP3    H158982   6.395   3.109  10.905  1.9062  1.6697  0.5081
12497TIP3    H258983   6.384   2.961  10.874 -0.1172  1.9582 -0.2961
12498TIP3   OH258984   3.035   5.775   3.082 -0.1060 -0.8159  0.4504
12498TIP3    H158985   3.120   5.800   3.045 -0.4635  1.0314  0.7644
12498TIP3    H258986   2.983   5.855   3.079 -1.0921 -1.3181  2.3082
12499TIP3   OH258987   4.370   0.487   5.514 -0.1082  0.2856  0.0819
12499TIP3    H158988   4.451   0.488   5.463 -0.6064  0.1384 -0.7192
12499TIP3    H258989   4.391   0.538   5.592  0.9040 -0.1381  0.1075
12500TIP3   OH258990   2.503   5.724  11.123 -0.1195 -0.3334 -0.1311
12500TIP3    H158991   2.529   5.733  11.032  0.6223 -1.0524 -0.0088
12500TIP3    H258992   2.575   5.675  11.163 -1.0777 -1.2402  0.5333
12501TIP3   OH258993   2.644   5.763   4.188  0.5013 -0.0579 -0.2143
12501TIP3    H158994   2.610   5.835   4.136 -1.2831 -1.4466 -1.0844
12501TIP3    H258995   2.738   5.778   4.191  0.5002  0.8901 -2.6034
12502TIP3   OH258996   3.421   1.031  14.395 -0.1734 -0.2332  0.2398
12502TIP3    H158997   3.511   1.003  14.409  0.3062  0.1231 -1.8019
12502TIP3    H258998   3.369   0.953  14.411  0.7502 -1.1371 -0.9573
12503TIP3   OH258999   3.777   1.071  14.886 -0.1981 -0.0891  0.2149
12503TIP3    H159000   3.804   0.980  14.872 -1.6255 -0.5659  0.3403
12503TIP3    H259001   3.726   1.092  14.807 -0.6655  0.2753  0.6119
12504TIP3   OH259002   3.926   5.426  13.643 -0.4186 -0.4441 -0.6822
12504TIP3    H159003   3.987   5.420  13.570  0.6941  1.9877 -0.0707
12504TIP3    H259004   3.844   5.456  13.603 -0.2105 -0.4537 -1.1203
12505TIP3   OH259005   5.334   6.370  11.270 -0.1663  0.7308  0.3156
12505TIP3    H159006   5.427   6.371  11.289 -0.1365 -0.7050  0.3335
12505TIP3    H259007   5.314   6.459  11.240  1.1423  1.1167  0.5606
12506TIP3   OH259008   4.067   1.507   0.023 -0.7168  0.2400 -0.0905
12506TIP3    H159009   3.990   1.482   0.075 -1.2521  0.8485 -0.5803
12506TIP3    H259010   4.034   1.514  -0.066  0.1557 -0.5974 -0.4980
12507TIP3   OH259011   3.891   1.469   6.478  0.6509 -0.4539  0.2604
12507TIP3    H159012   3.939   1.389   6.459 -1.0287 -2.0544  2.1746
12507TIP3    H259013   3.802   1.439   6.497  0.0334  1.8370  1.3472
12508TIP3   OH259014   1.299   4.618   0.535 -0.3658  0.2990  0.1775
12508TIP3    H159015   1.337   4.705   0.550  0.4390  0.3946 -2.0674
12508TIP3    H259016   1.296   4.609   0.440  0.3615 -2.4678  0.3267
12509TIP3   OH259017   1.942   2.749   3.823 -0.0909  0.0377  0.1417
12509TIP3    H159018   1.979   2.835   3.845 -2.1751  1.2941 -0.9800
12509TIP3    H259019   1.891   2.725   3.900 -0.7488  0.5515 -0.1268
12510TIP3   OH259020   3.090   2.146   3.998 -0.5306  0.3566  0.0508
12510TIP3    H159021   3.091   2.231   3.954 -0.5526 -0.6671 -2.0713
12510TIP3    H259022   3.045   2.088   3.936  0.8984 -1.5507  0.7085
12511TIP3   OH259023   1.499   2.638  15.964 -0.7238 -0.0830  0.0914
12511TIP3    H159024   1.576   2.582  15.956  1.2382  2.4134  0.3798
12511TIP3    H259025   1.436   2.585  16.012  1.0281 -1.9907  0.4340
12512TIP3   OH259026   2.296   6.773  11.331  0.4136  0.0888  0.7969
12512TIP3    H159027   2.275   6.774  11.238  0.1412  0.0732  0.8577
12512TIP3    H259028   2.390   6.754  11.334  0.2071 -1.0282  0.5528
12513TIP3   OH259029   5.526   0.807  13.784 -0.2808  0.1828  0.0832
12513TIP3    H159030   5.436   0.775  13.785 -1.2656  2.5960 -1.6360
12513TIP3    H259031   5.570   0.756  13.852 -2.9297 -1.0424  1.0335
12514TIP3   OH259032   3.026   3.451   5.493 -0.6694 -0.1164 -0.4088
12514TIP3    H159033   3.049   3.362   5.468 -1.0722 -0.3700  0.1230
12514TIP3    H259034   3.016   3.497   5.409  0.9358 -0.1915 -0.6808
12515TIP3   OH259035   5.762   0.091   3.764 -0.0091  0.3228 -0.4414
12515TIP3    H159036   5.804   0.008   3.785  0.6153  0.6673 -0.2715
12515TIP3    H259037   5.750   0.134   3.849 -1.2938 -0.0295 -0.4259
12516TIP3   OH259038   5.289   5.245  15.921  0.1029  0.0871 -0.4605
12516TIP3    H159039   5.221   5.197  15.873  0.8048 -0.2392 -1.1462
12516TIP3    H259040   5.241   5.293  15.989 -0.8511  0.1011 -1.1232
12517TIP3   OH259041   1.406   6.250   1.409  0.0795 -0.7067  0.4024
12517TIP3    H159042   1.468   6.298   1.464  0.2027 -0.6617  0.2251
12517TIP3    H259043   1.371   6.316   1.350 -0.7290 -0.5671  1.0194
12518TIP3   OH259044   5.976   3.086   2.835  0.2901 -0.0824  0.1418
12518TIP3    H159045   6.051   3.145   2.829  0.9424 -0.8406  0.6022
12518TIP3    H259046   5.931   3.113   2.915  1.0987 -0.7677  0.8493
12519TIP3   OH259047   3.049   5.400  12.973  0.2578 -0.2455  0.0762
12519TIP3    H159048   3.134   5.429  12.941 -0.5002  2.1193 -0.0110
12519TIP3    H259049   3.048   5.305  12.958  2.2953 -0.1173 -1.2069
12520TIP3   OH259050   1.910   4.729  14.456  0.3470 -0.3041  0.0132
12520TIP3    H159051   1.914   4.813  14.501  0.1388  0.6571 -1.6708
12520TIP3    H259052   1.817   4.709  14.450  0.1673  0.8794 -2.1839
12521TIP3   OH259053   2.353   3.157   4.046 -0.2689 -0.3788  0.1036
12521TIP3    H159054   2.408   3.112   4.110 -1.5885 -1.2655  0.6486
12521TIP3    H259055   2.387   3.127   3.961 -0.7838 -2.0346  0.4424
12522TIP3   OH259056   0.067   1.679  12.106  0.0804  0.1506 -0.1118
12522TIP3    H159057   0.044   1.720  12.022  1.0877  1.1460  0.0708
12522TIP3    H259058   0.007   1.719  12.169 -0.4763 -0.3770 -0.2943
12523TIP3   OH259059   0.734   4.981   2.251  0.1362  0.2492 -0.5493
12523TIP3    H159060   0.720   5.058   2.196  0.2026  0.5777 -0.1129
12523TIP3    H259061   0.737   5.016   2.340  3.0119  0.1685 -0.5078
12524TIP3   OH259062   4.163   6.129  17.214 -0.2687 -0.4555  0.6227
12524TIP3    H159063   4.151   6.114  17.120 -0.6856 -0.9631  0.7556
12524TIP3    H259064   4.118   6.056  17.256 -0.6003  0.0921  1.2342
12525TIP3   OH259065   1.160   4.566  12.010  0.1059 -0.2209  0.3244
12525TIP3    H159066   1.119   4.538  12.092  0.6589 -1.9336  0.0507
12525TIP3    H259067   1.087   4.598  11.957 -0.1932  1.3606  1.6350
12526TIP3   OH259068   0.631   1.289   3.224 -0.6264  0.9757  0.4771
12526TIP3    H159069   0.723   1.264   3.220 -1.3189 -2.5689  2.5088
12526TIP3    H259070   0.593   1.253   3.144 -0.8353 -0.9131  1.3796
12527TIP3   OH259071   3.475   4.347  15.125  0.0430 -0.0551  0.1772
12527TIP3    H159072   3.389   4.379  15.097  0.2320  0.1456 -0.1753
12527TIP3    H259073   3.482   4.375  15.216 -0.5930 -0.7473  0.4478
12528TIP3   OH259074   5.931   5.314   2.921 -0.1104  0.3644  0.5963
12528TIP3    H159075   5.891   5.228   2.911 -0.9710  0.6571  1.4406
12528TIP3    H259076   5.860   5.376   2.903 -0.5384  0.9046  3.6203
12529TIP3   OH259077   0.849   4.690  16.127 -0.0655  0.8928  0.4208
12529TIP3    H159078   0.793   4.689  16.049  0.6444  1.4730 -0.1210
12529TIP3    H259079   0.860   4.598  16.149 -0.9352  0.7578  0.3224
12530TIP3   OH259080   5.597   3.952   5.676 -0.0535 -0.3043  0.0943
12530TIP3    H159081   5.603   3.929   5.769 -2.6318 -0.0938  0.4038
12530TIP3    H259082   5.510   3.993   5.668 -0.5069 -1.6044 -2.6677
12531TIP3   OH259083   0.846   4.395  13.051  0.9655 -0.3801  0.3579
12531TIP3    H159084   0.859   4.429  12.963  1.8491 -0.0512  0.6023
12531TIP3    H259085   0.794   4.315  13.039  0.7681 -0.1404 -0.4159
12532TIP3   OH259086   4.265   0.564  16.254  0.1178  0.2873 -0.2823
12532TIP3    H159087   4.192   0.534  16.199 -1.4189  2.0524  0.6617
12532TIP3    H259088   4.248   0.525  16.340  0.4909  0.4016 -0.1553
12533TIP3   OH259089   3.722   4.061  16.400  0.4859 -0.2185 -0.1804
12533TIP3    H159090   3.724   4.094  16.310 -1.2431  0.1534 -0.1205
12533TIP3    H259091   3.760   3.973  16.394 -0.9399 -0.8117 -1.5930
12534TIP3   OH259092   2.945   1.427   4.839 -0.9049  1.2555 -0.2058
12534TIP3    H159093   3.015   1.363   4.852 -0.0780  2.3592  1.1286
12534TIP3    H259094   2.879   1.381   4.787 -0.0164 -0.4214  0.0830
12535TIP3   OH259095   3.198   3.859  14.782  0.3704  0.2657  0.2464
12535TIP3    H159096   3.119   3.906  14.809 -0.6706 -1.0298 -0.4929
12535TIP3    H259097   3.258   3.869  14.857 -0.5651  1.0563  0.9161
12536TIP3   OH259098   5.312   6.376   5.179  0.3831 -0.4377 -0.1115
12536TIP3    H159099   5.275   6.461   5.154  0.6704 -0.2752  0.0011
12536TIP3    H259100   5.398   6.374   5.136  0.8639 -0.1691  0.7993
12537TIP3   OH259101   0.386   4.222  11.038 -0.1215  0.0151 -0.0176
12537TIP3    H159102   0.365   4.129  11.034  1.1588 -0.3400  1.0095
12537TIP3    H259103   0.378   4.251  10.947  3.2777 -2.0192 -1.1646
12538TIP3   OH259104   1.394   3.899   4.680 -0.1933  0.3898 -0.3326
12538TIP3    H159105   1.478   3.921   4.721  0.8677 -4.3950  0.6723
12538TIP3    H259106   1.417   3.846   4.604 -2.2547 -0.6005 -0.3518
12539TIP3   OH259107   2.455   1.185   0.797  0.5649  0.4749 -0.4790
12539TIP3    H159108   2.484   1.163   0.708  1.6504 -0.7992  0.1440
12539TIP3    H259109   2.414   1.105   0.829 -0.2393  1.0712  0.0174
12540TIP3   OH259110   2.228   5.731   0.722 -0.1844 -0.0972  0.5872
12540TIP3    H159111   2.137   5.708   0.702  0.3431 -1.1781 -0.7619
12540TIP3    H259112   2.228   5.827   0.728 -1.0130  0.1186 -1.7338
12541TIP3   OH259113   2.134   1.429  12.219 -0.3819 -0.2784  0.2172
12541TIP3    H159114   2.154   1.347  12.265  0.9696  1.8879  3.8791
12541TIP3    H259115   2.064   1.469  12.270 -0.9594  0.9595 -1.4387
12542TIP3   OH259116   3.179   1.092  14.617 -0.5427  0.0160  0.6006
12542TIP3    H159117   3.241   1.022  14.595 -0.8626 -0.5592  1.4894
12542TIP3    H259118   3.118   1.051  14.678 -0.2228  1.3159  1.8178
12543TIP3   OH259119   3.997   5.783   0.431  0.5559  0.0360 -0.1835
12543TIP3    H159120   3.913   5.738   0.435  0.5582 -0.0344 -0.8101
12543TIP3    H259121   3.973   5.875   0.414  0.6191 -0.4651 -4.0683
12544TIP3   OH259122   5.065   1.232   6.146  0.3437 -0.1890  0.1062
12544TIP3    H159123   5.033   1.146   6.119  0.7616 -0.4428  0.4048
12544TIP3    H259124   5.147   1.214   6.192  1.2431  0.4838 -1.1600
12545TIP3   OH259125   1.626   0.889  15.389  0.2090 -0.5492 -0.2691
12545TIP3    H159126   1.649   0.799  15.410 -0.4931 -0.7293 -0.2377
12545TIP3    H259127   1.673   0.942  15.453  0.6662 -0.8854 -0.3216
12546TIP3   OH259128   5.388   6.767  14.790 -0.5932 -0.9337  0.6660
12546TIP3    H159129   5.370   6.753  14.884  0.9019  0.2234  1.1583
12546TIP3    H259130   5.343   6.848  14.769  0.1117 -0.5277  0.7091
12547TIP3   OH259131   4.863   1.014   2.939 -0.7735  0.3603 -0.4227
12547TIP3    H159132   4.834   0.990   2.851  0.6557  0.7542 -1.0266
12547TIP3    H259133   4.799   1.079   2.968 -0.7018  0.9960 -1.5996
12548TIP3   OH259134   6.794   4.429   5.845  0.0768 -0.8419 -0.4608
12548TIP3    H159135   6.846   4.434   5.765  0.3717  0.1444 -0.2234
12548TIP3    H259136   6.786   4.336   5.863  2.0121 -1.0158 -0.3458
12549TIP3   OH259137   4.087   3.416  14.462 -0.7386 -0.0485 -0.1040
12549TIP3    H159138   4.073   3.323  14.446  0.1869 -0.3350  0.6288
12549TIP3    H259139   4.073   3.457  14.377 -1.5259 -0.8029 -0.3549
12550TIP3   OH259140   2.587   3.434   3.623 -0.2981  0.3777  0.0481
12550TIP3    H159141   2.615   3.385   3.700  1.1018  0.4455 -0.3788
12550TIP3    H259142   2.578   3.524   3.653  0.2499  0.4038  0.1396
12551TIP3   OH259143   5.679   5.049   5.029 -0.0355  0.0270  0.4983
12551TIP3    H159144   5.605   5.006   5.074  0.4901 -0.1676  1.1891
12551TIP3    H259145   5.756   5.017   5.075  0.4398  0.8210  0.2580
12552TIP3   OH259146   6.748   6.796  16.019  0.2515 -1.0797 -0.1179
12552TIP3    H159147   6.674   6.797  15.959 -1.0944 -1.4800  1.4327
12552TIP3    H259148   6.761   6.703  16.038  0.1509 -0.9222  0.7670
12553TIP3   OH259149   4.607   0.073  12.884  0.0671  0.2005  0.1750
12553TIP3    H159150   4.598  -0.018  12.912 -1.1022  0.5974  1.1689
12553TIP3    H259151   4.580   0.073  12.793 -0.0223 -0.4363  0.1969
12554TIP3   OH259152   6.274   0.760  11.776 -0.0831 -0.1270  0.6941
12554TIP3    H159153   6.364   0.788  11.790  0.0330 -0.6540  1.0487
12554TIP3    H259154   6.273   0.669  11.805 -0.3394 -0.6421 -0.8496
12555TIP3   OH259155   2.058   4.505   0.395 -0.0184  0.1401  0.2872
12555TIP3    H159156   1.970   4.467   0.394  0.2761 -0.5885  0.7891
12555TIP3    H259157   2.116   4.431   0.415  0.6438  0.7238  0.5887
12556TIP3   OH259158   5.103   3.129  16.308 -0.0754  0.1648  0.1535
12556TIP3    H159159   5.041   3.062  16.279 -0.4653  0.1921  0.8845
12556TIP3    H259160   5.112   3.188  16.233  0.9926 -1.2082 -0.8199
12557TIP3   OH259161   3.884   6.610   4.302  0.4472 -0.0326  0.5574
12557TIP3    H159162   3.915   6.700   4.290  2.7370 -0.6997  0.9047
12557TIP3    H259163   3.909   6.588   4.391  2.5637 -1.8966 -0.4014
12558TIP3   OH259164   2.735   6.523   4.084 -0.2690  0.1471  1.0600
12558TIP3    H159165   2.658   6.491   4.037 -1.7530  1.6432  2.3436
12558TIP3    H259166   2.734   6.474   4.166  0.8544 -0.6521  0.6192
12559TIP3   OH259167   3.765   0.239   3.420  0.3041 -0.1573 -0.7488
12559TIP3    H159168   3.736   0.156   3.382  0.7224  0.0553 -1.5733
12559TIP3    H259169   3.813   0.282   3.348  2.7077 -0.5329  0.5179
12560TIP3   OH259170   5.689   6.817   0.196  0.2678 -0.0160 -0.1157
12560TIP3    H159171   5.636   6.893   0.219  1.5963  1.5170 -1.7789
12560TIP3    H259172   5.629   6.759   0.148 -0.4016  0.7003 -0.1547
12561TIP3   OH259173   1.490   4.180   5.866  0.6245 -0.8629 -0.2582
12561TIP3    H159174   1.442   4.255   5.831 -0.7507 -0.8165  1.5748
12561TIP3    H259175   1.521   4.133   5.788 -0.4086  0.3858 -1.4784
12562TIP3   OH259176   0.205   6.705  12.112  0.5362 -0.4737  0.2732
12562TIP3    H159177   0.232   6.797  12.119  2.7487 -0.9079 -1.3488
12562TIP3    H259178   0.256   6.660  12.179  1.6696 -0.8758 -0.8201
12563TIP3   OH259179   5.144   2.514   2.041  0.3857  0.3976  0.4230
12563TIP3    H159180   5.207   2.554   1.981  0.0483 -1.2357 -1.1065
12563TIP3    H259181   5.131   2.580   2.109  0.8515  2.3309 -1.2543
12564TIP3   OH259182   0.120   4.900   0.602  0.5920 -0.3252  0.1437
12564TIP3    H159183   0.083   4.987   0.612 -1.4370 -1.0641 -0.3822
12564TIP3    H259184   0.213   4.910   0.621  0.1565  1.6842  1.4237
12565TIP3   OH259185   3.346   2.477  12.518  0.0785  0.1098  0.6461
12565TIP3    H159186   3.329   2.413  12.587  0.4021 -0.0200  0.6043
12565TIP3    H259187   3.331   2.429  12.437  0.8295 -0.0561  0.6057
12566TIP3   OH259188   6.364   1.200   1.572  0.3574  0.2167 -0.0812
12566TIP3    H159189   6.412   1.282   1.576 -0.5666  0.8046 -0.6378
12566TIP3    H259190   6.335   1.184   1.662  1.3737 -0.0288  0.2131
12567TIP3   OH259191   2.252   3.509   4.900  0.2627  0.2710  0.2269
12567TIP3    H159192   2.159   3.513   4.881  0.3962 -1.6686 -1.1486
12567TIP3    H259193   2.257   3.498   4.995 -0.9939 -0.9809  0.1764
12568TIP3   OH259194   0.457   3.454   3.372  0.3281  0.0193 -0.4238
12568TIP3    H159195   0.403   3.389   3.328  0.5004 -0.9196  0.7009
12568TIP3    H259196   0.397   3.524   3.396  0.2354  0.5693 -2.1317
12569TIP3   OH259197   1.967   2.114   4.965 -0.4144  0.0799  0.5082
12569TIP3    H159198   1.968   2.053   4.891  1.5085  0.8658 -0.1844
12569TIP3    H259199   1.934   2.196   4.929 -2.7095 -0.3858  1.3685
12570TIP3   OH259200   3.781   5.402   1.231  0.7855  0.1489  0.2431
12570TIP3    H159201   3.754   5.460   1.159  1.1752  0.1622  0.1042
12570TIP3    H259202   3.825   5.329   1.187  1.0069  0.1483  0.4671
12571TIP3   OH259203   0.393   2.553  12.164  0.5269  0.3025  0.4456
12571TIP3    H159204   0.402   2.575  12.257  0.0186  3.6419 -0.1683
12571TIP3    H259205   0.381   2.637  12.121  0.7160 -1.1447 -2.6844
12572TIP3   OH259206   0.881   0.223   4.456 -0.1330  0.3392  0.5451
12572TIP3    H159207   0.799   0.273   4.456  0.1463  0.8044  0.6283
12572TIP3    H259208   0.886   0.185   4.369 -0.2085  0.6954  0.3839
12573TIP3   OH259209   2.232   3.827  16.351 -0.2275  0.0277  0.1053
12573TIP3    H159210   2.224   3.764  16.279 -0.9925  0.1441  0.0770
12573TIP3    H259211   2.156   3.810  16.406  0.8054 -0.6416  1.3715
12574TIP3   OH259212   4.775   0.746   5.174 -0.0833 -0.4408  0.3157
12574TIP3    H159213   4.860   0.780   5.201 -0.2072  0.8948 -0.9017
12574TIP3    H259214   4.743   0.700   5.252  0.7349  0.9964  1.5697
12575TIP3   OH259215   1.132   3.502   3.818  0.0527 -0.2996  0.2636
12575TIP3    H159216   1.191   3.548   3.878 -0.3704 -0.4241  0.7920
12575TIP3    H259217   1.140   3.410   3.843  1.3860 -0.6346 -1.2166
12576TIP3   OH259218   0.857   3.125   5.065  0.1897  0.0698  0.2313
12576TIP3    H159219   0.910   3.152   4.990 -0.0896 -0.3055 -0.1065
12576TIP3    H259220   0.775   3.094   5.026  0.4052 -1.0125  0.6254
12577TIP3   OH259221   5.010   2.999   2.971 -0.0774  0.0084  0.6383
12577TIP3    H159222   4.966   2.915   2.953  1.1035 -0.3261 -0.9239
12577TIP3    H259223   4.960   3.063   2.921  0.2812 -0.1267  0.0965
12578TIP3   OH259224   1.390   6.565  12.653  0.0590 -0.3584 -0.0558
12578TIP3    H159225   1.299   6.586  12.631  0.6119  1.0235 -1.1351
12578TIP3    H259226   1.383   6.493  12.716 -1.9110  1.9213  2.6199
12579TIP3   OH259227   5.527   3.394   5.581  0.0022  0.0291  0.0606
12579TIP3    H159228   5.580   3.472   5.600  0.8782 -0.8995  1.6041
12579TIP3    H259229   5.585   3.321   5.601 -1.5852 -1.0231  0.9916
12580TIP3   OH259230   0.486   3.628  16.911  0.3325  0.8736 -0.2658
12580TIP3    H159231   0.567   3.679  16.906 -0.0026  1.3747 -0.7756
12580TIP3    H259232   0.459   3.617  16.819  1.0651 -1.3373 -0.2780
12581TIP3   OH259233   2.554   3.937  15.475  0.0299  0.2527  0.2818
12581TIP3    H159234   2.596   3.879  15.412 -0.6930  0.0459 -0.0239
12581TIP3    H259235   2.594   3.914  15.559  1.3702  0.8844 -0.1452
12582TIP3   OH259236   3.464   6.721   2.788  0.3443  0.1864 -0.2827
12582TIP3    H159237   3.514   6.763   2.857  0.3839  0.8460 -0.7033
12582TIP3    H259238   3.405   6.661   2.834  0.9765 -0.0301  0.2604
12583TIP3   OH259239   4.041   4.696  12.015 -0.0721  0.1608  0.6092
12583TIP3    H159240   4.132   4.684  12.045  0.1039 -1.9065 -0.5293
12583TIP3    H259241   4.043   4.673  11.922 -1.7676  0.0294  0.5748
12584TIP3   OH259242   2.517   3.709   3.735  0.0603 -0.5172  0.5682
12584TIP3    H159243   2.518   3.731   3.828 -2.3395  0.0468  0.5184
12584TIP3    H259244   2.555   3.785   3.692 -1.4031  0.4412  0.9196
12585TIP3   OH259245   5.500   2.090  13.008  0.2014 -0.5093  0.3091
12585TIP3    H159246   5.583   2.072  13.053  0.0925 -1.5238  0.1403
12585TIP3    H259247   5.436   2.035  13.054 -0.2334 -0.3053 -0.0439
12586TIP3   OH259248   0.945   6.525  10.874  0.1656 -0.1915  0.3052
12586TIP3    H159249   0.969   6.482  10.956  0.2468  0.3859  0.5908
12586TIP3    H259250   0.878   6.589  10.899  0.4396  0.2298 -0.0205
12587TIP3   OH259251   2.897   4.946  11.460  0.8279  0.0383  0.1104
12587TIP3    H159252   2.932   4.857  11.464  0.9196  0.1056  0.8886
12587TIP3    H259253   2.974   5.002  11.462  0.7083  0.1805  1.6749
12588TIP3   OH259254   3.825   6.150   4.319  0.4712  0.6823  0.8544
12588TIP3    H159255   3.907   6.198   4.308  0.6980 -0.0809 -1.3718
12588TIP3    H259256   3.852   6.062   4.344  0.5828 -0.2142 -2.0438
12589TIP3   OH259257   2.830   3.292  16.220  0.0948 -0.0963  0.3069
12589TIP3    H159258   2.793   3.204  16.229 -1.6475  0.5599 -0.0039
12589TIP3    H259259   2.916   3.279  16.179 -0.4353 -1.6010 -0.3677
12590TIP3   OH259260   2.155   1.683  15.320  0.6262  0.7520  0.0016
12590TIP3    H159261   2.234   1.718  15.278 -1.1307  2.6496 -1.9553
12590TIP3    H259262   2.083   1.722  15.271 -1.6086 -2.8836  0.0078
12591TIP3   OH259263   3.555   0.124  14.182  0.5641 -0.3337 -0.0751
12591TIP3    H159264   3.626   0.149  14.242  0.5012 -0.0055 -0.1380
12591TIP3    H259265   3.574   0.170  14.101  0.2291 -0.1763 -0.0656
12592TIP3   OH259266   5.269   0.876   0.691 -0.2355  0.5614 -0.2181
12592TIP3    H159267   5.227   0.812   0.633  0.1044  0.3421 -0.2292
12592TIP3    H259268   5.200   0.903   0.751 -0.0299 -1.0074  0.8088
12593TIP3   OH259269   3.214   0.180   5.155 -0.3345  0.2987  0.7640
12593TIP3    H159270   3.135   0.142   5.117 -0.1092  2.0175 -1.6179
12593TIP3    H259271   3.281   0.113   5.142 -0.4528  0.5255 -1.2633
12594TIP3   OH259272   3.198   0.321   0.263 -0.8356  0.0438  0.7150
12594TIP3    H159273   3.225   0.298   0.174  0.6002  0.5969  0.9704
12594TIP3    H259274   3.134   0.390   0.252  0.0371  0.7840  0.1010
12595TIP3   OH259275   2.641   4.984   4.449 -0.4276 -0.2396 -0.2569
12595TIP3    H159276   2.670   5.020   4.532 -0.3307 -0.7880 -0.0480
12595TIP3    H259277   2.709   5.009   4.386 -0.0903 -0.5245 -0.0069
12596TIP3   OH259278   0.136   4.717   1.641  0.0276  0.0278  0.8062
12596TIP3    H159279   0.047   4.698   1.670  0.4694  0.4040  2.5364
12596TIP3    H259280   0.185   4.731   1.723  1.8858 -1.1077 -0.0576
12597TIP3   OH259281   2.332   1.241   5.934  0.2560  0.7471 -0.4451
12597TIP3    H159282   2.297   1.310   5.991  0.9645 -0.9167  2.1802
12597TIP3    H259283   2.375   1.180   5.994  0.2829 -1.6313 -2.7128
12598TIP3   OH259284   0.467   0.923  15.663  0.2880  0.0929  0.5232
12598TIP3    H159285   0.419   0.895  15.585 -1.3586  1.1709  1.0809
12598TIP3    H259286   0.494   1.012  15.644  2.3774 -0.5859  0.1257
12599TIP3   OH259287   1.213   5.000  12.506  0.6222 -0.6116 -0.1806
12599TIP3    H159288   1.258   5.006  12.590 -0.8372 -1.3061  0.6696
12599TIP3    H259289   1.218   4.907  12.482 -1.5219 -0.9755  0.6155
12600TIP3   OH259290   3.274   3.664   4.669 -0.2272  0.6811 -0.1577
12600TIP3    H159291   3.311   3.701   4.588 -0.0874  1.1826  0.1316
12600TIP3    H259292   3.188   3.704   4.676  0.0702  1.2540  0.3529
12601TIP3   OH259293   1.966   0.960  15.099 -0.8266  0.0697 -0.3374
12601TIP3    H159294   1.945   0.880  15.049 -0.6932 -0.2122  0.0512
12601TIP3    H259295   2.057   0.979  15.076 -0.8635  0.1216 -0.4430
12602TIP3   OH259296   1.099   0.226   5.664 -0.3452 -0.1117 -0.0547
12602TIP3    H159297   1.191   0.231   5.637  0.0912 -0.4678  1.2608
12602TIP3    H259298   1.103   0.199   5.756 -1.7720 -0.0654  0.0423
12603TIP3   OH259299   1.208   4.701  12.703 -0.3923  0.0157 -0.0571
12603TIP3    H159300   1.112   4.703  12.699 -0.3530  0.9077 -1.9965
12603TIP3    H259301   1.235   4.696  12.611  1.4309 -0.4731  0.4699
12604TIP3   OH259302   6.048   0.710  12.097  0.2822  0.5719  0.0689
12604TIP3    H159303   6.072   0.656  12.172  1.5155  1.7461  0.5421
12604TIP3    H259304   6.005   0.648  12.037 -0.9145 -0.3411  1.7865
12605TIP3   OH259305   0.070   3.345   3.243 -0.5698 -0.0994 -0.5941
12605TIP3    H159306   0.093   3.407   3.312  0.1018 -1.4755  0.4728
12605TIP3    H259307   0.097   3.260   3.278  0.0750 -0.8092 -2.6822
12606TIP3   OH259308   2.758   4.188  14.303  0.3888  0.4460  0.2176
12606TIP3    H159309   2.750   4.161  14.395 -0.6392 -2.2264 -0.5902
12606TIP3    H259310   2.673   4.225  14.281  1.0793  2.4662  0.6603
12607TIP3   OH259311   3.485   1.399   4.046  0.1816 -0.0906  0.5284
12607TIP3    H159312   3.549   1.470   4.039 -1.0108  0.8889 -1.2090
12607TIP3    H259313   3.472   1.368   3.956 -3.7844  1.7006  0.2482
12608TIP3   OH259314   2.841   2.215   0.089 -0.1221 -0.2030 -0.1639
12608TIP3    H159315   2.832   2.174   0.004  0.9914  2.1750 -1.5563
12608TIP3    H259316   2.837   2.309   0.070 -1.4727  0.4100  2.6406
12609TIP3   OH259317   1.761   1.648   1.718  0.1673  0.0687  0.1101
12609TIP3    H159318   1.791   1.716   1.658 -0.7474  1.5420  1.2299
12609TIP3    H259319   1.841   1.616   1.760  0.6584  0.0964 -0.7821
12610TIP3   OH259320   3.982   1.576   1.392  0.7369  0.0533 -0.3726
12610TIP3    H159321   4.042   1.508   1.422  0.9825  0.3032 -0.2949
12610TIP3    H259322   3.958   1.623   1.472 -0.6967 -0.9451 -0.1841
12611TIP3   OH259323   2.474   4.204  11.741 -0.4284  0.5052  0.1069
12611TIP3    H159324   2.424   4.223  11.820 -1.3604  1.0133 -0.5812
12611TIP3    H259325   2.502   4.290  11.709 -0.0556  0.3033 -0.1172
12612TIP3   OH259326   6.316   6.354   4.985  0.0282 -0.2379 -0.0521
12612TIP3    H159327   6.398   6.366   4.937  0.4987  0.2845  0.8595
12612TIP3    H259328   6.248   6.375   4.922  0.6310  0.2479 -0.5501
12613TIP3   OH259329   1.281   3.275   2.970 -0.1688  0.3930  0.3628
12613TIP3    H159330   1.222   3.233   2.908 -0.9191  0.5903  0.9265
12613TIP3    H259331   1.225   3.299   3.044  0.8294 -0.5312  1.4602
12614TIP3   OH259332   6.675   1.437  17.077  0.1333 -0.4282  0.1356
12614TIP3    H159333   6.639   1.352  17.053 -0.5743  0.0414 -0.4981
12614TIP3    H259334   6.685   1.484  16.994  1.7435 -0.3485  0.3359
12615TIP3   OH259335   4.236   5.385  13.284 -0.0644 -0.0702 -0.2415
12615TIP3    H159336   4.246   5.480  13.282  0.4157 -0.0956  0.4492
12615TIP3    H259337   4.240   5.363  13.377  0.6503 -0.8473 -0.4469
12616TIP3   OH259338   4.156   2.315   3.194  0.0405  0.2019 -0.1534
12616TIP3    H159339   4.175   2.349   3.107  1.1084  2.7534  0.9584
12616TIP3    H259340   4.071   2.353   3.217 -0.7407 -1.3004 -0.4216
12617TIP3   OH259341   6.607   6.692  14.499 -0.5309  0.1158 -0.3167
12617TIP3    H159342   6.621   6.779  14.463  1.0364 -0.2688 -0.7147
12617TIP3    H259343   6.643   6.696  14.588  0.6549 -0.4163 -0.7456
12618TIP3   OH259344   4.842   6.563  14.490 -0.3789 -0.5328 -0.1885
12618TIP3    H159345   4.936   6.569  14.503 -0.7090  1.7786  1.6485
12618TIP3    H259346   4.808   6.533  14.574 -1.3750 -0.5116 -0.5735
12619TIP3   OH259347   1.372   6.443   4.166  0.1992 -0.2087 -0.2478
12619TIP3    H159348   1.313   6.379   4.124  1.3807 -2.6648  1.5628
12619TIP3    H259349   1.329   6.464   4.249  1.0482 -0.7999  0.3668
12620TIP3   OH259350   1.968   4.256   3.911 -0.0218 -0.3721 -0.6250
12620TIP3    H159351   1.889   4.300   3.943  0.8883  0.3885  0.6468
12620TIP3    H259352   1.983   4.295   3.825 -0.9108 -0.3894 -0.8066
12621TIP3   OH259353   5.533   2.386  12.145 -0.6177 -0.1304  0.2097
12621TIP3    H159354   5.510   2.403  12.236 -2.1907  0.0534 -0.1811
12621TIP3    H259355   5.457   2.417  12.095  1.2301  2.1991 -1.3759
12622TIP3   OH259356   3.081   2.220   5.749  0.5680 -0.0313 -0.0852
12622TIP3    H159357   3.071   2.161   5.675  1.8478 -0.3611 -0.0322
12622TIP3    H259358   3.175   2.238   5.752  0.4390  0.5579  1.0107
12623TIP3   OH259359   5.929   4.908   0.877  0.2223 -0.1086 -0.3774
12623TIP3    H159360   5.882   4.866   0.949  0.2868  0.6243  0.1030
12623TIP3    H259361   5.861   4.952   0.827 -0.0137 -1.7919 -1.6153
12624TIP3   OH259362   2.837   1.960  11.984 -0.2592 -0.1118 -0.0941
12624TIP3    H159363   2.817   1.917  12.067  2.2833 -1.6065 -0.1599
12624TIP3    H259364   2.751   1.975  11.944 -1.4933 -0.1153  2.3949
12625TIP3   OH259365   5.636   3.921   3.339 -0.3862  0.3441 -0.6766
12625TIP3    H159366   5.615   4.007   3.300 -1.5636  0.9131  1.1084
12625TIP3    H259367   5.565   3.905   3.401  1.1829 -0.7415  0.9076
12626TIP3   OH259368   2.160   5.790   4.531 -0.4673  0.0030  0.4517
12626TIP3    H159369   2.231   5.834   4.484 -0.6398 -0.3533 -0.1500
12626TIP3    H259370   2.142   5.847   4.606 -0.4083  0.7524 -0.0884
12627TIP3   OH259371   1.154   6.110   2.375  0.1477  0.3666  0.0780
12627TIP3    H159372   1.242   6.118   2.410 -0.2739  1.1062  1.0089
12627TIP3    H259373   1.117   6.034   2.421  0.0951  0.4415  0.1613
12628TIP3   OH259374   6.159   1.390   1.436 -0.1525 -0.5608 -0.2320
12628TIP3    H159375   6.244   1.356   1.410 -0.1478 -0.4261 -0.3910
12628TIP3    H259376   6.102   1.370   1.361 -0.3678 -1.0716  0.0639
12629TIP3   OH259377   2.180   1.439   0.238 -0.1623 -0.0192 -0.1706
12629TIP3    H159378   2.221   1.382   0.303  0.8550 -0.5661 -1.2606
12629TIP3    H259379   2.170   1.523   0.283  1.3041 -0.1418  0.4401
12630TIP3   OH259380   3.382   4.412  12.814  0.2972 -0.0334  0.2289
12630TIP3    H159381   3.457   4.472  12.814 -0.1811  0.5791  0.3555
12630TIP3    H259382   3.306   4.470  12.816 -0.2376 -0.6052 -1.6563
12631TIP3   OH259383   4.699   3.578   2.194  0.2265  0.2507 -0.4298
12631TIP3    H159384   4.650   3.635   2.135  0.4027 -0.2912 -1.1058
12631TIP3    H259385   4.666   3.490   2.175  0.1228  0.0893  0.4434
12632TIP3   OH259386   0.362   1.706  10.605  0.2256  0.6481 -0.2709
12632TIP3    H159387   0.326   1.782  10.650  0.2694  0.9563 -0.7492
12632TIP3    H259388   0.440   1.739  10.559 -0.3285  0.5515 -1.3188
12633TIP3   OH259389   3.646   1.285   4.929  0.4559 -0.0352 -0.3666
12633TIP3    H159390   3.602   1.201   4.942 -0.1370  0.2916 -0.2122
12633TIP3    H259391   3.624   1.336   5.007  1.3234  0.0523 -0.1681
12634TIP3   OH259392   0.715   4.960  15.668 -0.2757 -0.2883 -0.6265
12634TIP3    H159393   0.660   4.955  15.746  0.8233  0.6140  0.2568
12634TIP3    H259394   0.692   4.883  15.616  0.5357 -2.1619  1.6538
12635TIP3   OH259395   2.773   1.502  17.218  0.3248  0.2919  0.1881
12635TIP3    H159396   2.788   1.587  17.175  1.1490  0.5866  1.0331
12635TIP3    H259397   2.860   1.463  17.225 -0.2265 -1.5003 -1.8853
12636TIP3   OH259398   6.675   1.507  16.182 -0.7589  0.1434  0.4223
12636TIP3    H159399   6.613   1.580  16.175 -1.7061 -0.6099  0.7334
12636TIP3    H259400   6.761   1.547  16.166 -1.4322  0.9721 -1.4828
12637TIP3   OH259401   5.334   3.717   1.693 -0.0636  0.1244  0.0928
12637TIP3    H159402   5.313   3.747   1.605 -0.6310 -0.1268  0.1382
12637TIP3    H259403   5.421   3.679   1.686 -0.3080 -0.3463 -0.4725
12638TIP3   OH259404   0.350   1.219  12.757 -0.4279  0.1017 -0.1870
12638TIP3    H159405   0.268   1.253  12.720  0.3408  1.3314 -0.8088
12638TIP3    H259406   0.366   1.139  12.707 -0.9660  0.1437 -0.4400
12639TIP3   OH259407   3.811   4.757   1.873 -0.3206  0.0696  0.1407
12639TIP3    H159408   3.864   4.715   1.805  0.6358  0.9426  0.3216
12639TIP3    H259409   3.872   4.815   1.918 -1.6875  2.0516 -0.4442
12640TIP3   OH259410   0.462   0.312   1.527 -0.1322  0.1121  0.5565
12640TIP3    H159411   0.415   0.230   1.541  2.3426 -1.2266  1.7061
12640TIP3    H259412   0.443   0.365   1.604 -0.9567  0.2341  0.2769
12641TIP3   OH259413   4.434   4.972  13.087  0.5321 -0.2472 -0.4210
12641TIP3    H159414   4.383   5.043  13.125 -0.8298 -0.7797 -1.1827
12641TIP3    H259415   4.491   5.015  13.023 -0.6428  0.1376 -1.2497
12642TIP3   OH259416   1.806   0.087   5.156 -0.1122  0.2110 -0.2208
12642TIP3    H159417   1.844   0.000   5.173 -1.5001 -0.4976 -0.5626
12642TIP3    H259418   1.797   0.091   5.061  0.0677  0.8031 -0.2155
12643TIP3   OH259419   3.794   2.276   0.437  0.0147  0.0156  0.3719
12643TIP3    H159420   3.848   2.200   0.457  0.5546 -0.8184 -3.4555
12643TIP3    H259421   3.704   2.244   0.444  0.2247 -0.8010 -0.4380
12644TIP3   OH259422   2.814   6.167   3.996  0.4659 -0.1652 -0.3922
12644TIP3    H159423   2.909   6.167   4.002  0.3878 -0.2202  1.2106
12644TIP3    H259424   2.795   6.224   3.920  1.7518 -0.1393 -0.7206
12645TIP3   OH259425   2.810   2.132   4.919  0.8818  0.5497  0.1026
12645TIP3    H159426   2.876   2.145   4.987  1.3152 -1.6675  0.1873
12645TIP3    H259427   2.847   2.065   4.863 -0.2770  1.0243 -1.2841
12646TIP3   OH259428   5.590   1.583   2.335  0.1331  0.7309  0.5335
12646TIP3    H159429   5.658   1.580   2.402  0.4721  1.1559  0.2135
12646TIP3    H259430   5.637   1.569   2.252 -0.4394 -1.0339  0.4684
12647TIP3   OH259431   2.356   2.155   3.840 -0.2476 -0.2232 -0.0619
12647TIP3    H159432   2.335   2.209   3.763  0.2893  0.1071  0.0197
12647TIP3    H259433   2.278   2.162   3.895  0.3699  1.7205  0.6433
12648TIP3   OH259434   2.169   2.679  11.722 -0.0765  0.1560 -0.3675
12648TIP3    H159435   2.207   2.758  11.683  2.4880  0.4992  2.3881
12648TIP3    H259436   2.123   2.711  11.800  2.5520 -1.0687  1.8377
12649TIP3   OH259437   0.418   2.920  15.129  0.1855  0.1930 -0.3237
12649TIP3    H159438   0.421   2.843  15.187 -2.2153 -0.3691 -0.8368
12649TIP3    H259439   0.376   2.988  15.182  1.9342  1.0849 -0.0089
12650TIP3   OH259440   5.952   0.843  12.434  0.2949  0.7191  0.4980
12650TIP3    H159441   5.940   0.772  12.496  0.2759 -0.2839 -0.6162
12650TIP3    H259442   5.895   0.821  12.360 -0.4438  2.3844  0.5138
12651TIP3   OH259443   2.676   3.332  10.869  0.1511 -0.2789 -0.1365
12651TIP3    H159444   2.600   3.310  10.815  0.3502  0.8516 -0.9141
12651TIP3    H259445   2.717   3.247  10.887 -1.8448 -1.0242  1.1962
12652TIP3   OH259446   2.315   1.555  12.479 -0.1915  0.1169  0.1194
12652TIP3    H159447   2.303   1.492  12.407 -0.7228  1.1433 -0.7210
12652TIP3    H259448   2.239   1.542  12.535 -1.4928  1.4833 -1.2344
12653TIP3   OH259449   0.185   2.975  14.794  0.2933 -0.4123 -0.0326
12653TIP3    H159450   0.154   3.001  14.707 -2.5873 -2.6987  0.1580
12653TIP3    H259451   0.149   3.041  14.853  1.7334  0.7938 -0.4372
12654TIP3   OH259452   1.310   4.882   5.149  0.4177  0.0821  0.1351
12654TIP3    H159453   1.379   4.881   5.083  0.0252 -0.4868 -0.2771
12654TIP3    H259454   1.271   4.969   5.142 -0.8922 -0.5982 -1.7405
12655TIP3   OH259455   2.901   2.179   0.827 -0.2537  0.2535  0.0694
12655TIP3    H159456   2.893   2.272   0.851 -2.3814  0.6524 -1.8274
12655TIP3    H259457   2.818   2.140   0.854  0.9758 -1.4274  1.7438
12656TIP3   OH259458   2.580   6.574  13.633 -0.8347  0.2978  0.4894
12656TIP3    H159459   2.545   6.505  13.577 -0.2429  0.5444 -0.2046
12656TIP3    H259460   2.674   6.558  13.634 -0.8602  0.1273  1.6647
12657TIP3   OH259461   0.576   0.154  16.516  0.0812  0.2359 -0.5889
12657TIP3    H159462   0.493   0.180  16.555  0.2164 -0.5969  0.2930
12657TIP3    H259463   0.596   0.069  16.555  2.2301  1.2013  0.6614
12658TIP3   OH259464   3.207   5.723  16.766 -0.3179 -0.2866  0.2627
12658TIP3    H159465   3.220   5.643  16.715  2.1921 -1.0299  1.8334
12658TIP3    H259466   3.214   5.694  16.857 -1.1342  1.4937  0.9293
12659TIP3   OH259467   1.950   5.969   5.395 -0.2992 -0.1063  0.3142
12659TIP3    H159468   1.860   6.002   5.396 -0.3625 -0.0663 -1.6846
12659TIP3    H259469   1.942   5.879   5.364  0.3476 -0.0134 -0.1502
12660TIP3   OH259470   0.223   2.862   6.248  0.6766 -0.3113 -0.2540
12660TIP3    H159471   0.274   2.929   6.201 -2.4757  1.9397 -0.8174
12660TIP3    H259472   0.135   2.870   6.212 -0.5747 -2.6213  1.9877
12661TIP3   OH259473   5.773   0.989  11.617 -0.4651 -0.2807 -0.2043
12661TIP3    H159474   5.757   0.954  11.529 -1.5825  0.3486 -0.2720
12661TIP3    H259475   5.688   0.985  11.660  0.1960 -1.1443  1.0760
12662TIP3   OH259476   2.682   1.636   1.441 -0.0438 -0.4774  0.2243
12662TIP3    H159477   2.715   1.635   1.530  0.5146  0.5697  0.0402
12662TIP3    H259478   2.736   1.701   1.396 -1.5572  0.3967 -0.3990
12663TIP3   OH259479   3.129   2.648  13.143  0.0765  0.1248 -0.6506
12663TIP3    H159480   3.097   2.667  13.055  1.5599  0.6171 -1.1314
12663TIP3    H259481   3.068   2.693  13.201 -0.1016  1.0304 -1.5042
12664TIP3   OH259482   2.813   2.491   0.036  0.3115  0.0726  0.6950
12664TIP3    H159483   2.742   2.505  -0.026 -1.5334  1.3499  2.9560
12664TIP3    H259484   2.888   2.537  -0.003 -0.7708  0.8422 -0.5517
12665TIP3   OH259485   1.915   4.870  13.401  0.5250 -0.1513  0.2420
12665TIP3    H159486   1.852   4.881  13.472 -0.2505 -0.3880 -0.3812
12665TIP3    H259487   1.871   4.909  13.325  0.5706 -1.5028 -0.5022
12666TIP3   OH259488   1.141   0.297  15.621  0.1223  0.2707 -0.6169
12666TIP3    H159489   1.056   0.264  15.648  0.6762 -1.2405 -0.6478
12666TIP3    H259490   1.185   0.222  15.581  2.4668  0.2676  1.7022
12667TIP3   OH259491   5.611   6.181   6.375 -0.3625 -0.7021 -0.3266
12667TIP3    H159492   5.539   6.180   6.438 -1.6866 -0.8036 -1.7974
12667TIP3    H259493   5.619   6.091   6.346  1.6317 -1.0753  1.1485
12668TIP3   OH259494   4.515   5.343   0.248 -0.2401 -0.0877  0.3843
12668TIP3    H159495   4.530   5.381   0.335 -0.5492 -0.2021  0.4850
12668TIP3    H259496   4.601   5.347   0.206 -0.5980  2.4281 -0.2839
12669TIP3   OH259497   3.674   4.161  10.491  0.3429 -0.4501  0.3860
12669TIP3    H159498   3.668   4.119  10.405  1.3512 -0.0500  0.0978
12669TIP3    H259499   3.726   4.240  10.474 -0.2855  0.1465  1.1830
12670TIP3   OH259500   6.086   6.779   4.755 -0.5518  0.6956  0.4779
12670TIP3    H159501   6.008   6.805   4.706 -0.3164 -0.3662 -0.5233
12670TIP3    H259502   6.067   6.690   4.785 -0.0650  0.7519  0.9714
12671TIP3   OH259503   0.816   4.095   6.085 -0.0971 -0.2401  0.2349
12671TIP3    H159504   0.789   4.181   6.053 -3.2597 -0.7205  1.2299
12671TIP3    H259505   0.846   4.049   6.007  0.5776  1.3536 -0.4969
12672TIP3   OH259506   1.869   5.062   3.001 -0.2514  0.4736 -0.3057
12672TIP3    H159507   1.776   5.083   2.994 -0.2746  0.3508 -0.3684
12672TIP3    H259508   1.883   4.993   2.936 -0.0031  0.8604 -0.6667
12673TIP3   OH259509   5.331   1.495  14.612 -0.5911  0.1649  0.1009
12673TIP3    H159510   5.395   1.564  14.595 -0.2967 -0.6645 -2.6367
12673TIP3    H259511   5.346   1.430  14.543 -2.3850 -1.5465  1.1850
12674TIP3   OH259512   4.809   5.383   6.050  0.7549  0.3047 -0.4209
12674TIP3    H159513   4.737   5.352   6.105  0.1618 -1.6088 -2.1220
12674TIP3    H259514   4.774   5.459   6.004  1.0641  1.5547  1.2906
12675TIP3   OH259515   6.333   6.735   0.012  0.5638  0.0215 -0.0338
12675TIP3    H159516   6.274   6.794   0.059  1.2782  1.2640 -0.6374
12675TIP3    H259517   6.357   6.783  -0.067  0.3804 -1.5035 -1.0713
12676TIP3   OH259518   3.359   2.766  14.499 -0.4386 -0.1092 -0.5041
12676TIP3    H159519   3.394   2.690  14.545 -0.7828  0.7864  1.2979
12676TIP3    H259520   3.264   2.760  14.511 -0.3870  1.4509  1.1214
12677TIP3   OH259521   6.624   6.804  12.708  0.0939  0.2568  0.0421
12677TIP3    H159522   6.605   6.897  12.697  0.2606  0.4408  1.2322
12677TIP3    H259523   6.577   6.762  12.635 -0.7674  1.1797  0.0358
12678TIP3   OH259524   0.875   3.009   1.874 -0.3225  0.0605  0.2478
12678TIP3    H159525   0.834   2.923   1.869  0.2463 -0.2508  0.7193
12678TIP3    H259526   0.966   2.991   1.900 -0.3151  0.8276  0.8038
12679TIP3   OH259527   4.438   5.001   1.044  0.2018 -0.1267  0.1431
12679TIP3    H159528   4.427   5.064   1.116 -1.4980 -2.0485  1.7134
12679TIP3    H259529   4.369   5.023   0.982  0.6761  0.5611 -0.1541
12680TIP3   OH259530   5.998   0.527  11.905  0.4894 -0.4382 -0.0204
12680TIP3    H159531   5.908   0.521  11.872  0.1176 -2.4916  1.1956
12680TIP3    H259532   6.052   0.492  11.835 -0.0321 -2.3471  0.4783
12681TIP3   OH259533   6.110   4.900  11.132  0.4168  0.1392 -0.4177
12681TIP3    H159534   6.076   4.951  11.206 -0.3166 -0.1767 -0.5333
12681TIP3    H259535   6.187   4.949  11.103 -0.2676  1.1906 -0.5254
12682TIP3   OH259536   0.047   5.005   2.612 -0.1357  0.2416  0.8633
12682TIP3    H159537   0.071   4.912   2.602 -1.2660  0.1401 -1.8171
12682TIP3    H259538  -0.048   5.006   2.601 -0.1555  1.7018  1.0794
12683TIP3   OH259539   3.069   1.434  11.261 -0.4452  0.5422 -0.3056
12683TIP3    H159540   2.973   1.433  11.257 -0.4044  0.1622 -1.8636
12683TIP3    H259541   3.096   1.370  11.195  0.8865  0.5077  0.2483
12684TIP3   OH259542   6.377   6.395   2.466 -0.0291  0.0092 -0.0469
12684TIP3    H159543   6.318   6.342   2.519 -0.8929  0.4702 -0.5277
12684TIP3    H259544   6.398   6.471   2.520 -0.4256  0.1812 -0.1356
12685TIP3   OH259545   0.198   5.016  11.047  0.0981  0.1719 -0.7065
12685TIP3    H159546   0.216   4.966  10.968  0.3686  1.4041 -1.4602
12685TIP3    H259547   0.104   5.032  11.045 -0.1461 -1.0762  0.0288
12686TIP3   OH259548   1.702   0.703   4.991 -0.2142  0.1501  0.1397
12686TIP3    H159549   1.728   0.789   5.025  0.0539  0.1788 -0.1367
12686TIP3    H259550   1.760   0.687   4.917  1.3648 -1.3104  1.5988
12687TIP3   OH259551   3.260   3.082  16.018  0.0704 -0.5662  0.7067
12687TIP3    H159552   3.195   3.105  15.951  1.3429 -0.2462 -0.4727
12687TIP3    H259553   3.250   2.987  16.029 -1.9497 -0.2336  2.0561
12688TIP3   OH259554   2.560   2.727   4.441 -0.5286  0.0916 -0.3075
12688TIP3    H159555   2.654   2.734   4.457 -0.6280 -1.2769  1.1289
12688TIP3    H259556   2.553   2.693   4.352  0.2882  1.0406 -0.7622
12689TIP3   OH259557   2.935   3.955   0.611  0.2713  0.3018  0.7683
12689TIP3    H159558   2.971   3.877   0.654  0.3297 -0.3421 -0.4296
12689TIP3    H259559   3.011   3.999   0.573 -0.0154 -0.3605 -0.6316
12690TIP3   OH259560   2.113   0.203  15.610 -0.1097 -0.0727  0.5411
12690TIP3    H159561   2.059   0.264  15.560 -0.5188 -1.3836 -0.6868
12690TIP3    H259562   2.070   0.198  15.695 -0.9925  0.1392  0.1223
12691TIP3   OH259563   1.054   4.766   1.443  0.2750 -0.5799 -0.1245
12691TIP3    H159564   1.044   4.859   1.427  0.7708  0.1492  3.0674
12691TIP3    H259565   0.966   4.737   1.470 -0.5265 -1.7278 -3.5137
12692TIP3   OH259566   1.472   2.436   3.352 -0.1125  0.6237 -0.2988
12692TIP3    H159567   1.480   2.531   3.345  0.0432  0.4718 -4.0359
12692TIP3    H259568   1.548   2.401   3.306 -0.8627 -1.3156 -0.1840
12693TIP3   OH259569   3.311   0.282  16.411 -0.0227  0.0826 -0.5572
12693TIP3    H159570   3.234   0.283  16.467 -0.3480 -2.6828 -0.8237
12693TIP3    H259571   3.276   0.272  16.322  0.6108 -0.6261 -0.7371
12694TIP3   OH259572   3.588   4.003  14.652  0.5918 -0.0922  0.1194
12694TIP3    H159573   3.525   4.061  14.695  1.0254  1.8501 -1.6976
12694TIP3    H259574   3.535   3.934  14.614 -0.0600 -0.3465  1.4464
12695TIP3   OH259575   2.564   5.887   5.431 -0.0253 -0.7825  0.7948
12695TIP3    H159576   2.618   5.818   5.394 -0.1571 -1.4600  1.8267
12695TIP3    H259577   2.475   5.853   5.426 -0.4039  0.3472 -0.9426
12696TIP3   OH259578   4.464   5.540  11.050  0.0062  0.0533  0.0095
12696TIP3    H159579   4.500   5.458  11.085  0.7688  1.0065  1.5861
12696TIP3    H259580   4.434   5.517  10.962  1.9979 -1.4766 -0.3625
12697TIP3   OH259581   1.834   0.993   1.591 -0.4422  0.1820 -0.8896
12697TIP3    H159582   1.824   0.897   1.593  1.1521 -0.0291 -1.4584
12697TIP3    H259583   1.754   1.025   1.551 -0.8551 -0.9478 -1.0003
12698TIP3   OH259584   2.374   4.572  14.400 -0.8082 -0.0654  0.8287
12698TIP3    H159585   2.297   4.603  14.448 -1.4532 -1.0998  0.5036
12698TIP3    H259586   2.402   4.647  14.348 -1.2146  0.5136  1.4335
12699TIP3   OH259587   6.383   5.560  11.390  0.4492  0.9075 -0.2127
12699TIP3    H159588   6.435   5.486  11.359 -0.0886  0.6084 -0.4075
12699TIP3    H259589   6.294   5.526  11.399  0.2371  1.4710 -0.0950
12700TIP3   OH259590   4.140   6.613   0.616 -0.1582 -0.8751 -0.0624
12700TIP3    H159591   4.070   6.583   0.675  1.6535 -1.4003  1.9603
12700TIP3    H259592   4.129   6.708   0.612 -0.2775 -0.8146  1.2543
12701TIP3   OH259593   1.186   5.401   5.970 -0.1662  0.0202 -0.0215
12701TIP3    H159594   1.206   5.393   6.063 -1.2194  0.5031  0.2593
12701TIP3    H259595   1.090   5.394   5.965 -0.2364  1.2497 -0.9246
12702TIP3   OH259596   3.066   1.435  17.194  0.1978  0.5099 -0.0512
12702TIP3    H159597   3.129   1.498  17.228  2.0524 -1.2242 -0.0701
12702TIP3    H259598   3.068   1.447  17.099 -0.9748  1.7289  0.0493
12703TIP3   OH259599   6.816   2.538   6.472 -0.2512 -0.6993 -0.1175
12703TIP3    H159600   6.733   2.498   6.447 -0.3481 -0.2740 -0.5060
12703TIP3    H259601   6.836   2.502   6.558 -0.6979 -1.0156 -0.1452
12704TIP3   OH259602   1.022   3.533  13.516 -0.0613 -0.3792 -0.3284
12704TIP3    H159603   1.008   3.535  13.421  1.0222  0.4885 -0.4925
12704TIP3    H259604   1.013   3.441  13.539  0.7113 -0.7641 -1.4495
12705TIP3   OH259605   5.019   1.124  16.534  0.2569 -0.3953 -0.0148
12705TIP3    H159606   5.077   1.081  16.471 -0.7656 -0.6784 -0.7881
12705TIP3    H259607   5.049   1.093  16.619  0.0046 -2.1129 -0.5119
12706TIP3   OH259608   4.745   1.076   0.637  0.1768 -0.2908 -0.1339
12706TIP3    H159609   4.670   1.067   0.577  0.1079 -2.3387  0.1779
12706TIP3    H259610   4.722   1.150   0.693 -1.4753 -0.6284 -0.2936
12707TIP3   OH259611   3.511   3.081  13.000 -0.6387 -0.0344 -0.5694
12707TIP3    H159612   3.453   3.011  12.967 -1.6693  0.7876 -0.5736
12707TIP3    H259613   3.524   3.138  12.924  0.7209 -0.5499 -0.7361
12708TIP3   OH259614   5.404   6.655  12.739 -0.3374  0.3865  0.2200
12708TIP3    H159615   5.343   6.707  12.790 -2.5457  1.3344 -3.0504
12708TIP3    H259616   5.468   6.718  12.705  1.9484 -0.4301  2.6747
12709TIP3   OH259617   5.082   0.199   2.724 -0.3099 -0.0948 -0.5255
12709TIP3    H159618   5.116   0.118   2.687 -0.4209  0.0505 -0.9527
12709TIP3    H259619   5.158   0.242   2.763 -0.4666 -0.9955  0.8345
12710TIP3   OH259620   3.258   6.252   4.399 -0.3661  0.1510 -0.3235
12710TIP3    H159621   3.171   6.278   4.371 -1.5222 -1.6661  1.2960
12710TIP3    H259622   3.297   6.332   4.435 -2.0767  0.6201  0.5655
12711TIP3   OH259623   3.864   3.448  12.954  0.2090  0.5279 -0.2660
12711TIP3    H159624   3.882   3.537  12.987 -1.1888  0.9470 -0.5823
12711TIP3    H259625   3.949   3.417  12.923  0.6227  1.9882 -0.6922
12712TIP3   OH259626   0.366   6.007   3.357 -0.3648 -0.0059  0.3801
12712TIP3    H159627   0.339   6.007   3.449 -0.4117  0.0559  0.3670
12712TIP3    H259628   0.315   6.078   3.318  0.5383  0.7792  0.5673
12713TIP3   OH259629   6.001   1.803  14.785  0.0225  0.6667 -0.6912
12713TIP3    H159630   5.963   1.882  14.747  1.1647  1.6957  0.2323
12713TIP3    H259631   6.079   1.786  14.733 -1.3652 -1.1999 -2.3147
12714TIP3   OH259632   4.271   5.657  15.435  0.3225 -0.4345  0.6037
12714TIP3    H159633   4.319   5.705  15.368  1.5519 -0.0557  1.7267
12714TIP3    H259634   4.278   5.711  15.514  2.0036 -2.5449  2.0019
12715TIP3   OH259635   1.660   5.287  11.768 -0.4480  0.7716 -0.1413
12715TIP3    H159636   1.681   5.340  11.690 -0.0052  1.1188  0.2094
12715TIP3    H259637   1.605   5.345  11.821 -0.5750  0.6082 -0.0946
12716TIP3   OH259638   6.220   0.121   2.975 -0.2605 -0.1181  0.5251
12716TIP3    H159639   6.129   0.138   2.951 -0.3165  1.2510  1.5545
12716TIP3    H259640   6.271   0.153   2.900 -0.6001 -0.3441  0.1936
12717TIP3   OH259641   5.535   6.728  11.604  0.4094  0.1856  0.7136
12717TIP3    H159642   5.499   6.694  11.522  3.6179 -0.6585 -0.4575
12717TIP3    H259643   5.460   6.730  11.663 -1.4427 -1.8984 -1.3682
12718TIP3   OH259644   6.822   0.623   5.658  0.2787 -0.1159  0.0251
12718TIP3    H159645   6.910   0.656   5.641 -1.0078  3.0172 -1.4829
12718TIP3    H259646   6.781   0.692   5.711 -1.4069 -1.3017  0.3348
12719TIP3   OH259647   6.068   5.177   0.048 -0.2710  0.6238 -0.1968
12719TIP3    H159648   6.135   5.121   0.088  0.4010  0.2261 -1.8073
12719TIP3    H259649   6.015   5.207   0.122  0.0355 -1.2178  0.8330
12720TIP3   OH259650   1.316   5.721  11.083  0.1047  0.3363 -0.2162
12720TIP3    H159651   1.287   5.747  10.996 -0.7202 -1.0067 -0.3665
12720TIP3    H259652   1.242   5.740  11.140 -0.7511 -2.0506 -0.4175
12721TIP3   OH259653   6.485   2.587   5.822  0.1341  0.0030 -0.5599
12721TIP3    H159654   6.477   2.503   5.776  1.3226  0.1135 -0.9928
12721TIP3    H259655   6.514   2.649   5.755 -0.6531  0.7515 -0.2260
12722TIP3   OH259656   3.380   5.048  15.044  0.1495 -0.6652  0.2289
12722TIP3    H159657   3.441   4.993  14.994 -0.3091 -0.7436 -0.2503
12722TIP3    H259658   3.309   4.989  15.069 -0.9340 -0.0574 -1.2965
12723TIP3   OH259659   6.719   2.020  15.022 -0.3297 -0.1125 -0.4079
12723TIP3    H159660   6.689   1.984  15.106  0.4850  1.5430  0.6366
12723TIP3    H259661   6.812   2.035  15.034 -0.4107  1.1605 -1.2368
12724TIP3   OH259662   4.509   1.826   1.543  0.1533 -0.4398 -0.4433
12724TIP3    H159663   4.474   1.913   1.524  0.0954 -0.5852 -1.0217
12724TIP3    H259664   4.446   1.766   1.503 -0.1913 -0.7742  0.5776
12725TIP3   OH259665   3.281   0.334  16.855 -0.0413 -0.1996 -0.1896
12725TIP3    H159666   3.360   0.308  16.807 -0.1906 -0.2046 -0.4345
12725TIP3    H259667   3.312   0.400  16.917  0.3712 -1.0929  0.5727
12726TIP3   OH259668   2.247   4.420   4.110  0.0648  0.3156 -0.2662
12726TIP3    H159669   2.279   4.335   4.078  0.2438  0.7483 -1.2642
12726TIP3    H259670   2.282   4.426   4.199 -1.5309 -1.5036  0.5632
12727TIP3   OH259671   2.487   4.171  11.192 -0.0161  0.2495  0.6782
12727TIP3    H159672   2.527   4.185  11.278  0.0781 -0.3035  0.7288
12727TIP3    H259673   2.469   4.077  11.189  1.5487 -0.0678 -0.5590
12728TIP3   OH259674   4.603   0.277  14.887  0.1914 -0.5430  0.2179
12728TIP3    H159675   4.579   0.262  14.979  0.3313 -2.2370  0.0243
12728TIP3    H259676   4.698   0.278  14.887  0.1899  0.1455  0.1681
12729TIP3   OH259677   4.540   1.302  12.540 -0.4168  0.2793 -0.0509
12729TIP3    H159678   4.569   1.226  12.489 -1.3599 -0.8646  1.0336
12729TIP3    H259679   4.607   1.313  12.607 -0.9237 -0.4704  0.6064
12730TIP3   OH259680   2.575   1.335   0.001 -0.4096 -0.0253 -0.1993
12730TIP3    H159681   2.613   1.264  -0.051 -0.2594 -0.4078  0.4245
12730TIP3    H259682   2.638   1.406  -0.006  0.7904 -0.8857  1.3895
12731TIP3   OH259683   4.562   4.083  16.493 -0.8089  0.1963  0.1673
12731TIP3    H159684   4.563   4.127  16.578  2.6211  0.3377  0.2033
12731TIP3    H259685   4.609   4.000  16.508 -0.5053  0.0289 -1.4784
12732TIP3   OH259686   3.981   6.753  13.756 -0.3288 -0.2661  0.1680
12732TIP3    H159687   3.906   6.799  13.793  0.4865  1.8455 -0.6864
12732TIP3    H259688   3.966   6.661  13.780 -3.0721  0.0946  0.1789
12733TIP3   OH259689   0.698   3.908   5.342  0.7283  0.3338 -0.3430
12733TIP3    H159690   0.660   3.866   5.420 -1.0628  2.1445 -0.1709
12733TIP3    H259691   0.762   3.844   5.310  0.8472 -0.8734  2.0562
12734TIP3   OH259692   0.277   5.315  15.324 -0.1023  0.0398  0.0718
12734TIP3    H159693   0.237   5.340  15.407 -0.7301 -0.1047 -0.1832
12734TIP3    H259694   0.264   5.220  15.318 -0.6825  0.1460 -0.5108
12735TIP3   OH259695   4.276   0.132  15.312  0.0432  0.1183  0.1132
12735TIP3    H159696   4.269   0.152  15.219  2.0770  0.1015 -0.0792
12735TIP3    H259697   4.292   0.038  15.315  1.8166  0.4035  0.3491
12736TIP3   OH259698   0.802   1.402  15.853 -0.4334 -0.4412 -0.0845
12736TIP3    H159699   0.814   1.320  15.804  0.9682 -1.8163  2.3470
12736TIP3    H259700   0.890   1.438  15.862 -0.8622  0.6086  0.0747
12737TIP3   OH259701   2.141   6.344   3.033  0.0891  0.0040 -0.0639
12737TIP3    H159702   2.110   6.341   3.123 -0.8632 -0.0875 -0.3838
12737TIP3    H259703   2.064   6.323   2.980  0.8030 -0.6684 -0.8692
12738TIP3   OH259704   4.576   4.586  13.306  0.2018 -0.0711  0.5131
12738TIP3    H159705   4.634   4.653  13.343  0.2439  0.2722 -0.1500
12738TIP3    H259706   4.488   4.623  13.315  0.3353  0.8740 -1.3585
12739TIP3   OH259707   6.197   3.173   5.359 -1.0510  0.0474 -0.2863
12739TIP3    H159708   6.103   3.186   5.365 -0.9689  0.2737  0.6054
12739TIP3    H259709   6.208   3.077   5.361 -1.1649  0.0347  1.5880
12740TIP3   OH259710   6.608   0.771  13.379  0.5334  0.2058 -0.1776
12740TIP3    H159711   6.661   0.691  13.376  0.1413 -0.0800  0.3912
12740TIP3    H259712   6.550   0.764  13.304  0.9888  0.3079 -0.5481
12741TIP3   OH259713   2.101   2.958  12.918  0.5074 -0.5007 -0.3244
12741TIP3    H159714   2.182   3.003  12.942  0.5146 -0.1522 -0.9706
12741TIP3    H259715   2.097   2.966  12.823 -1.0892  0.8984 -0.1941
12742TIP3   OH259716   1.860   5.884   3.787 -0.1239  0.6678 -0.4569
12742TIP3    H159717   1.875   5.917   3.875  1.4174 -1.2420  0.0757
12742TIP3    H259718   1.826   5.959   3.739 -1.6525  1.6036  1.8922
12743TIP3   OH259719   1.609   3.889   4.286 -0.8350  0.1434 -0.0197
12743TIP3    H159720   1.696   3.904   4.247 -0.2681 -1.8519  0.3551
12743TIP3    H259721   1.610   3.942   4.366  0.1365 -0.0198  0.0943
12744TIP3   OH259722   6.414   3.278  11.444  0.0220  0.1698  0.3419
12744TIP3    H159723   6.346   3.345  11.455 -0.0500  0.1547 -0.0112
12744TIP3    H259724   6.399   3.217  11.516 -0.4831  0.0462  0.1352
12745TIP3   OH259725   1.035   6.399  12.174 -0.0079 -0.0000 -0.0438
12745TIP3    H159726   0.953   6.356  12.148  0.3318 -0.7681  0.0984
12745TIP3    H259727   1.103   6.337  12.147  0.5701  0.9319 -0.7558
12746TIP3   OH259728   5.224   1.455  12.116  0.3493  0.7412 -0.0260
12746TIP3    H159729   5.169   1.409  12.180  0.5552  2.2963  1.3517
12746TIP3    H259730   5.171   1.458  12.037 -0.6456  0.2594  0.5936
12747TIP3   OH259731   1.794   1.190   0.345 -0.2107  0.4180  0.5026
12747TIP3    H159732   1.836   1.110   0.313  0.0355 -0.3554  2.6077
12747TIP3    H259733   1.700   1.170   0.343 -0.2240  0.5099 -0.0158
12748TIP3   OH259734   6.347   6.364   1.779  0.5140 -0.3675  0.5104
12748TIP3    H159735   6.353   6.410   1.696 -0.2178  1.0397  1.2096
12748TIP3    H259736   6.365   6.272   1.757 -0.5810 -0.1779 -1.3356
12749TIP3   OH259737   4.373   3.342  16.358 -0.5580 -0.4923  0.1876
12749TIP3    H159738   4.311   3.406  16.322  1.9896  0.7223 -2.5393
12749TIP3    H259739   4.420   3.390  16.426  0.0720 -0.0234 -0.5549
12750TIP3   OH259740   4.071   1.051   4.885  0.3515 -0.2536 -0.2371
12750TIP3    H159741   4.002   0.986   4.892  0.2163 -0.1441 -0.5731
12750TIP3    H259742   4.145   1.004   4.846 -0.2241  0.1519 -1.8832
12751TIP3   OH259743   6.531   1.031  16.494 -0.3776  0.7148  0.7859
12751TIP3    H159744   6.490   1.100  16.546 -0.4753 -0.3176  2.1251
12751TIP3    H259745   6.607   1.004  16.545 -0.8448 -0.7867  0.7379
12752TIP3   OH259746   1.872   0.569  13.759 -0.7331  0.7117  0.1457
12752TIP3    H159747   1.818   0.555  13.681 -1.6989 -1.5128  1.1472
12752TIP3    H259748   1.952   0.520  13.741  0.3811  2.7312 -0.6807
12753TIP3   OH259749   3.582   2.305   5.881  0.0866 -0.6930 -0.8964
12753TIP3    H159750   3.567   2.235   5.944  0.4296  0.2823  0.2932
12753TIP3    H259751   3.677   2.313   5.875  0.0485 -0.3630 -1.0688
12754TIP3   OH259752   1.671   3.751   3.723 -0.1027  0.2898 -0.3812
12754TIP3    H159753   1.739   3.804   3.682  0.3049 -1.7676 -2.5467
12754TIP3    H259754   1.632   3.703   3.651 -0.5805 -2.1978  1.4341
12755TIP3   OH259755   0.261   4.340   1.390  0.0479  0.2005  0.3285
12755TIP3    H159756   0.325   4.378   1.331 -0.7810 -0.3071 -0.9544
12755TIP3    H259757   0.201   4.292   1.333  0.3539 -2.0425  1.7333
12756TIP3   OH259758   5.836   2.173  14.944 -0.8683  0.1432 -0.1322
12756TIP3    H159759   5.858   2.086  14.979  2.7207  1.3206  0.9922
12756TIP3    H259760   5.771   2.207  15.005 -0.8455 -0.9905  0.5669
12757TIP3   OH259761   4.955   5.345  12.010  0.0065  0.4690  0.4616
12757TIP3    H159762   4.990   5.411  11.950  0.9154  0.9932  1.5342
12757TIP3    H259763   5.002   5.359  12.091 -0.9176 -0.4902  1.1937
12758TIP3   OH259764   6.462   4.483   5.729  0.4542  0.3105  0.0007
12758TIP3    H159765   6.498   4.449   5.811  2.5939 -0.3440 -1.1446
12758TIP3    H259766   6.522   4.553   5.703  0.8879 -0.7171 -1.9199
12759TIP3   OH259767   5.095   5.976   0.006 -0.3753 -0.3824  0.2293
12759TIP3    H159768   5.100   6.053   0.063 -1.3144 -1.0692  1.2864
12759TIP3    H259769   5.150   5.998  -0.069 -1.3536  1.7133  0.0436
12760TIP3   OH259770   6.470   1.656   3.025 -0.5210 -0.7329 -0.2754
12760TIP3    H159771   6.423   1.693   2.950 -1.1592 -4.2829 -1.8066
12760TIP3    H259772   6.532   1.595   2.986  2.2275  0.4309  1.9700
12761TIP3   OH259773   6.184   5.279   4.470 -0.3079  0.7620  0.2114
12761TIP3    H159774   6.182   5.183   4.461  1.4948  0.6966  0.1708
12761TIP3    H259775   6.141   5.296   4.554 -0.6190 -0.0769  0.2321
12762TIP3   OH259776   6.779   3.430  16.220  0.2029  0.1161 -0.3094
12762TIP3    H159777   6.799   3.520  16.198 -0.7039  0.7298  1.2330
12762TIP3    H259778   6.862   3.394  16.251  0.1788  0.9700  0.7883
12763TIP3   OH259779   3.753   2.252  13.996 -0.0358  0.7203 -0.0230
12763TIP3    H159780   3.733   2.185  14.061 -0.1999 -0.0825 -0.8726
12763TIP3    H259781   3.667   2.284  13.967  0.0061  0.3204 -0.6009
12764TIP3   OH259782   1.895   4.735  13.066 -0.3214  0.6291 -0.8060
12764TIP3    H159783   1.807   4.707  13.039 -0.2053  0.3582 -0.9096
12764TIP3    H259784   1.924   4.669  13.129 -0.9836  1.7926  0.7781
12765TIP3   OH259785   1.179   1.106   1.003 -0.1347  0.4786 -0.0061
12765TIP3    H159786   1.261   1.080   1.045  0.4660  1.2797 -0.6550
12765TIP3    H259787   1.175   1.201   1.014 -1.2456  0.3915  0.4758
12766TIP3   OH259788   0.241   6.436  12.907 -0.0800 -0.1388 -0.3084
12766TIP3    H159789   0.256   6.459  12.815  0.9977  1.6510  0.2688
12766TIP3    H259790   0.296   6.358  12.920  1.1419  0.6146 -0.7548
12767TIP3   OH259791   4.780   2.498  17.201 -0.0396  0.1107  0.2847
12767TIP3    H159792   4.868   2.463  17.189  0.7249  2.3158 -1.3289
12767TIP3    H259793   4.793   2.575  17.256 -0.6111  1.5184 -1.4452
12768TIP3   OH259794   4.431   2.010   0.779 -0.2831 -0.2043 -0.0604
12768TIP3    H159795   4.458   1.922   0.753  2.0578  0.3344  0.3275
12768TIP3    H259796   4.477   2.026   0.861  0.5517  1.8999 -0.8526
12769TIP3   OH259797   6.419   4.054  16.708  0.2970  0.0099  1.2342
12769TIP3    H159798   6.426   4.133  16.653  1.9292 -0.2126  1.0743
12769TIP3    H259799   6.400   4.088  16.796  1.2632  0.6239  1.2232
12770TIP3   OH259800   5.822   0.357  11.124 -0.4760 -0.1570 -0.2028
12770TIP3    H159801   5.736   0.345  11.085 -0.4425 -1.1824  0.0123
12770TIP3    H259802   5.804   0.370  11.217 -0.3176 -2.3636  0.1787
12771TIP3   OH259803   3.019   1.994   3.177  0.0380 -0.1735 -0.6282
12771TIP3    H159804   3.050   1.904   3.179 -1.1085 -0.5803 -0.7889
12771TIP3    H259805   2.945   1.996   3.237  0.2031  0.7236 -0.4357
12772TIP3   OH259806   1.668   0.478  11.606  0.0339 -0.6903 -0.5480
12772TIP3    H159807   1.761   0.455  11.614 -0.3273 -1.9813  0.2472
12772TIP3    H259808   1.659   0.510  11.516  1.0846 -1.4329 -0.9395
12773TIP3   OH259809   0.166   4.545   5.015  0.3849  0.0788  0.4660
12773TIP3    H159810   0.205   4.588   5.091  0.2345 -0.3400  0.7881
12773TIP3    H259811   0.193   4.453   5.023 -1.2700 -0.3815  1.1146
12774TIP3   OH259812   0.083   1.635  16.158 -0.0786  0.5345  0.2171
12774TIP3    H159813   0.108   1.694  16.086 -1.2862  1.3076  0.3933
12774TIP3    H259814   0.166   1.610  16.199  0.7429 -0.6741 -1.9860
12775TIP3   OH259815   4.115   2.064   3.049  0.0555  0.4694  0.6015
12775TIP3    H159816   4.190   2.053   3.106 -0.4700 -0.2927  1.1649
12775TIP3    H259817   4.106   1.980   3.004 -0.3722  0.5960  0.4393
12776TIP3   OH259818   4.586   5.699   1.159  0.7350 -0.2212  0.5725
12776TIP3    H159819   4.677   5.729   1.155  0.9925 -0.2411  3.5457
12776TIP3    H259820   4.537   5.777   1.186  0.3179 -0.8022  1.5520
12777TIP3   OH259821   4.818   4.003   1.387 -0.1682  0.5695  0.6014
12777TIP3    H159822   4.822   3.951   1.468 -0.6468  0.1913  0.3863
12777TIP3    H259823   4.831   4.093   1.417 -3.3791  0.8511  1.5600
12778TIP3   OH259824   3.761   4.266   4.856  0.4945 -0.1146  0.3091
12778TIP3    H159825   3.747   4.322   4.780 -1.0586 -0.7708  0.0735
12778TIP3    H259826   3.739   4.178   4.825  1.9236 -0.7246  0.9417
12779TIP3   OH259827   0.225   2.149  15.318 -0.4823 -0.8300 -0.3238
12779TIP3    H159828   0.176   2.072  15.344  2.0517 -2.5884 -0.3555
12779TIP3    H259829   0.224   2.147  15.222 -1.8217  0.1974 -0.3588
12780TIP3   OH259830   1.296   3.467  12.542  0.2715 -0.9434 -0.1955
12780TIP3    H159831   1.332   3.402  12.602  0.9624  0.3092  0.8043
12780TIP3    H259832   1.248   3.528  12.599 -0.5305 -0.6688 -1.1284
12781TIP3   OH259833   4.328   6.581  16.960 -0.4202 -0.1356  0.0696
12781TIP3    H159834   4.317   6.644  16.889 -2.2807 -1.1198 -0.5739
12781TIP3    H259835   4.290   6.625  17.037  0.3689  0.3944  0.1722
12782TIP3   OH259836   0.702   4.463  14.719  0.5293 -0.7056  0.1329
12782TIP3    H159837   0.676   4.371  14.714 -1.5074 -0.2733  1.3644
12782TIP3    H259838   0.697   4.495  14.629 -0.2677 -1.4357 -0.0957
12783TIP3   OH259839   6.795   1.648  14.556 -0.0760  0.2611  0.4547
12783TIP3    H159840   6.721   1.691  14.512  0.5820  0.8698 -0.0908
12783TIP3    H259841   6.800   1.691  14.641 -0.1307  0.4826  0.3498
12784TIP3   OH259842   0.656   1.552   1.481  0.2305 -0.0894  0.3589
12784TIP3    H159843   0.670   1.622   1.418 -0.3062 -0.5429 -0.2862
12784TIP3    H259844   0.712   1.480   1.451  0.7823  0.0525  1.0182
12785TIP3   OH259845   3.152   0.503  11.492  0.0751 -0.4626  0.4913
12785TIP3    H159846   3.237   0.514  11.450  0.1078 -1.9435  0.0840
12785TIP3    H259847   3.121   0.418  11.460 -1.3078 -0.2021  1.0647
12786TIP3   OH259848   3.360   0.982   0.043  0.2194  0.1377 -0.1901
12786TIP3    H159849   3.432   0.924   0.065  1.4239  1.7436  0.2691
12786TIP3    H259850   3.325   1.010   0.127  0.1923  0.7230 -0.3926
12787TIP3   OH259851   6.322   2.450  14.972 -0.0858 -0.2406  0.3552
12787TIP3    H159852   6.289   2.491  15.052  2.0319 -0.7634  1.5610
12787TIP3    H259853   6.310   2.516  14.904 -0.7453  0.6914  1.3478
12788TIP3   OH259854   4.084   2.019   0.863 -0.2581 -0.5360 -0.2059
12788TIP3    H159855   4.157   2.078   0.877 -1.1083 -0.0087  2.4446
12788TIP3    H259856   4.123   1.931   0.866  0.6269 -0.2296 -1.6605
12789TIP3   OH259857   6.564   3.162   0.052 -0.0946 -0.6412 -0.1135
12789TIP3    H159858   6.628   3.203   0.110 -1.5793  1.4932  0.1483
12789TIP3    H259859   6.587   3.194  -0.035 -0.8421  0.2619  0.0008
12790TIP3   OH259860   0.357   6.032   5.810 -0.2052  0.6109  0.0171
12790TIP3    H159861   0.315   6.075   5.736 -0.8947  0.6429  0.4181
12790TIP3    H259862   0.297   5.960   5.833  0.9786 -0.6822 -0.7364
12791TIP3   OH259863   0.960   2.569   4.495  0.2134 -0.3985  0.1894
12791TIP3    H159864   0.925   2.580   4.584 -1.0917 -0.0582 -0.3406
12791TIP3    H259865   0.916   2.490   4.463 -0.6684  0.4399 -0.7514
12792TIP3   OH259866   4.215   5.673  13.743  0.3341 -0.4745 -0.3761
12792TIP3    H159867   4.270   5.672  13.821  0.4589 -0.9922 -0.4657
12792TIP3    H259868   4.140   5.618  13.767 -0.5700  0.8879  0.0443
12793TIP3   OH259869   3.863   1.947  12.176  0.7337  1.0836  0.1498
12793TIP3    H159870   3.879   1.900  12.258  0.8315  1.0077  0.0873
12793TIP3    H259871   3.950   1.978  12.149  1.0328 -0.6134 -0.9816
12794TIP3   OH259872   3.421   5.497  15.021  1.2334  0.2667  0.0165
12794TIP3    H159873   3.378   5.569  15.068  0.0824  1.8927 -3.1698
12794TIP3    H259874   3.508   5.531  15.000  0.7669  0.7355 -1.2970
12795TIP3   OH259875   1.432   4.562   1.714 -0.1573 -0.0638  0.6044
12795TIP3    H159876   1.384   4.611   1.781  0.0138  2.2981 -0.8829
12795TIP3    H259877   1.522   4.591   1.723 -0.2991  1.0666 -1.2317
12796TIP3   OH259878   4.617   2.184  15.719  0.0028  0.7663 -0.4734
12796TIP3    H159879   4.661   2.258  15.677 -0.8930  1.8128  0.3573
12796TIP3    H259880   4.681   2.113  15.715  1.0902  1.7218 -0.8449
12797TIP3   OH259881   4.130   0.927  15.894  0.0913 -0.4382  0.4906
12797TIP3    H159882   4.089   0.897  15.975 -1.1435 -2.2214 -0.7076
12797TIP3    H259883   4.188   0.855  15.869  0.7563  0.2623  0.0083
12798TIP3   OH259884   6.553   5.618   3.216 -0.0688 -0.6692 -0.4076
12798TIP3    H159885   6.586   5.708   3.212 -1.9753  0.0409 -1.4452
12798TIP3    H259886   6.624   5.565   3.180  1.3676  0.2935  0.8627
12799TIP3   OH259887   1.057   3.813   4.370  0.3543  0.0791  0.3363
12799TIP3    H159888   0.977   3.813   4.422  0.2410  0.2012  0.1617
12799TIP3    H259889   1.093   3.901   4.381 -0.3631  0.5342 -0.8570
12800TIP3   OH259890   5.079   4.083   2.444 -0.0278  0.2530  0.3642
12800TIP3    H159891   5.088   4.178   2.439 -0.3546  0.2142 -1.4942
12800TIP3    H259892   5.152   4.049   2.393 -0.8495 -0.4509 -0.3712
12801TIP3   OH259893   2.987   4.928  16.266 -0.0350 -0.6879 -0.0368
12801TIP3    H159894   3.080   4.948  16.251 -0.1468  0.2297  0.4307
12801TIP3    H259895   2.950   4.918  16.179  0.0016  1.3466 -0.3348
12802TIP3   OH259896   1.395   0.278  11.353  0.1539  0.1109  0.5555
12802TIP3    H159897   1.418   0.275  11.260 -1.4933 -1.4457  0.1524
12802TIP3    H259898   1.301   0.293  11.354  0.0405 -0.5109  1.9644
12803TIP3   OH259899   4.222   5.016   0.532 -0.0031  0.5676 -0.2799
12803TIP3    H159900   4.160   5.089   0.524 -0.6254  0.4829  2.7509
12803TIP3    H259901   4.168   4.938   0.520  0.6193  0.4667 -3.2580
12804TIP3   OH259902   1.725   2.466  11.128  0.1834 -0.0161 -0.3755
12804TIP3    H159903   1.729   2.492  11.036  0.7296  1.5829  0.0644
12804TIP3    H259904   1.799   2.510  11.169 -0.3342 -0.3023  0.9238
12805TIP3   OH259905   1.033   6.432  15.430 -0.4441  0.1130  0.3300
12805TIP3    H159906   1.081   6.367  15.378  1.4491  1.2146  0.6108
12805TIP3    H259907   1.011   6.385  15.511 -0.1769 -0.5379  0.0385
12806TIP3   OH259908   2.530   4.538  16.936 -0.1718  0.4279 -0.1685
12806TIP3    H159909   2.478   4.527  17.016 -1.7873 -1.6427 -1.3986
12806TIP3    H259910   2.601   4.475  16.945 -0.6707 -0.2070 -0.5663
12807TIP3   OH259911   3.115   6.561   2.482 -0.0339 -0.7550 -0.3900
12807TIP3    H159912   3.030   6.569   2.438 -0.1321  1.1527  0.0833
12807TIP3    H259913   3.173   6.525   2.414 -0.4529  1.0256 -1.7593
12808TIP3   OH259914   1.773   6.769  11.467 -0.1723 -0.2484 -0.5066
12808TIP3    H159915   1.809   6.736  11.385 -1.7111  0.0568 -1.3541
12808TIP3    H259916   1.779   6.865  11.459 -0.8558 -0.2015 -0.5404
12809TIP3   OH259917   0.862   1.099   3.230 -0.1518  0.3604 -0.2104
12809TIP3    H159918   0.938   1.121   3.283  0.4573  0.6866 -1.2006
12809TIP3    H259919   0.892   1.106   3.139  0.0749 -4.1843 -0.7369
12810TIP3   OH259920   1.429   6.450  12.271  0.7765  0.4389 -1.5578
12810TIP3    H159921   1.432   6.355  12.280 -2.6380  0.2814 -0.6898
12810TIP3    H259922   1.381   6.465  12.189 -3.8125  1.1075  0.9123
12811TIP3   OH259923   1.212   3.563   1.931  0.8910 -1.0466  0.5233
12811TIP3    H159924   1.269   3.537   1.859  0.0496 -3.0129  0.5222
12811TIP3    H259925   1.183   3.651   1.907 -0.1665 -2.0183 -2.1071
12812TIP3   OH259926   6.375   5.593   4.219  0.2976  0.4202 -0.3905
12812TIP3    H159927   6.376   5.639   4.135  2.8999 -1.2063 -1.3881
12812TIP3    H259928   6.442   5.637   4.271  2.0953 -1.4738 -0.9930
12813TIP3   OH259929   3.026   1.716   3.236  0.1905  0.0299 -0.4429
12813TIP3    H159930   2.983   1.696   3.320 -1.9884  0.5579 -1.3774
12813TIP3    H259931   3.081   1.639   3.219 -1.1362 -1.1497  0.3656
12814TIP3   OH259932   6.074   5.749   1.054  0.2898  0.0345  0.3592
12814TIP3    H159933   6.160   5.786   1.076  0.7219  1.4699 -3.1055
12814TIP3    H259934   6.092   5.684   0.987 -1.2379 -0.5186  0.4546
12815TIP3   OH259935   5.431   1.333   0.621 -0.1223 -0.2899 -0.7707
12815TIP3    H159936   5.421   1.337   0.526  0.6552 -0.1076 -0.8561
12815TIP3    H259937   5.484   1.410   0.643 -1.2610  0.3106 -0.0408
12816TIP3   OH259938   4.868   2.219  11.551  0.3022 -0.1232  0.4077
12816TIP3    H159939   4.788   2.173  11.578 -0.4482 -0.6387 -2.4125
12816TIP3    H259940   4.852   2.311  11.574 -0.5599 -0.4173  1.0169
12817TIP3   OH259941   5.367   1.285  12.382  0.1358 -0.0081 -0.6548
12817TIP3    H159942   5.380   1.245  12.296  1.0422  0.9195 -0.9756
12817TIP3    H259943   5.455   1.296  12.417 -0.2243 -0.3637  0.4004
12818TIP3   OH259944   2.063   0.389  16.792  0.0892 -0.1374 -0.0099
12818TIP3    H159945   1.971   0.380  16.816 -0.2325  1.1479 -0.6249
12818TIP3    H259946   2.104   0.429  16.869  0.2703 -1.2125  0.4718
12819TIP3   OH259947   0.122   6.229  15.551  0.4314  0.1034 -0.0080
12819TIP3    H159948   0.139   6.239  15.458 -1.8779  2.8717 -0.2828
12819TIP3    H259949   0.193   6.276  15.594  1.0866 -0.5346 -0.3768
12820TIP3   OH259950   0.982   3.468  12.065 -0.5792  0.1793 -0.0181
12820TIP3    H159951   1.027   3.402  12.011  2.0783  2.2005 -0.4933
12820TIP3    H259952   1.030   3.469  12.147 -2.0330 -0.0057  0.8688
12821TIP3   OH259953   1.508   3.410   2.884  0.1675  0.4691 -0.4021
12821TIP3    H159954   1.517   3.361   2.803  0.8544 -1.2819  0.6699
12821TIP3    H259955   1.431   3.370   2.927  0.1527  0.9834  0.0568
12822TIP3   OH259956   6.552   6.626   5.593 -0.0680  0.3922  0.0762
12822TIP3    H159957   6.486   6.663   5.651 -0.3760  0.4339 -0.2984
12822TIP3    H259958   6.607   6.572   5.650 -0.6390  0.0732  0.3226
12823TIP3   OH259959   0.613   6.474   1.496  0.0547 -0.6172 -0.1838
12823TIP3    H159960   0.608   6.423   1.577 -0.3102 -0.6212 -0.2085
12823TIP3    H259961   0.523   6.501   1.478  0.3577  0.8408  0.3300
12824TIP3   OH259962   5.456   0.176   0.228 -0.2535  0.3718  0.1590
12824TIP3    H159963   5.430   0.172   0.136 -1.2378  1.8494  0.3405
12824TIP3    H259964   5.462   0.270   0.248  0.5599  0.0814  1.4389
12825TIP3   OH259965   4.891   0.240  17.110 -0.2138 -0.3068 -0.1520
12825TIP3    H159966   4.939   0.162  17.081  0.2616 -0.0719 -0.0084
12825TIP3    H259967   4.906   0.244  17.205  1.3548  0.9866 -0.3881
12826TIP3   OH259968   0.764   4.099  11.839 -0.6924  0.4549 -0.0479
12826TIP3    H159969   0.857   4.076  11.845 -1.0037 -1.1985 -0.9884
12826TIP3    H259970   0.758   4.186  11.878  1.0262  0.0120  1.3359
12827TIP3   OH259971   3.034   5.586  12.410 -0.5723 -0.2329  0.1535
12827TIP3    H159972   2.983   5.538  12.345  0.2829  0.5268 -1.1088
12827TIP3    H259973   3.122   5.549  12.404 -0.7054 -0.8746  1.6481
12828TIP3   OH259974   5.681   3.141   2.243  0.0659 -0.4744 -0.8979
12828TIP3    H159975   5.767   3.178   2.222 -0.3519  2.3007  1.5271
12828TIP3    H259976   5.695   3.098   2.328 -1.3159  2.3174  0.8951
12829TIP3   OH259977   6.447   5.247   1.318 -0.1125 -0.6541  0.3360
12829TIP3    H159978   6.439   5.191   1.395  1.5583 -1.2607  0.0958
12829TIP3    H259979   6.482   5.190   1.249 -0.2732  0.2047 -0.4831
12830TIP3   OH259980   1.984   1.992  13.880  0.2891 -0.0835  0.1600
12830TIP3    H159981   1.961   1.935  13.954 -2.4286  1.9327  1.0447
12830TIP3    H259982   1.965   1.940  13.802  0.3191 -1.2488  0.9124
12831TIP3   OH259983   3.816   4.868   0.646 -0.2468  0.0254  1.0497
12831TIP3    H159984   3.840   4.913   0.565  1.0277  1.2513  2.0523
12831TIP3    H259985   3.732   4.826   0.627 -0.0802  0.4825 -0.8153
12832TIP3   OH259986   3.412   6.232   2.696  0.2712  0.1128  0.2657
12832TIP3    H159987   3.386   6.301   2.635 -0.1463 -0.5141 -0.2831
12832TIP3    H259988   3.412   6.152   2.643 -0.7778 -0.5649  1.2435
12833TIP3   OH259989   5.943   1.291   3.936  0.1055 -0.1596 -0.3203
12833TIP3    H159990   5.872   1.318   3.877  0.1447 -0.2850 -0.4263
12833TIP3    H259991   5.902   1.228   3.995  0.1747 -0.3899 -0.5136
12834TIP3   OH259992   1.617   4.638  13.107 -0.0696 -0.5045 -0.4345
12834TIP3    H159993   1.627   4.551  13.145 -2.9632 -0.9045 -0.3672
12834TIP3    H259994   1.580   4.622  13.020 -0.0810  0.6474 -0.6638
12835TIP3   OH259995   0.366   4.450  16.432  0.6085  0.2770  0.0501
12835TIP3    H159996   0.429   4.443  16.360  0.1214 -2.3805 -0.2187
12835TIP3    H259997   0.393   4.383  16.495 -1.4344 -0.4109  0.2947
12836TIP3   OH259998   0.130   5.016  12.328 -0.0104  0.1232 -0.1811
12836TIP3    H159999   0.211   4.966  12.312 -0.1054 -0.3417  0.6981
12836TIP3    H260000   0.110   5.057  12.244  0.0987 -1.3001 -0.9297
12837TIP3   OH260001   2.697   3.077   6.018  0.1399  0.1460 -0.0508
12837TIP3    H160002   2.782   3.041   6.041 -0.0802 -0.1814  0.2638
12837TIP3    H260003   2.639   3.002   6.016 -0.0873  0.3287 -0.5440
12838TIP3   OH260004   6.035   5.076   2.084  0.9668 -0.7632 -0.4261
12838TIP3    H160005   5.977   5.138   2.129  1.6742  0.6979 -1.4613
12838TIP3    H260006   5.981   5.041   2.013  0.6746 -1.0908 -0.0482
12839TIP3   OH260007   0.406   0.088  13.720 -0.1776 -0.1035 -0.3321
12839TIP3    H160008   0.319   0.072  13.682 -0.1592  0.4606 -0.6349
12839TIP3    H260009   0.434   0.003  13.754 -1.4895 -0.0009  1.1119
12840TIP3   OH260010   1.753   6.258   1.957 -0.0858 -0.4422 -0.0257
12840TIP3    H160011   1.756   6.163   1.943  1.4806 -0.6244  1.2157
12840TIP3    H260012   1.670   6.285   1.920 -0.0369 -2.1230 -1.5063
12841TIP3   OH260013   0.273   3.476  17.011 -0.1492 -0.1239  0.3313
12841TIP3    H160014   0.257   3.552  17.066  0.6006 -0.3241  0.8436
12841TIP3    H260015   0.369   3.470  17.007 -0.2043 -1.1909  0.5110
12842TIP3   OH260016   1.131   3.391  15.111  0.0569  0.0477 -0.8287
12842TIP3    H160017   1.103   3.300  15.120  2.4422 -0.9411 -2.3133
12842TIP3    H260018   1.170   3.413  15.195 -0.0730 -0.4682 -0.6298
12843TIP3   OH260019   3.685   4.015   4.106 -0.2585  0.7226 -0.0432
12843TIP3    H160020   3.667   3.932   4.149 -0.0914  0.2870 -0.7948
12843TIP3    H260021   3.642   4.008   4.020 -0.5744  1.5620  0.0325
12844TIP3   OH260022   4.570   0.687  16.684  0.1208  0.1366 -0.3926
12844TIP3    H160023   4.608   0.772  16.705 -1.1289  0.1826  2.0025
12844TIP3    H260024   4.641   0.638  16.642  0.9877  2.1667 -1.4486
12845TIP3   OH260025   3.034   4.523  14.916  0.7909 -0.7739  0.5758
12845TIP3    H160026   2.956   4.579  14.923  0.4918 -1.2419  1.0887
12845TIP3    H260027   3.058   4.527  14.824  0.5972 -0.0383  0.5484
12846TIP3   OH260028   6.691   5.725   4.979 -0.3635 -0.2248 -0.2481
12846TIP3    H160029   6.769   5.701   4.929 -1.4225 -1.0706 -1.5634
12846TIP3    H260030   6.619   5.722   4.915 -1.3256  1.6440  0.6515
12847TIP3   OH260031   3.751   1.386  15.803 -0.3260  0.8526  0.2098
12847TIP3    H160032   3.803   1.410  15.880  0.4221  0.2509 -0.0907
12847TIP3    H260033   3.690   1.459  15.792 -0.1677  1.1431  1.1228
12848TIP3   OH260034   1.835   2.200  12.832 -0.0265  0.4648  0.1380
12848TIP3    H160035   1.861   2.109  12.829  1.7426  0.9571 -0.1850
12848TIP3    H260036   1.870   2.232  12.915 -1.1000  0.7410  0.5064
12849TIP3   OH260037   5.411   3.722   0.391  0.0365  0.1315  0.1851
12849TIP3    H160038   5.365   3.772   0.323  0.8670 -1.2097 -1.4269
12849TIP3    H260039   5.378   3.632   0.381 -0.3682  0.0307  2.0837
12850TIP3   OH260040   2.242   1.156  17.039  0.2156  0.2687  0.5799
12850TIP3    H160041   2.289   1.072  17.030  0.5042  0.4374  0.4844
12850TIP3    H260042   2.210   1.156  17.129  0.8609  0.3842  0.8182
12851TIP3   OH260043   3.636   6.694  12.048 -0.3088 -0.7458 -0.2286
12851TIP3    H160044   3.631   6.621  11.986 -2.1675  0.6672 -1.8892
12851TIP3    H260045   3.589   6.765  12.005  2.2992  1.8447  0.8035
12852TIP3   OH260046   2.105   4.441   5.655 -1.0366  0.0887 -0.8445
12852TIP3    H160047   2.131   4.434   5.747  0.4613 -0.6850 -1.2984
12852TIP3    H260048   2.108   4.535   5.637 -3.6144  0.5094  0.4650
12853TIP3   OH260049   2.556   1.907  12.800  0.1720  0.4219 -0.6856
12853TIP3    H160050   2.527   1.923  12.890 -0.8381 -0.7615 -0.7706
12853TIP3    H260051   2.487   1.853  12.762  0.6608  0.7659 -2.1371
12854TIP3   OH260052   5.228   4.557  14.441  0.8986 -0.4477 -0.0818
12854TIP3    H160053   5.259   4.484  14.495  0.1736 -1.4271 -0.9213
12854TIP3    H260054   5.137   4.570  14.469  0.3100 -1.3723 -1.3938
12855TIP3   OH260055   0.417   2.514   2.788  0.4616 -0.3533  0.6784
12855TIP3    H160056   0.453   2.437   2.833 -2.0194 -0.9436  1.7989
12855TIP3    H260057   0.354   2.551   2.849 -0.9861  0.4997 -1.2338
12856TIP3   OH260058   1.134   6.661  12.171 -0.3037  0.4597 -0.3713
12856TIP3    H160059   1.133   6.569  12.146  1.0698 -0.1709  1.6925
12856TIP3    H260060   1.205   6.699  12.119 -0.2520  0.1447 -0.5307
12857TIP3   OH260061   0.799   3.455   0.260 -0.5616  0.1223 -0.2337
12857TIP3    H160062   0.866   3.404   0.305  0.3827 -0.0630 -1.7879
12857TIP3    H260063   0.718   3.404   0.273 -0.2540 -0.1000  0.9098
12858TIP3   OH260064   4.195   1.557   5.027  0.2302 -0.3755  0.9303
12858TIP3    H160065   4.275   1.530   4.982 -0.2207 -0.7376  0.3270
12858TIP3    H260066   4.147   1.476   5.042 -1.3994  0.0317 -1.4091
12859TIP3   OH260067   6.183   1.122   3.130 -0.4362 -0.4584  0.2563
12859TIP3    H160068   6.250   1.177   3.170 -0.9618  1.3053 -1.1499
12859TIP3    H260069   6.215   1.033   3.142  1.3461  0.2321  1.0286
12860TIP3   OH260070   0.645   6.297  15.384 -0.5169  0.5730  0.3345
12860TIP3    H160071   0.648   6.336  15.472 -1.3289 -1.6416  1.4096
12860TIP3    H260072   0.717   6.234  15.383 -0.7651  0.2951 -0.4513
12861TIP3   OH260073   2.392   2.202  13.364  0.3404  0.1948  0.2616
12861TIP3    H160074   2.468   2.163  13.323  0.4130 -0.3978  0.9338
12861TIP3    H260075   2.426   2.279  13.410  1.0332 -1.3788  2.5946
12862TIP3   OH260076   2.803   4.013   0.386 -0.3410  0.1587  0.6105
12862TIP3    H160077   2.849   3.983   0.464 -0.8264 -0.2786  0.7358
12862TIP3    H260078   2.739   4.076   0.418 -0.1179  0.4538  0.4855
12863TIP3   OH260079   0.826   5.232   1.490 -0.0842 -0.1771 -0.3866
12863TIP3    H160080   0.918   5.260   1.488  0.0618 -0.5815  0.4830
12863TIP3    H260081   0.825   5.156   1.548 -0.7939 -0.8506 -1.2400
12864TIP3   OH260082   3.870   0.081   0.896 -0.2366 -0.1678  0.0432
12864TIP3    H160083   3.877   0.162   0.947 -1.8062 -0.7604  1.3251
12864TIP3    H260084   3.778   0.056   0.904  0.3150 -2.3980  0.2211
12865TIP3   OH260085   4.225   6.524  12.266  0.1484 -0.2261  0.1784
12865TIP3    H160086   4.252   6.557  12.181  1.0594  1.9307  1.2307
12865TIP3    H260087   4.220   6.602  12.322  0.6758 -1.6723  2.3821
12866TIP3   OH260088   1.904   6.663  13.021  0.1165 -0.9019  0.1737
12866TIP3    H160089   1.895   6.611  12.941 -1.8973  0.4524 -0.5297
12866TIP3    H260090   1.870   6.749  12.999  1.0377  0.0158  2.0456
12867TIP3   OH260091   3.457   4.985   1.684  0.2040  0.3618 -0.0519
12867TIP3    H160092   3.525   5.005   1.619 -2.7490 -0.1487 -3.6475
12867TIP3    H260093   3.436   4.893   1.669 -1.8042  0.7135  0.3365
12868TIP3   OH260094   5.980   1.333   5.700 -0.4029  0.1822 -0.0665
12868TIP3    H160095   5.969   1.247   5.741 -0.3529  0.0776 -0.2692
12868TIP3    H260096   6.074   1.339   5.682 -0.1717  0.8848  1.2556
12869TIP3   OH260097   1.473   2.426   0.198  0.7780 -0.2642  0.1049
12869TIP3    H160098   1.479   2.473   0.115  0.2048 -0.5207 -0.0914
12869TIP3    H260099   1.554   2.376   0.204  1.0920  0.2259 -0.0066
12870TIP3   OH260100   2.433   5.641  11.977 -0.4308 -0.2751 -0.3494
12870TIP3    H160101   2.458   5.696  11.903  0.7001 -0.5282 -0.1811
12870TIP3    H260102   2.367   5.691  12.024  0.2902  0.7657 -0.4222
12871TIP3   OH260103   5.617   5.502   2.311 -0.3246 -0.5633 -0.2093
12871TIP3    H160104   5.576   5.479   2.394  0.3386 -2.2857 -0.3091
12871TIP3    H260105   5.670   5.579   2.331 -0.7169 -0.5413  0.7893
12872TIP3   OH260106   3.885   1.687   2.514 -0.4112  0.5685  0.1188
12872TIP3    H160107   3.868   1.641   2.431  1.4345  0.3382 -0.1669
12872TIP3    H260108   3.797   1.706   2.548 -1.2276 -0.8219 -1.0494
12873TIP3   OH260109   0.965   2.048   4.757  0.1270 -0.1532 -0.0017
12873TIP3    H160110   0.894   2.017   4.701 -0.0119 -0.2953  0.2513
12873TIP3    H260111   1.033   2.077   4.696 -1.1938  2.5689 -0.3320
12874TIP3   OH260112   6.477   2.304  14.233 -0.6944 -0.4810 -0.8046
12874TIP3    H160113   6.538   2.329  14.164  0.1233 -2.5588 -0.9019
12874TIP3    H260114   6.510   2.349  14.311  0.5431 -0.9885 -1.0158
12875TIP3   OH260115   1.302   6.675  14.183 -0.2961  0.0501  0.1287
12875TIP3    H160116   1.373   6.725  14.223 -1.0791 -1.2339  3.4312
12875TIP3    H260117   1.232   6.739  14.170  0.9083  1.0603 -1.9853
12876TIP3   OH260118   3.165   4.262  14.197  0.1840  0.1790 -0.0029
12876TIP3    H160119   3.188   4.260  14.289 -2.6071  0.1049  0.7735
12876TIP3    H260120   3.210   4.187  14.159 -0.3642 -1.1015  1.7638
12877TIP3   OH260121   1.618   2.687   0.134  0.4072  0.3814  0.2267
12877TIP3    H160122   1.706   2.700   0.099  0.3523 -1.4322 -0.7155
12877TIP3    H260123   1.631   2.668   0.226  1.2582 -2.1397 -0.3513
12878TIP3   OH260124   5.390   3.026   3.199  0.2837 -0.1922  0.2880
12878TIP3    H160125   5.358   2.951   3.149  1.6153  0.0924 -1.0492
12878TIP3    H260126   5.480   3.004   3.222  0.2312  0.4102  1.1278
12879TIP3   OH260127   5.152   0.724   1.473  0.1413  0.1482  0.6132
12879TIP3    H160128   5.064   0.735   1.437  0.0184 -0.6789  0.6561
12879TIP3    H260129   5.182   0.814   1.489 -1.1596  0.4238  1.7346
12880TIP3   OH260130   6.441   0.282  15.176  0.3570 -0.1974 -0.1294
12880TIP3    H160131   6.455   0.318  15.264 -1.4911  0.3102  0.0058
12880TIP3    H260132   6.516   0.311  15.125  0.6314  0.9165  0.8688
12881TIP3   OH260133   4.595   1.787  14.953 -0.2361 -0.7866  0.0584
12881TIP3    H160134   4.665   1.765  15.013  0.2082 -1.8002 -0.8004
12881TIP3    H260135   4.570   1.704  14.913 -0.2764 -0.1117 -1.3959
12882TIP3   OH260136   0.591   0.494   5.202 -0.6020  0.4469 -0.3055
12882TIP3    H160137   0.657   0.505   5.271 -1.5296 -1.1896  0.9133
12882TIP3    H260138   0.639   0.458   5.128  0.2265  1.2687 -0.1941
12883TIP3   OH260139   1.810   1.098   4.547  0.3655  0.4550 -0.0041
12883TIP3    H160140   1.855   1.172   4.588  1.1442  0.2632 -0.5029
12883TIP3    H260141   1.866   1.073   4.474 -0.3277 -0.0810 -0.3634
12884TIP3   OH260142   4.916   5.475  15.717 -0.2543  0.2774  0.1286
12884TIP3    H160143   4.956   5.546  15.767  1.5624  0.0099 -0.8366
12884TIP3    H260144   4.877   5.418  15.783  0.4124  0.9086  1.1004
12885TIP3   OH260145   5.269   0.147  17.250  0.1841 -0.0542 -0.2496
12885TIP3    H160146   5.268   0.065  17.200  0.2210 -0.9071  1.0980
12885TIP3    H260147   5.270   0.215  17.183 -0.4820 -1.1329 -1.4172
12886TIP3   OH260148   5.964   5.400  13.962 -0.4484  0.1503  0.0893
12886TIP3    H160149   5.949   5.308  13.980  0.3394 -0.2751 -1.2519
12886TIP3    H260150   5.958   5.444  14.047 -0.5624 -1.1641  0.7709
12887TIP3   OH260151   0.397   1.067  16.729 -0.0030  0.0893 -0.6879
12887TIP3    H160152   0.382   1.064  16.823 -0.4600  0.1352 -0.7562
12887TIP3    H260153   0.474   1.122  16.719 -0.2657  0.5244 -0.3709
12888TIP3   OH260154   6.756   3.200   4.304 -0.8860 -0.3999  0.0952
12888TIP3    H160155   6.777   3.233   4.217  0.1028 -2.6552 -0.6111
12888TIP3    H260156   6.663   3.218   4.315 -0.6796  1.4017 -0.7061
12889TIP3   OH260157   4.019   0.040   0.527 -0.2253 -0.2989  0.6753
12889TIP3    H160158   3.966   0.101   0.579 -0.8268  0.7527 -1.0803
12889TIP3    H260159   3.994   0.058   0.436  0.6384 -2.2079  0.0147
12890TIP3   OH260160   1.950   5.859  14.449 -0.1792 -0.5219 -0.1123
12890TIP3    H160161   2.044   5.872  14.435 -0.4208  0.8300 -0.6074
12890TIP3    H260162   1.939   5.860  14.544  0.3115 -0.7777 -0.0493
12891TIP3   OH260163   2.233   1.413  11.963  0.3751 -0.1978 -0.1396
12891TIP3    H160164   2.175   1.350  11.920  0.4144  1.5123 -2.8986
12891TIP3    H260165   2.205   1.411  12.055 -1.9339 -1.6970 -0.7808
12892TIP3   OH260166   4.506   5.742  15.216 -0.0501  0.3375  0.3062
12892TIP3    H160167   4.549   5.662  15.243  0.0429  0.8232  1.7005
12892TIP3    H260168   4.419   5.715  15.186 -0.7101 -0.1372  2.4950
12893TIP3   OH260169   5.066   6.019  16.433 -0.6926  0.2624 -0.2590
12893TIP3    H160170   5.086   5.926  16.443  1.6943  0.6498 -0.7409
12893TIP3    H260171   5.020   6.042  16.513  1.4119 -0.7153  1.3444
12894TIP3   OH260172   2.494   3.743  16.397  0.6592  0.2437 -0.1386
12894TIP3    H160173   2.511   3.780  16.310  0.7351 -1.0722 -0.7116
12894TIP3    H260174   2.431   3.803  16.436  0.9340  1.0882 -0.9331
12895TIP3   OH260175   3.943   0.366   4.971 -0.1579 -0.5914 -0.2331
12895TIP3    H160176   3.878   0.355   4.902  0.5883 -2.1995 -0.7210
12895TIP3    H260177   4.002   0.434   4.938  0.5810 -1.8094 -1.5225
12896TIP3   OH260178   0.930   4.010   5.844 -0.1300  0.0333  0.1331
12896TIP3    H160179   0.918   3.933   5.788 -0.8004 -0.1243  0.4755
12896TIP3    H260180   1.025   4.016   5.857 -0.0185 -0.2810 -0.5231
12897TIP3   OH260181   4.457   2.921   0.228  0.0771  0.0687 -0.0955
12897TIP3    H160182   4.408   2.878   0.158 -0.1555 -0.2653  0.2677
12897TIP3    H260183   4.523   2.856   0.254 -0.0105  0.0905  0.1795
12898TIP3   OH260184   5.684   5.446  15.593  0.0555  0.2022 -0.3039
12898TIP3    H160185   5.711   5.361  15.556 -1.0872 -0.8050  1.0698
12898TIP3    H260186   5.590   5.436  15.610 -0.2362  2.0014 -0.7353
12899TIP3   OH260187   1.052   2.249   2.428 -0.7063  0.2403 -0.8269
12899TIP3    H160188   0.990   2.304   2.379  0.4188  0.5488 -1.9435
12899TIP3    H260189   1.049   2.165   2.384  1.8748  1.1006 -2.9068
12900TIP3   OH260190   5.806   2.398   3.490  0.4565 -0.2151  0.1874
12900TIP3    H160191   5.860   2.474   3.510 -0.5707  0.4497  0.4937
12900TIP3    H260192   5.815   2.386   3.395  1.6220 -0.5048  0.3219
12901TIP3   OH260193   3.457   4.031  12.287  0.2237  0.7433  0.6219
12901TIP3    H160194   3.470   3.981  12.367 -1.9153 -0.3757  0.3341
12901TIP3    H260195   3.379   4.084  12.304  0.7681  1.8180 -0.1216
12902TIP3   OH260196   5.727   3.518  13.729  0.1098 -0.0993  0.1667
12902TIP3    H160197   5.805   3.471  13.698 -0.0414  0.9137 -1.8957
12902TIP3    H260198   5.758   3.607  13.746 -0.4913  0.1888 -0.2111
12903TIP3   OH260199   1.084   6.598   1.813 -0.4214 -0.2630  0.2752
12903TIP3    H160200   1.056   6.592   1.722  0.7737  1.8821 -0.3025
12903TIP3    H260201   1.037   6.674   1.847  1.9599  1.2879  0.2738
12904TIP3   OH260202   2.398   4.372   0.010 -0.0343  0.4391 -0.1732
12904TIP3    H160203   2.413   4.458  -0.030 -0.7574 -1.2601 -4.6835
12904TIP3    H260204   2.304   4.356  -0.003  0.2461 -1.3537 -0.2783
12905TIP3   OH260205   5.698   1.089   3.195 -0.1130  0.3748 -0.3665
12905TIP3    H160206   5.612   1.099   3.154  0.4075  5.1740 -0.8073
12905TIP3    H260207   5.694   1.144   3.273  1.7698 -1.6017  1.2661
12906TIP3   OH260208   6.319   2.073  15.775 -0.4096  0.2977 -0.0837
12906TIP3    H160209   6.238   2.096  15.729 -0.0494 -0.9713 -1.4199
12906TIP3    H260210   6.370   2.023  15.711  1.2064  0.5849  0.9078
12907TIP3   OH260211   4.255   2.860   5.841  0.6068  0.3670  0.0289
12907TIP3    H160212   4.281   2.943   5.882 -0.7370  0.5294  0.6114
12907TIP3    H260213   4.273   2.794   5.907  2.6917  0.0207 -0.8297
12908TIP3   OH260214   5.318   3.054   3.911 -0.3332  0.1509  0.4202
12908TIP3    H160215   5.235   3.037   3.867 -0.1733 -2.0404  0.8450
12908TIP3    H260216   5.336   2.973   3.960 -0.2022  2.1442  4.0239
12909TIP3   OH260217   6.406   1.240  15.110 -0.4101 -0.6891 -0.2485
12909TIP3    H160218   6.385   1.316  15.164 -0.3326 -0.5844 -0.3647
12909TIP3    H260219   6.497   1.220  15.129 -0.2230 -0.3110 -0.7567
12910TIP3   OH260220   1.162   1.153   2.092 -0.5351  0.6995  0.2243
12910TIP3    H160221   1.164   1.224   2.027  0.0264  0.9657  0.5207
12910TIP3    H260222   1.247   1.111   2.084 -1.9674 -2.0852 -2.2198
12911TIP3   OH260223   2.384   5.240  12.856 -0.0556 -0.2883  0.2616
12911TIP3    H160224   2.306   5.274  12.811 -0.0136  0.7291  0.9462
12911TIP3    H260225   2.377   5.145  12.844 -1.8530 -0.2983  0.9913
12912TIP3   OH260226   4.788   3.820  16.241 -0.0059  0.4009 -0.2302
12912TIP3    H160227   4.764   3.728  16.240 -0.3982  0.4452  1.4837
12912TIP3    H260228   4.708   3.866  16.214 -0.4394  0.3166  0.8650
12913TIP3   OH260229   4.114   2.676  13.034 -0.0611 -0.1278  0.3349
12913TIP3    H160230   4.203   2.652  13.006 -0.1943 -0.5014  0.2243
12913TIP3    H260231   4.115   2.663  13.129  0.5260  1.5697  0.5958
12914TIP3   OH260232   0.904   4.192  15.812 -0.0287  0.6029  0.0062
12914TIP3    H160233   0.970   4.150  15.756  0.4408 -1.9072  2.2695
12914TIP3    H260234   0.948   4.271  15.844  0.7908  0.4890 -0.7653
12915TIP3   OH260235   5.721   3.195  15.260 -0.3017 -0.5281  0.4451
12915TIP3    H160236   5.754   3.162  15.177 -0.9444  0.2257 -0.1255
12915TIP3    H260237   5.708   3.289  15.246 -0.4849 -0.4005  1.3723
12916TIP3   OH260238   0.379   0.456  11.206  0.1581 -0.2096  0.0041
12916TIP3    H160239   0.349   0.546  11.214  0.1155 -0.2249  0.0168
12916TIP3    H260240   0.299   0.405  11.191  0.2727 -0.1239 -1.0056
12917TIP3   OH260241   5.848   2.959   0.165 -0.0992 -0.5571 -0.3779
12917TIP3    H160242   5.804   2.917   0.238  0.3247  0.5755  0.5737
12917TIP3    H260243   5.938   2.970   0.195  0.0114  0.1755 -0.9497
12918TIP3   OH260244   1.311   4.412  11.859  1.2341  1.0359 -0.3573
12918TIP3    H160245   1.266   4.483  11.905  1.3845 -0.7613  2.8941
12918TIP3    H260246   1.245   4.373  11.803  0.0757  1.3934  0.7159
12919TIP3   OH260247   3.412   2.369   1.387  0.1456  0.5309 -0.0250
12919TIP3    H160248   3.419   2.377   1.482  0.2229 -1.6701  0.2050
12919TIP3    H260249   3.467   2.439   1.352  2.9407 -0.7299  1.5855
12920TIP3   OH260250   3.994   5.698   5.228  0.1960 -0.0005  0.0851
12920TIP3    H160251   4.047   5.655   5.161  0.2625 -0.3909  0.3835
12920TIP3    H260252   3.945   5.765   5.181  1.2928  0.6847 -0.1266
12921TIP3   OH260253   5.027   0.474  16.433 -0.5290  0.0346  0.1033
12921TIP3    H160254   5.049   0.552  16.383 -1.2268 -0.1121 -0.4618
12921TIP3    H260255   5.109   0.447  16.474  0.3251 -0.4293 -1.7847
12922TIP3   OH260256   5.500   2.456  12.405 -0.0957 -0.6146  0.6428
12922TIP3    H160257   5.421   2.467  12.458 -0.3313 -0.4352  0.2557
12922TIP3    H260258   5.569   2.497  12.457 -0.1183 -1.4037  1.3115
12923TIP3   OH260259   0.945   5.253   3.763 -0.3003  0.5942 -0.3374
12923TIP3    H160260   1.012   5.221   3.824 -0.8576  0.9676  0.4823
12923TIP3    H260261   0.993   5.312   3.705  0.5765 -1.0495 -1.3617
12924TIP3   OH260262   0.057   5.906   0.548  0.3933 -0.0355 -0.0343
12924TIP3    H160263   0.033   5.835   0.608  0.5416 -0.3889 -0.3895
12924TIP3    H260264   0.108   5.966   0.601  1.1805 -0.7245  0.0215
12925TIP3   OH260265   5.304   0.061  14.433 -0.0168 -0.4892  0.0269
12925TIP3    H160266   5.350  -0.010  14.387  1.1796 -2.1769  3.4712
12925TIP3    H260267   5.367   0.132  14.437 -1.0957  0.8484 -3.1205
12926TIP3   OH260268   5.643   1.424   6.807 -0.4089 -0.2341  0.1424
12926TIP3    H160269   5.580   1.387   6.869 -0.3807 -1.4186 -0.5021
12926TIP3    H260270   5.703   1.475   6.861 -1.0762 -0.2762  0.9416
12927TIP3   OH260271   4.747   0.475   0.052  0.3696  0.0258  0.3575
12927TIP3    H160272   4.690   0.538   0.096 -0.2956  0.3730 -0.9477
12927TIP3    H260273   4.835   0.513   0.059 -0.2327  2.0294 -1.8977
12928TIP3   OH260274   5.627   5.600  17.141 -0.7371  0.2286 -0.3621
12928TIP3    H160275   5.580   5.648  17.210 -0.6899 -0.2293 -0.0034
12928TIP3    H260276   5.707   5.651  17.127 -0.9351  0.5420 -0.3591
12929TIP3   OH260277   4.401   4.421   0.734 -0.3467  0.2042  0.2698
12929TIP3    H160278   4.460   4.471   0.791 -1.5611  1.0481  0.8222
12929TIP3    H260279   4.446   4.337   0.721  0.2044  0.1847  2.0396
12930TIP3   OH260280   4.325   6.116  14.109 -0.0266  0.1914  0.2794
12930TIP3    H160281   4.344   6.061  14.033  0.0763  0.2600  0.2563
12930TIP3    H260282   4.229   6.117  14.114 -0.0483  0.5526 -0.1187
12931TIP3   OH260283   2.504   2.468   0.358 -0.1151 -0.5643 -0.1784
12931TIP3    H160284   2.499   2.548   0.411  0.9833 -0.6951  0.1426
12931TIP3    H260285   2.594   2.466   0.326 -0.6378 -0.6940 -1.7458
12932TIP3   OH260286   3.230   5.267   6.258  0.8965  0.1161  0.3772
12932TIP3    H160287   3.170   5.286   6.330  0.6600  0.8232  0.0120
12932TIP3    H260288   3.294   5.338   6.262 -1.3353  2.5803 -2.4615
12933TIP3   OH260289   5.549   0.998   2.466  0.2609 -0.0504  0.1698
12933TIP3    H160290   5.635   1.041   2.463 -0.2978  1.0573 -0.1485
12933TIP3    H260291   5.570   0.906   2.485  1.4884  0.2944  0.6010
12934TIP3   OH260292   2.770   6.174   0.204  0.0844 -0.2191 -0.0411
12934TIP3    H160293   2.755   6.131   0.119  1.5705 -0.5221 -0.1763
12934TIP3    H260294   2.727   6.259   0.195 -0.2295 -0.4514 -0.9136
12935TIP3   OH260295   4.666   0.529  13.173 -0.5501  0.4381  0.1804
12935TIP3    H160296   4.601   0.506  13.107 -1.8451  1.2520  1.1287
12935TIP3    H260297   4.692   0.618  13.152  2.0218 -0.6055 -1.5354
12936TIP3   OH260298   4.913   3.170  10.567  0.1619 -0.1561  0.4638
12936TIP3    H160299   4.976   3.144  10.634 -0.6753 -0.0978  1.3086
12936TIP3    H260300   4.845   3.102  10.570 -0.0068 -0.0222 -0.1576
12937TIP3   OH260301   1.637   3.648  17.218  0.3435  0.2338 -0.1374
12937TIP3    H160302   1.651   3.743  17.216  0.0539  0.4261  2.6083
12937TIP3    H260303   1.546   3.637  17.190  0.5113  0.7046 -0.8963
12938TIP3   OH260304   6.250   0.276   3.955  0.3407 -0.4870 -0.2510
12938TIP3    H160305   6.202   0.359   3.955  1.6255  0.3172 -1.7953
12938TIP3    H260306   6.183   0.210   3.934 -0.5267  0.2672  0.0737
12939TIP3   OH260307   4.629   5.061   0.542 -0.4813  0.0892 -0.0099
12939TIP3    H160308   4.578   4.988   0.506 -0.0635 -0.1102 -0.1963
12939TIP3    H260309   4.720   5.039   0.523 -0.2414 -0.0266  1.1826
12940TIP3   OH260310   3.509   1.539   3.145  0.4379  0.1221  0.3422
12940TIP3    H160311   3.456   1.619   3.139 -0.8861 -0.7749 -0.5610
12940TIP3    H260312   3.473   1.493   3.221 -0.9806 -1.0428 -0.9472
12941TIP3   OH260313   4.000   1.083   2.588  0.0261 -0.0889  0.2639
12941TIP3    H160314   4.080   1.037   2.613  1.7052  2.1192 -0.6992
12941TIP3    H260315   3.974   1.041   2.506  1.8338  0.9088 -0.8909
12942TIP3   OH260316   6.808   1.827   5.524 -0.9982  0.0978  0.3114
12942TIP3    H160317   6.735   1.856   5.469 -0.1179  0.0483 -0.9131
12942TIP3    H260318   6.839   1.907   5.566 -0.8340  0.3663 -0.3074
12943TIP3   OH260319   6.551   5.422   1.731  0.1643 -0.5970 -0.4530
12943TIP3    H160320   6.555   5.349   1.793 -0.9454  0.1225  0.5240
12943TIP3    H260321   6.457   5.435   1.716  0.3682 -2.0669 -3.9471
12944TIP3   OH260322   2.424   1.642   2.182 -0.4198 -0.1655 -0.3341
12944TIP3    H160323   2.472   1.712   2.226  1.6178 -0.5421 -1.7959
12944TIP3    H260324   2.416   1.573   2.247  3.7583 -1.2973 -0.7313
12945TIP3   OH260325   0.534   4.603   1.803 -0.1746 -0.3823  0.2415
12945TIP3    H160326   0.512   4.555   1.883  1.8462  0.6089  1.4737
12945TIP3    H260327   0.576   4.538   1.747 -0.4400 -0.8001  0.5205
12946TIP3   OH260328   1.081   4.298   2.577  0.2773  0.1891  0.6125
12946TIP3    H160329   1.109   4.266   2.663 -1.1498  1.4281  1.5800
12946TIP3    H260330   1.011   4.360   2.596 -1.0970 -0.5936 -1.5227
12947TIP3   OH260331   6.002   2.011   0.982  0.0893  0.7067  0.1231
12947TIP3    H160332   6.003   1.932   0.927  0.8020 -0.2712  1.4846
12947TIP3    H260333   6.091   2.017   1.017 -0.5855  0.7242  1.9512
12948TIP3   OH260334   0.828   5.509  13.935  0.0382  0.4642  0.2256
12948TIP3    H160335   0.768   5.435  13.935  0.3361  0.2206  0.5971
12948TIP3    H260336   0.911   5.473  13.966  0.5976  0.6280 -1.0076
12949TIP3   OH260337   2.125   5.288   4.475 -0.0226 -0.7239 -0.4480
12949TIP3    H160338   2.075   5.227   4.529  0.2112 -1.5648 -1.1554
12949TIP3    H260339   2.202   5.239   4.448 -0.1274 -0.3262 -1.5402
12950TIP3   OH260340   4.440   1.747   0.555 -0.2388  0.0296 -0.3195
12950TIP3    H160341   4.531   1.754   0.525  0.5188 -0.8180  1.6004
12950TIP3    H260342   4.396   1.697   0.486  0.6026  0.8303 -1.4930
12951TIP3   OH260343   3.257   6.591   2.918  0.0834 -0.0553 -0.0423
12951TIP3    H160344   3.222   6.519   2.866  0.6076  0.7096 -1.5199
12951TIP3    H260345   3.183   6.648   2.934  0.0264 -0.0355 -0.3899
12952TIP3   OH260346   2.353   6.316   4.966  0.7682  0.0074 -0.4388
12952TIP3    H160347   2.448   6.316   4.982  0.5311 -2.9031  1.8609
12952TIP3    H260348   2.319   6.384   5.024  1.2164 -1.5428  1.8055
12953TIP3   OH260349   1.423   4.537  13.534 -0.6788  0.4407 -0.2309
12953TIP3    H160350   1.397   4.497  13.452 -1.3603  0.9080 -0.2511
12953TIP3    H260351   1.342   4.544  13.585 -0.2335 -0.0398  0.5702
12954TIP3   OH260352   0.367   6.616  16.304 -0.0595 -0.0876  0.2894
12954TIP3    H160353   0.313   6.667  16.366 -1.3487 -1.1621  0.0998
12954TIP3    H260354   0.305   6.587  16.238  0.1042 -3.7512  1.5430
12955TIP3   OH260355   2.365   3.094  11.833  0.1712 -0.9141  0.1363
12955TIP3    H160356   2.368   3.073  11.926 -0.0074 -1.7519 -0.0344
12955TIP3    H260357   2.454   3.076  11.801  1.0485  2.0605  0.6626
12956TIP3   OH260358   2.345   4.647  15.123  0.2567 -0.2217 -0.5632
12956TIP3    H160359   2.292   4.573  15.095 -2.4208  0.0037  3.1404
12956TIP3    H260360   2.399   4.612  15.195 -0.6878  1.2026  0.9054
12957TIP3   OH260361   0.977   1.305   5.498  0.5128  0.7177 -0.0244
12957TIP3    H160362   1.034   1.249   5.551 -0.9235 -0.5023  0.2819
12957TIP3    H260363   0.889   1.287   5.530 -0.1051  2.2674 -0.7545
12958TIP3   OH260364   4.170   2.361   4.130  0.7757 -0.4107  0.2154
12958TIP3    H160365   4.088   2.346   4.083  1.3164 -0.6972 -0.6555
12958TIP3    H260366   4.217   2.278   4.125  0.5842 -0.6533  1.8357
12959TIP3   OH260367   6.027   3.355  14.688  0.4872  0.1683  0.2748
12959TIP3    H160368   5.971   3.312  14.753  0.6980  0.4700  0.6538
12959TIP3    H260369   6.033   3.446  14.717  0.1759  0.4251 -0.4410
12960TIP3   OH260370   2.558   2.832  12.293 -0.2981  0.8187 -0.1487
12960TIP3    H160371   2.561   2.804  12.201  0.7221 -0.7669  0.3284
12960TIP3    H260372   2.510   2.763  12.338  1.5150  0.1662  0.9209
12961TIP3   OH260373   1.983   2.026  11.656 -0.3133  0.1700 -0.3866
12961TIP3    H160374   2.066   2.057  11.619 -0.4980  1.8040  0.4776
12961TIP3    H260375   2.009   1.976  11.733 -0.1038 -0.1030 -0.6297
12962TIP3   OH260376   1.756   0.252  16.298  0.3349  0.1372 -0.3277
12962TIP3    H160377   1.777   0.201  16.219 -1.9952 -1.0749 -0.2764
12962TIP3    H260378   1.839   0.288  16.327  2.0830 -3.1361 -0.7789
12963TIP3   OH260379   1.714   0.957  14.489  0.2379 -0.2800  0.1220
12963TIP3    H160380   1.787   0.935  14.546  1.3259  1.7839 -0.3828
12963TIP3    H260381   1.651   0.886  14.502  0.9020 -0.4360  3.0214
12964TIP3   OH260382   6.758   0.090   1.598  0.1426 -0.4071 -0.2296
12964TIP3    H160383   6.751   0.047   1.683 -0.3679  0.5124  0.2136
12964TIP3    H260384   6.745   0.020   1.534  3.3021 -1.6760  0.3494
12965TIP3   OH260385   6.619   4.652   1.541  0.1601  0.4985 -0.2518
12965TIP3    H160386   6.627   4.560   1.515 -0.8107  0.4092 -0.2711
12965TIP3    H260387   6.624   4.650   1.637 -0.1208  0.4009 -0.2402
12966TIP3   OH260388   3.414   4.290  10.227  0.3713 -0.0473  0.2136
12966TIP3    H160389   3.353   4.259  10.294 -0.8448  0.6699 -0.5262
12966TIP3    H260390   3.412   4.223  10.159  0.1353  0.1323  0.0391
12967TIP3   OH260391   4.274   3.775  16.022  0.0443 -0.2805 -0.2383
12967TIP3    H160392   4.312   3.858  16.053 -0.0770  0.5051 -2.0777
12967TIP3    H260393   4.221   3.799  15.946  0.7583 -2.1480 -1.4046
12968TIP3   OH260394   4.656   5.514  15.238  0.2582  0.4794 -0.2576
12968TIP3    H160395   4.692   5.426  15.251 -0.4822  0.2774  0.4652
12968TIP3    H260396   4.675   5.534  15.146  5.2016  1.7266  0.7397
12969TIP3   OH260397   0.176   2.993  10.632 -1.3024  1.1571 -0.4818
12969TIP3    H160398   0.269   3.013  10.628 -1.0526 -0.1162 -2.3445
12969TIP3    H260399   0.136   3.051  10.567 -0.9653 -1.8503 -3.7197
12970TIP3   OH260400   5.018   5.049  16.050  0.3062 -0.2970 -0.1081
12970TIP3    H160401   5.018   5.129  16.104 -0.2293 -0.8854  0.8041
12970TIP3    H260402   5.015   5.081  15.960 -2.6312  0.7550  0.2520
12971TIP3   OH260403   2.719   6.541   3.565  0.2417  0.3035  0.6389
12971TIP3    H160404   2.665   6.483   3.512  0.6886 -0.5916  1.1379
12971TIP3    H260405   2.665   6.619   3.578  0.9604  1.5976 -3.0493
12972TIP3   OH260406   5.512   3.597  15.890  0.3257  0.1642 -1.0008
12972TIP3    H160407   5.570   3.668  15.862  1.8431 -0.3001  0.7866
12972TIP3    H260408   5.488   3.620  15.980  3.1599 -2.8424  0.7374
12973TIP3   OH260409   3.367   5.323   3.120 -0.4892 -0.4110 -0.4133
12973TIP3    H160410   3.274   5.334   3.142 -0.4379 -0.7406 -0.0170
12973TIP3    H260411   3.411   5.393   3.168 -0.5035 -0.4213 -0.3854
12974TIP3   OH260412   5.220   4.795   2.728  0.2648 -0.5683 -0.6650
12974TIP3    H160413   5.182   4.797   2.816 -0.5049  0.2656 -1.0096
12974TIP3    H260414   5.168   4.858   2.678  0.5521 -1.1974 -1.7771
12975TIP3   OH260415   5.910   3.288   0.276  0.1343  0.0542 -0.1889
12975TIP3    H160416   5.988   3.333   0.311  0.0665  0.6687 -0.8122
12975TIP3    H260417   5.941   3.247   0.195  0.1272 -0.8216  0.2348
12976TIP3   OH260418   2.702   4.310   2.317 -0.5234 -0.7756 -0.3767
12976TIP3    H160419   2.617   4.284   2.281 -0.9450  1.9920 -1.6600
12976TIP3    H260420   2.751   4.343   2.241  0.2110  1.2545  0.8987
12977TIP3   OH260421   0.896   3.423  17.237  0.1276 -0.1487  0.1307
12977TIP3    H160422   0.853   3.415  17.322 -0.9096  0.6334 -0.2999
12977TIP3    H260423   0.892   3.335  17.200  0.7601 -0.5410  0.9584
12978TIP3   OH260424   4.194   0.650  13.810 -0.0476  0.6201 -0.3613
12978TIP3    H160425   4.134   0.643  13.884 -0.2560  1.2668 -0.4578
12978TIP3    H260426   4.277   0.613  13.842 -0.6817 -0.9258 -0.4558
12979TIP3   OH260427   1.098   2.108  15.433  0.4483 -0.0907 -0.0105
12979TIP3    H160428   1.017   2.068  15.467  0.2576 -0.2891 -0.6888
12979TIP3    H260429   1.122   2.054  15.358  1.1910  0.0004  0.1520
12980TIP3   OH260430   4.815   5.668  16.049  0.0028 -0.2424  1.0060
12980TIP3    H160431   4.803   5.588  15.997 -1.8448  0.2692  0.5570
12980TIP3    H260432   4.837   5.636  16.137  1.5589 -1.1506  0.3324
12981TIP3   OH260433   5.045   6.083  11.579 -0.2637  0.0010  0.5739
12981TIP3    H160434   5.041   6.021  11.507 -0.2310 -0.4445  0.9487
12981TIP3    H260435   5.139   6.098  11.593 -0.2557  2.0332 -1.1000
12982TIP3   OH260436   3.392   3.709   3.488 -0.0611  0.0677  0.3364
12982TIP3    H160437   3.402   3.762   3.409  0.1063 -0.2233  0.1616
12982TIP3    H260438   3.304   3.731   3.520  0.1351  0.6969  0.4511
12983TIP3   OH260439   1.223   4.481   4.782 -0.0025 -0.2748  0.4177
12983TIP3    H160440   1.308   4.440   4.767  0.0765  0.2765 -0.7549
12983TIP3    H260441   1.166   4.409   4.810  0.1092 -1.2331 -1.6368
12984TIP3   OH260442   1.982   6.044  16.917 -0.4032  0.0204 -0.5251
12984TIP3    H160443   2.053   6.031  16.854  0.1386 -0.9880  0.2718
12984TIP3    H260444   1.958   6.136  16.907  1.2264  0.4662 -0.5910
12985TIP3   OH260445   1.409   3.755  16.391 -0.2227 -0.0596  0.0605
12985TIP3    H160446   1.461   3.685  16.352  0.4235 -0.0190  0.8207
12985TIP3    H260447   1.387   3.813  16.318 -0.3817 -0.8072 -0.4972
12986TIP3   OH260448   5.663   4.354   5.318  0.1521 -0.1847 -0.1011
12986TIP3    H160449   5.741   4.350   5.372 -0.0349 -0.7317  0.1305
12986TIP3    H260450   5.594   4.313   5.370 -0.3787  0.6018 -0.1584
12987TIP3   OH260451   0.502   2.671   1.035  0.2854 -0.0671  0.4442
12987TIP3    H160452   0.564   2.627   0.978 -0.0131  1.7732 -1.3952
12987TIP3    H260453   0.417   2.657   0.994 -0.0728  0.4049  1.0070
12988TIP3   OH260454   0.414   5.962  12.867 -0.2696  0.0653  0.1433
12988TIP3    H160455   0.484   5.974  12.932 -0.4007 -1.1627  0.5388
12988TIP3    H260456   0.371   6.047  12.862 -1.6469 -0.3298  3.3094
12989TIP3   OH260457   3.966   0.334  12.221 -0.0249 -0.2984  0.1529
12989TIP3    H160458   4.005   0.414  12.257 -0.0709  1.5764 -3.4761
12989TIP3    H260459   3.899   0.309  12.285  2.0794  0.6432  2.9509
12990TIP3   OH260460   4.369   5.922   5.380  0.8625 -0.7232  0.0533
12990TIP3    H160461   4.381   5.828   5.389 -0.6734 -0.8693  0.8353
12990TIP3    H260462   4.309   5.932   5.306  1.9975 -0.2676 -0.8361
12991TIP3   OH260463   2.928   3.533  12.295 -0.9026  0.3338 -0.2585
12991TIP3    H160464   2.950   3.443  12.273 -0.8658  0.1227  0.6083
12991TIP3    H260465   2.847   3.551  12.247 -2.0846 -0.8697  1.1827
12992TIP3   OH260466   6.178   3.422  16.533 -0.6576 -0.2581 -0.0066
12992TIP3    H160467   6.194   3.423  16.438 -0.1607  0.3147  0.0770
12992TIP3    H260468   6.248   3.367  16.568  0.4327  1.2221  0.2281
12993TIP3   OH260469   1.089   4.580  17.076  0.0004  0.0893  0.6156
12993TIP3    H160470   1.054   4.592  17.164 -3.1480 -0.6312 -0.3728
12993TIP3    H260471   1.054   4.654  17.026 -0.8241 -1.0687 -0.6139
12994TIP3   OH260472   4.509   3.294   3.479  0.1615  0.3320  0.2643
12994TIP3    H160473   4.445   3.365   3.482 -0.4200 -0.1651 -0.2713
12994TIP3    H260474   4.496   3.247   3.561 -0.4113  0.0267  0.0071
12995TIP3   OH260475   2.959   5.629   2.488  0.3246  0.6650 -0.2661
12995TIP3    H160476   2.899   5.671   2.550 -1.2959 -0.6248 -0.8647
12995TIP3    H260477   2.952   5.535   2.509 -1.5614 -0.0100 -3.3742
12996TIP3   OH260478   4.005   0.316   4.336  0.2581  0.1509 -0.5474
12996TIP3    H160479   3.955   0.357   4.406 -0.6264  1.1077 -1.6820
12996TIP3    H260480   4.089   0.364   4.335 -0.2800  1.1271 -1.0399
12997TIP3   OH260481   5.057   5.072  14.449  0.1686  0.1218  0.1836
12997TIP3    H160482   4.997   5.140  14.419  0.3933 -0.2668 -1.2529
12997TIP3    H260483   5.018   5.039  14.529 -0.6564  1.0107  0.1618
12998TIP3   OH260484   1.413   2.329  14.258 -0.3083 -0.0682 -0.7015
12998TIP3    H160485   1.397   2.338  14.352 -1.2587 -2.9475 -0.4904
12998TIP3    H260486   1.355   2.392  14.217 -0.5935  0.5660  0.6257
12999TIP3   OH260487   4.232   4.343  15.231 -0.1788  0.3927  0.3072
12999TIP3    H160488   4.146   4.344  15.188 -0.5044 -1.0267  0.8732
12999TIP3    H260489   4.248   4.250  15.250  1.4545  0.6464  0.2754
13000TIP3   OH260490   2.697   3.772  13.395  0.0805 -0.2794  0.5045
13000TIP3    H160491   2.709   3.708  13.325 -0.9220  2.1499 -2.0520
13000TIP3    H260492   2.785   3.784  13.431  0.2263 -3.3798  1.4803
13001TIP3   OH260493   2.222   1.940   4.283  0.2598  0.0354 -0.0517
13001TIP3    H160494   2.258   1.982   4.361  0.7471  1.0439 -0.8057
13001TIP3    H260495   2.141   1.898   4.313  0.8781 -0.3212  1.1717
13002TIP3   OH260496   6.427   2.127  10.877  0.7487 -0.4020  0.0279
13002TIP3    H160497   6.389   2.211  10.903  0.1178 -0.1939 -1.4723
13002TIP3    H260498   6.518   2.148  10.856  1.2513 -0.5575  1.8223
13003TIP3   OH260499   0.791   5.370  12.944 -0.1741  0.1914 -0.0359
13003TIP3    H160500   0.824   5.314  12.873 -0.2293  0.5381 -0.3396
13003TIP3    H260501   0.863   5.430  12.962  0.4094 -0.8385  1.2399
13004TIP3   OH260502   0.086   3.890   1.123  0.7933 -0.1207 -0.1589
13004TIP3    H160503   0.105   3.800   1.149 -1.7301 -0.5091  0.6416
13004TIP3    H260504   0.129   3.944   1.189  1.5401 -0.7638 -0.1030
13005TIP3   OH260505   1.336   1.805  12.176 -0.0913 -0.1670 -0.1711
13005TIP3    H160506   1.364   1.785  12.265  0.1031 -0.7455 -0.3605
13005TIP3    H260507   1.343   1.722  12.129 -2.6641 -0.5185 -0.0840
13006TIP3   OH260508   1.534   5.596   3.474  0.2630 -0.3930  0.3365
13006TIP3    H160509   1.598   5.559   3.413 -0.1562  1.3349 -1.2632
13006TIP3    H260510   1.489   5.664   3.423 -2.4077 -1.0852  1.5857
13007TIP3   OH260511   5.620   1.884   1.343  0.1003  0.5767  0.7754
13007TIP3    H160512   5.539   1.850   1.380  0.3343 -1.1514 -0.1900
13007TIP3    H260513   5.609   1.979   1.344 -2.2155  0.3754  0.0305
13008TIP3   OH260514   5.199   4.723   1.693 -0.0042  0.8970 -0.3141
13008TIP3    H160515   5.202   4.738   1.787  0.7579  1.6576 -0.4482
13008TIP3    H260516   5.199   4.811   1.654  0.9466  0.5938 -1.0404
13009TIP3   OH260517   2.697   3.976   5.040 -0.1672 -0.4484  0.4580
13009TIP3    H160518   2.709   3.930   5.123 -1.2332 -2.0877 -0.2449
13009TIP3    H260519   2.687   3.906   4.975  0.9292  0.7853 -1.1205
13010TIP3   OH260520   2.781   2.385  11.915  0.0269 -0.2694 -0.5515
13010TIP3    H160521   2.776   2.374  11.820  0.5141 -1.5717 -0.4385
13010TIP3    H260522   2.866   2.427  11.930  1.2446 -2.6034 -0.5233
13011TIP3   OH260523   6.468   0.195  12.453  0.4286  0.4857  0.0796
13011TIP3    H160524   6.455   0.272  12.398 -0.3711  0.2771 -0.0370
13011TIP3    H260525   6.513   0.132  12.396  1.7752  1.1216  0.4027
13012TIP3   OH260526   6.742   0.195  15.201  0.0161 -0.5070 -0.5555
13012TIP3    H160527   6.683   0.120  15.211  0.8372 -0.9945  0.9545
13012TIP3    H260528   6.760   0.223  15.291  0.7198  0.7190 -1.0559
13013TIP3   OH260529   4.808   4.800   3.525 -0.0748  0.1181 -0.0775
13013TIP3    H160530   4.729   4.839   3.560 -1.5703 -2.7549  0.0813
13013TIP3    H260531   4.849   4.756   3.600  0.4697 -0.2511 -0.5740
13014TIP3   OH260532   6.318   0.508   0.039  0.0053 -0.1619  0.3873
13014TIP3    H160533   6.297   0.600   0.031 -1.4280 -0.3584  1.5432
13014TIP3    H260534   6.303   0.487   0.132 -1.3719 -1.9212 -0.1666
13015TIP3   OH260535   0.647   0.962  11.437  0.1364 -0.5115  0.1666
13015TIP3    H160536   0.607   0.884  11.399 -1.3574  0.0920  0.4536
13015TIP3    H260537   0.578   1.002  11.489  0.2987  1.9455 -1.3438
13016TIP3   OH260538   3.934   0.710   5.597 -0.1143  0.7838 -0.1188
13016TIP3    H160539   3.842   0.708   5.621 -0.5227 -0.2639 -1.5939
13016TIP3    H260540   3.950   0.624   5.558  1.6838  0.6822  0.7689
13017TIP3   OH260541   0.952   1.820   3.351  0.4364  0.2453  0.4224
13017TIP3    H160542   0.897   1.861   3.284 -2.1161 -1.5150  1.2859
13017TIP3    H260543   1.033   1.798   3.305 -0.2259  1.3844 -1.3941
13018TIP3   OH260544   4.486   4.172  16.739  0.6320  0.5909 -0.4241
13018TIP3    H160545   4.439   4.252  16.766 -0.7404 -0.2759 -0.1044
13018TIP3    H260546   4.576   4.187  16.767  0.1607  1.5535  0.7178
13019TIP3   OH260547   2.078   1.530  13.158  0.4883  0.6539  0.6116
13019TIP3    H160548   1.989   1.553  13.129  0.2618 -0.3304  0.5126
13019TIP3    H260549   2.065   1.469  13.230  1.0551 -1.8029 -1.2588
13020TIP3   OH260550   4.224   4.291  13.754 -0.1694 -0.6919  0.1562
13020TIP3    H160551   4.140   4.336  13.753 -0.7458 -1.7243 -1.3659
13020TIP3    H260552   4.203   4.201  13.779  0.4258 -1.0421 -0.5818
13021TIP3   OH260553   1.392   1.785  15.572 -0.0314  0.1858  0.0541
13021TIP3    H160554   1.404   1.737  15.491  1.2018 -1.5179  1.1812
13021TIP3    H260555   1.468   1.844  15.577  0.5527 -0.5974  0.5438
13022TIP3   OH260556   3.392   5.122   0.087 -0.2437  0.3858  0.2593
13022TIP3    H160557   3.451   5.085   0.021 -0.4471 -0.2084  0.3990
13022TIP3    H260558   3.401   5.216   0.077  0.4828  0.3021  0.0588
13023TIP3   OH260559   3.235   1.365   2.003  0.3901  0.3577  0.8385
13023TIP3    H160560   3.276   1.318   2.075  4.1555  0.3049 -1.0876
13023TIP3    H260561   3.308   1.404   1.955 -2.0777  2.4455 -1.5719
13024TIP3   OH260562   0.718   0.031   3.084  0.1752 -0.2012  0.7175
13024TIP3    H160563   0.764   0.114   3.073  1.1202 -0.9255 -1.1489
13024TIP3    H260564   0.788  -0.034   3.088 -0.5753 -0.9843  1.5528
13025TIP3   OH260565   3.368   2.829  12.175  0.2331  0.0853 -0.2542
13025TIP3    H160566   3.372   2.858  12.084  1.1532 -1.9726 -0.9421
13025TIP3    H260567   3.331   2.741  12.170  2.5237 -1.0322  1.0465
13026TIP3   OH260568   6.246   0.744   1.455 -0.2668  0.4613 -0.3288
13026TIP3    H160569   6.242   0.718   1.363  1.6719 -0.7238 -0.1463
13026TIP3    H260570   6.162   0.785   1.472 -1.2824 -0.6619 -2.2253
13027TIP3   OH260571   2.370   3.484  11.958  0.1777  0.0776  0.0168
13027TIP3    H160572   2.317   3.456  12.032  0.7526 -1.4320 -0.1028
13027TIP3    H260573   2.449   3.520  11.998  0.7772 -1.3365  0.1671
13028TIP3   OH260574   0.022   6.341   1.403  0.5257 -0.0281  0.1220
13028TIP3    H160575   0.022   6.360   1.497  1.6131 -0.0233  0.1386
13028TIP3    H260576   0.014   6.427   1.361  0.6866  0.0274  0.2070
13029TIP3   OH260577   1.803   6.190   5.018 -0.0361 -0.0709 -0.2500
13029TIP3    H160578   1.893   6.195   4.986  0.5841  0.7003  1.4564
13029TIP3    H260579   1.805   6.238   5.101 -1.7939 -0.9304  0.3319
13030TIP3   OH260580   2.685   4.810   1.802  0.3742 -0.0224 -0.0042
13030TIP3    H160581   2.671   4.899   1.769 -1.9519  0.0043  0.8741
13030TIP3    H260582   2.664   4.815   1.895 -0.6081 -1.6468 -0.1059
13031TIP3   OH260583   1.534   0.784  14.554 -0.4832  0.2406  0.5081
13031TIP3    H160584   1.560   0.759  14.642  2.3092  0.2657 -0.1978
13031TIP3    H260585   1.472   0.717  14.527 -1.7206  0.4748  2.5968
13032TIP3   OH260586   6.379   6.580  12.094  0.5378 -0.5591  0.4035
13032TIP3    H160587   6.391   6.486  12.097  1.0677 -0.5214 -0.3801
13032TIP3    H260588   6.446   6.615  12.152 -0.8910 -0.7382  2.2561
13033TIP3   OH260589   0.783   5.342   6.257  0.3772 -0.4034  0.1496
13033TIP3    H160590   0.827   5.264   6.223 -0.4037 -1.2046  0.9089
13033TIP3    H260591   0.714   5.307   6.314 -2.5758  0.6740 -2.4803
13034TIP3   OH260592   5.763   2.441   0.040  0.0547  0.6003  0.0791
13034TIP3    H160593   5.722   2.422  -0.044 -0.5695  1.0037  0.2887
13034TIP3    H260594   5.723   2.380   0.101  0.1329  0.6515  0.1823
13035TIP3   OH260595   2.456   0.163   4.868 -0.3034  0.2878 -0.0079
13035TIP3    H160596   2.497   0.220   4.933  1.0479 -0.2275 -0.3826
13035TIP3    H260597   2.401   0.221   4.816 -1.1067  0.7673  1.3396
13036TIP3   OH260598   0.010   4.030   4.450 -0.1797  0.2170  0.5167
13036TIP3    H160599  -0.060   4.086   4.419 -0.4146  0.1817  0.9872
13036TIP3    H260600  -0.029   3.978   4.520  0.3822  0.3836  0.9617
13037TIP3   OH260601   1.817   3.879   4.592  1.0249  0.0548  0.0200
13037TIP3    H160602   1.823   3.822   4.515  0.8293  0.7215 -0.4923
13037TIP3    H260603   1.765   3.828   4.655  2.1382 -0.9608  0.1540
13038TIP3   OH260604   6.115   3.118  14.059 -0.2813  0.2383 -0.3977
13038TIP3    H160605   6.094   3.179  13.989  0.4812  1.0475  0.0574
13038TIP3    H260606   6.207   3.094  14.043  0.1081  0.9475  0.6893
13039TIP3   OH260607   3.215   4.850   5.474  0.3016  0.3239 -0.4275
13039TIP3    H160608   3.261   4.772   5.507 -0.7253  0.4719  1.5297
13039TIP3    H260609   3.133   4.816   5.438  0.5115  0.3737 -0.9651
13040TIP3   OH260610   1.899   5.425   4.454  0.1262 -0.0634 -0.2914
13040TIP3    H160611   1.993   5.413   4.449 -0.0390 -1.6801 -0.0597
13040TIP3    H260612   1.862   5.343   4.421 -1.2242  0.8469 -1.2134
13041TIP3   OH260613   6.671   5.491  12.828 -0.0875 -0.1000 -0.0854
13041TIP3    H160614   6.577   5.484  12.813  0.0787 -0.9452 -0.7451
13041TIP3    H260615   6.687   5.433  12.903 -0.1323  0.3053  0.2466
13042TIP3   OH260616   4.850   6.759   1.732  0.0303  0.3097  0.1169
13042TIP3    H160617   4.823   6.675   1.694 -2.8315  0.9184  0.6012
13042TIP3    H260618   4.896   6.736   1.813 -1.3443 -0.8116  0.6130
13043TIP3   OH260619   4.303   0.094   1.839  0.2701  0.1533  0.3242
13043TIP3    H160620   4.352   0.156   1.786  0.3099 -1.7388 -2.0313
13043TIP3    H260621   4.212   0.123   1.831  0.3311  0.1572 -0.4108
13044TIP3   OH260622   5.826   0.479  12.158  0.5975 -0.0452  0.2715
13044TIP3    H160623   5.807   0.423  12.233 -0.2203  0.7123  0.6440
13044TIP3    H260624   5.843   0.418  12.086  2.0536 -0.7875  1.2057
13045TIP3   OH260625   2.918   1.399   0.829  0.8348 -0.0958 -0.2118
13045TIP3    H160626   2.918   1.422   0.737  0.8951 -0.1211 -0.2180
13045TIP3    H260627   2.837   1.348   0.841  0.4622  0.5111 -0.0982
13046TIP3   OH260628   5.118   3.381   0.530  0.1381 -0.2151  0.0420
13046TIP3    H160629   5.135   3.475   0.533 -2.0622  0.2832 -1.0842
13046TIP3    H260630   5.095   3.357   0.620 -0.6495  0.6435  0.0849
13047TIP3   OH260631   3.701   5.854   3.337  0.0478 -0.2719 -0.2718
13047TIP3    H160632   3.683   5.761   3.353  1.6727 -0.4880  0.4503
13047TIP3    H260633   3.722   5.890   3.423 -1.6675  1.0611 -0.3569
13048TIP3   OH260634   6.151   1.565   3.463 -0.5125  0.2776 -0.2869
13048TIP3    H160635   6.076   1.518   3.499  0.4855 -1.9172 -0.9136
13048TIP3    H260636   6.134   1.571   3.369 -1.6783  3.3176 -0.0043
13049TIP3   OH260637   1.945   1.651  14.328 -0.8649 -0.4887 -0.5074
13049TIP3    H160638   1.962   1.688  14.415  1.4927  1.7696 -1.7952
13049TIP3    H260639   1.992   1.568  14.328 -1.2330 -0.7094  0.4949
13050TIP3   OH260640   5.082   1.864   0.922 -0.3451 -0.2561  0.2441
13050TIP3    H160641   5.085   1.958   0.939  0.1751 -0.1949 -0.1495
13050TIP3    H260642   5.037   1.827   0.998 -1.4684  0.4170 -0.0754
13051TIP3   OH260643   4.401   0.370   3.413 -0.5024  0.7850  0.7250
13051TIP3    H160644   4.341   0.299   3.390  1.1148 -0.9635  1.7351
13051TIP3    H260645   4.373   0.397   3.501  0.4843 -0.4120  1.4322
13052TIP3   OH260646   4.768   1.968   0.244 -0.0535 -0.2352  0.0304
13052TIP3    H160647   4.839   2.012   0.291 -0.1623 -0.0951  0.0662
13052TIP3    H260648   4.800   1.958   0.155 -0.5672  1.2189 -0.3561
13053TIP3   OH260649   1.160   2.601  16.377  0.0316 -0.2531 -0.3752
13053TIP3    H160650   1.115   2.685  16.383 -0.3391 -0.3941 -1.0171
13053TIP3    H260651   1.100   2.539  16.419  0.4769 -0.1433  0.4449
13054TIP3   OH260652   5.142   4.252  14.126 -0.6859  0.1075  0.5616
13054TIP3    H160653   5.054   4.216  14.122 -0.7030  0.1243  0.7579
13054TIP3    H260654   5.178   4.238  14.039 -1.0978  0.6359  0.2957
13055TIP3   OH260655   2.219   5.334   4.831  0.2504  0.0931 -0.0275
13055TIP3    H160656   2.162   5.259   4.810  1.5204 -0.5139 -1.4874
13055TIP3    H260657   2.191   5.402   4.770 -0.3754  0.5714  0.7711
13056TIP3   OH260658   0.421   0.223  15.690 -0.8178  0.4142 -0.1771
13056TIP3    H160659   0.467   0.140  15.700 -0.3054  0.9039  1.9874
13056TIP3    H260660   0.448   0.256  15.605 -1.0105 -1.5954 -1.0713
13057TIP3   OH260661   1.214   4.506   2.983  0.0126  0.5778  0.4422
13057TIP3    H160662   1.132   4.457   2.989 -0.5815  1.5060  0.1672
13057TIP3    H260663   1.253   4.499   3.070  1.2272 -2.4934 -0.2351
13058TIP3   OH260664   1.837   5.608  14.545  0.1657  0.0274 -0.0201
13058TIP3    H160665   1.907   5.622  14.482  0.9179 -0.4478  0.7008
13058TIP3    H260666   1.839   5.686  14.601 -0.4125  0.3846 -0.4771
13059TIP3   OH260667   6.181   5.770   1.584  0.2971  0.4900 -0.1475
13059TIP3    H160668   6.132   5.700   1.540 -0.5179  0.6208  0.5115
13059TIP3    H260669   6.152   5.764   1.675  0.0038  1.8607 -0.1365
13060TIP3   OH260670   3.348   3.726  11.170 -0.0689 -0.3090 -0.1035
13060TIP3    H160671   3.443   3.737  11.183 -0.3118  0.9977  0.7327
13060TIP3    H260672   3.338   3.714  11.075  0.9361 -0.4757 -0.1998
13061TIP3   OH260673   3.967   1.342   2.328 -0.6986 -0.1121  0.0883
13061TIP3    H160674   3.919   1.332   2.410 -0.8526 -0.9894 -0.0913
13061TIP3    H260675   4.029   1.269   2.327  0.4778  0.8538  0.1948
13062TIP3   OH260676   3.003   1.976  13.641  1.0141  0.1210 -0.0538
13062TIP3    H160677   2.966   1.891  13.666 -0.1610 -0.3182 -2.9529
13062TIP3    H260678   3.093   1.957  13.614  0.8072 -0.1901 -0.5333
13063TIP3   OH260679   3.652   1.953   4.193  0.1594 -0.3424 -0.2928
13063TIP3    H160680   3.568   1.981   4.157 -0.2812 -0.4863  0.5999
13063TIP3    H260681   3.715   1.969   4.122 -0.5311  0.2493 -0.7872
13064TIP3   OH260682   4.976   4.584  11.399 -0.2703 -0.4960  0.0692
13064TIP3    H160683   4.914   4.568  11.470 -0.6049 -1.2600 -0.3833
13064TIP3    H260684   4.962   4.512  11.338  1.4341 -0.9901  0.2025
13065TIP3   OH260685   1.303   3.035  14.852  0.5371  0.3778  0.1804
13065TIP3    H160686   1.373   3.099  14.843  0.1277  0.7608 -0.3909
13065TIP3    H260687   1.268   3.049  14.940  0.3464  1.0553  0.0021
13066TIP3   OH260688   1.844   0.574  15.743 -0.3823 -0.4918 -0.0173
13066TIP3    H160689   1.871   0.529  15.823 -1.4227  0.3345  0.8296
13066TIP3    H260690   1.878   0.663  15.753 -1.5149 -0.0528  0.0701
13067TIP3   OH260691   3.103   3.449   1.457  0.2640 -0.2507 -0.0884
13067TIP3    H160692   3.119   3.474   1.548  1.1579 -0.5387 -0.1556
13067TIP3    H260693   3.177   3.486   1.408  0.1919 -0.7313 -0.5767
13068TIP3   OH260694   1.039   6.723  15.829  0.0246  0.1161 -0.1217
13068TIP3    H160695   0.950   6.739  15.796 -0.2132 -0.6115  0.1375
13068TIP3    H260696   1.036   6.750  15.921 -0.4579 -1.5652  0.3959
13069TIP3   OH260697   1.721   3.180   3.342  0.3012 -0.2202 -0.1948
13069TIP3    H160698   1.689   3.101   3.298  1.3725 -0.4057 -0.6837
13069TIP3    H260699   1.817   3.175   3.334  0.4209  0.7554  0.4150
13070TIP3   OH260700   3.534   0.184  13.236  0.0665  0.0001 -0.2909
13070TIP3    H160701   3.519   0.090  13.243  1.9057 -0.2388  1.6195
13070TIP3    H260702   3.558   0.211  13.325 -1.3159  2.4704 -0.5830
13071TIP3   OH260703   6.126   2.987  15.515  0.3561 -0.0128 -0.5501
13071TIP3    H160704   6.094   3.076  15.499  0.7983  0.1939 -0.2883
13071TIP3    H260705   6.053   2.944  15.559  0.5726  0.5834  0.4301
13072TIP3   OH260706   2.613   3.155  14.690 -0.0322 -0.5092 -0.3083
13072TIP3    H160707   2.615   3.219  14.619  0.5178 -0.9662 -0.7145
13072TIP3    H260708   2.668   3.082  14.659  0.3425 -0.6506  0.6398
13073TIP3   OH260709   5.772   1.166   6.367  0.2871 -1.0648 -0.4778
13073TIP3    H160710   5.818   1.250   6.372 -0.8662 -0.2968 -1.7485
13073TIP3    H260711   5.679   1.191   6.363 -0.0410 -2.3644 -1.5035
13074TIP3   OH260712   1.541   4.780  13.935 -0.2239 -0.2668  0.0276
13074TIP3    H160713   1.598   4.857  13.944  0.3862 -0.7155  0.0435
13074TIP3    H260714   1.463   4.813  13.889  0.4704  0.1564 -0.8862
13075TIP3   OH260715   6.477   4.097  15.943  0.1083 -0.3937 -0.7143
13075TIP3    H160716   6.418   4.157  15.896 -0.2988 -0.4317 -0.2631
13075TIP3    H260717   6.529   4.056  15.875  0.9845  1.0908 -0.9903
13076TIP3   OH260718   5.297   1.782   0.539 -0.1013  0.1843 -0.3069
13076TIP3    H160719   5.360   1.726   0.495  0.5437 -0.5908  1.5061
13076TIP3    H260720   5.342   1.866   0.549  0.4646 -0.1876  0.4438
13077TIP3   OH260721   3.273   4.576   2.286 -0.1215 -0.2830 -0.3657
13077TIP3    H160722   3.200   4.633   2.309  0.7110  0.3956  0.6958
13077TIP3    H260723   3.340   4.595   2.353  0.4590 -1.9568 -0.4416
13078TIP3   OH260724   1.367   1.607   2.519 -0.8470 -0.0678 -0.0064
13078TIP3    H160725   1.377   1.517   2.489  0.8560  0.0987 -0.0512
13078TIP3    H260726   1.298   1.644   2.464 -0.3910 -0.8673 -1.1459
13079TIP3   OH260727   1.105   1.268   3.303 -0.5763  0.2106  0.3203
13079TIP3    H160728   1.053   1.323   3.244 -1.3955 -0.6210  0.2419
13079TIP3    H260729   1.188   1.256   3.256 -1.8486 -1.9147 -1.5780
13080TIP3   OH260730   5.573   1.566   0.886 -0.2582 -0.0257 -0.0243
13080TIP3    H160731   5.655   1.546   0.931  0.2839 -0.0346 -0.9945
13080TIP3    H260732   5.594   1.562   0.793 -0.8864  1.9251 -0.2961
13081TIP3   OH260733   5.968   5.988  12.887  0.2880 -0.1130 -0.2895
13081TIP3    H160734   5.905   6.052  12.918  0.3400  0.3219 -1.0616
13081TIP3    H260735   6.049   6.038  12.873 -0.1607  0.0566 -2.6351
13082TIP3   OH260736   1.256   0.260  13.315  0.6230 -0.1053 -0.0866
13082TIP3    H160737   1.163   0.249  13.334  0.7188 -0.4152  0.2066
13082TIP3    H260738   1.283   0.176  13.278  0.8296 -0.0792  0.0032
13083TIP3   OH260739   5.026   2.563   3.007  0.3414  0.0726  0.2306
13083TIP3    H160740   4.984   2.628   2.949  1.5890  0.7648  0.0586
13083TIP3    H260741   5.118   2.589   3.008  0.4465 -0.2744  2.0950
13084TIP3   OH260742   1.379   6.689  16.847  0.1647 -0.0050  0.1413
13084TIP3    H160743   1.304   6.714  16.900  1.4394 -0.8077  2.4747
13084TIP3    H260744   1.379   6.594  16.848  2.3660 -0.0754  2.0985
13085TIP3   OH260745   0.470   4.936  12.661 -0.6726  0.4241 -0.2564
13085TIP3    H160746   0.404   5.000  12.633 -1.2326 -0.3430 -0.7213
13085TIP3    H260747   0.437   4.852  12.630  0.7436  0.0712 -0.8852
13086TIP3   OH260748   1.720   1.410   4.860 -0.3505  0.4837  0.2153
13086TIP3    H160749   1.797   1.391   4.807 -0.9579 -0.2155 -0.4501
13086TIP3    H260750   1.740   1.372   4.946  0.3442  0.9791  0.2803
13087TIP3   OH260751   1.871   3.449   1.946 -0.4819  0.2397  0.3655
13087TIP3    H160752   1.790   3.399   1.949 -0.9001  0.8804 -0.0423
13087TIP3    H260753   1.940   3.384   1.958 -1.1079 -0.1171  2.2471
13088TIP3   OH260754   4.540   2.961   4.520  0.3434  0.3430 -0.4592
13088TIP3    H160755   4.584   2.879   4.544 -1.4348 -0.0882  1.6410
13088TIP3    H260756   4.597   3.000   4.454  1.4746 -2.3532 -1.2175
13089TIP3   OH260757   3.135   4.229  14.881 -0.8406  0.1221  0.4531
13089TIP3    H160758   3.121   4.295  14.948 -1.3910  1.7150 -1.1565
13089TIP3    H260759   3.071   4.161  14.900 -0.9092  0.4940  1.5902
13090TIP3   OH260760   0.677   2.045  16.693 -0.4691 -0.0238  0.5650
13090TIP3    H160761   0.675   2.029  16.788 -1.1716 -1.1701  0.3828
13090TIP3    H260762   0.585   2.049  16.668 -0.3338  2.5764  0.2421
13091TIP3   OH260763   1.881   6.491  15.073 -0.7663  0.1352 -0.2032
13091TIP3    H160764   1.953   6.527  15.020 -0.5029  0.4682  0.3673
13091TIP3    H260765   1.836   6.568  15.107 -0.1930 -0.0526  1.0377
13092TIP3   OH260766   0.397   6.447  13.569 -0.1597  0.1211  0.1018
13092TIP3    H160767   0.355   6.377  13.520  1.5789 -2.0112  1.5091
13092TIP3    H260768   0.324   6.499  13.604 -1.5681 -1.9195  0.3370
13093TIP3   OH260769   2.896   2.905   5.378  0.6404  0.5332  0.0018
13093TIP3    H160770   2.809   2.943   5.391  0.7914  0.2705  2.1057
13093TIP3    H260771   2.880   2.830   5.320 -0.4437  0.8433 -0.1260
13094TIP3   OH260772   6.665   5.135   3.632 -0.0785 -0.6001 -0.0772
13094TIP3    H160773   6.641   5.187   3.556  0.4783  0.5988  0.5485
13094TIP3    H260774   6.599   5.065   3.634 -2.1457  1.2409  0.2385
13095TIP3   OH260775   0.024   2.730   5.699 -0.4878 -0.0820 -0.4092
13095TIP3    H160776   0.074   2.649   5.694  0.4289  0.4984 -0.8610
13095TIP3    H260777  -0.067   2.703   5.687 -0.5098 -1.3599  2.0188
13096TIP3   OH260778   6.605   2.970  14.747  0.0062  0.0770  0.2496
13096TIP3    H160779   6.554   3.029  14.691 -0.3491  0.6467  1.1510
13096TIP3    H260780   6.541   2.904  14.775  0.6781 -1.5187 -1.7649
13097TIP3   OH260781   4.100   1.887   3.606  0.0329  0.0427  0.5151
13097TIP3    H160782   4.169   1.916   3.547 -0.0460 -0.8159 -0.0322
13097TIP3    H260783   4.110   1.791   3.608 -1.6343 -0.1867 -0.2355
13098TIP3   OH260784   3.408   5.297  12.709  0.3989  0.1929 -0.1010
13098TIP3    H160785   3.348   5.224  12.725 -0.1593 -0.0829 -2.8944
13098TIP3    H260786   3.370   5.370  12.758  0.7657 -1.2052  2.4588
13099TIP3   OH260787   4.516   0.287   4.294  0.1639  0.2059 -0.2656
13099TIP3    H160788   4.570   0.360   4.264 -1.0884  1.1423 -0.3160
13099TIP3    H260789   4.552   0.265   4.380  1.1482  0.2445 -0.6534
13100TIP3   OH260790   2.437   3.083   1.720 -0.4321  0.2755 -0.0832
13100TIP3    H160791   2.523   3.111   1.689 -0.8917  0.1565 -1.5686
13100TIP3    H260792   2.375   3.122   1.657 -1.6720  2.2593  2.2134
13101TIP3   OH260793   1.115   5.736   3.899  0.1613 -0.2227 -0.3826
13101TIP3    H160794   1.037   5.747   3.954  0.9589 -0.1973  0.7959
13101TIP3    H260795   1.098   5.657   3.848 -0.5209 -0.3719  0.0649
13102TIP3   OH260796   2.152   4.545  15.775 -0.0608 -0.1484 -0.1986
13102TIP3    H160797   2.164   4.460  15.731  1.6216  0.9887 -2.0975
13102TIP3    H260798   2.216   4.545  15.846  0.8674  0.0167 -1.0169
13103TIP3   OH260799   6.073   0.766  15.226  0.0899 -0.0115  0.2736
13103TIP3    H160800   6.143   0.742  15.287  0.5385  1.3402  0.3167
13103TIP3    H260801   6.067   0.861  15.233 -0.8650  0.0101 -0.7041
13104TIP3   OH260802   5.614   3.532  10.460 -0.1720  0.0548 -0.0433
13104TIP3    H160803   5.651   3.514  10.546 -0.2524  1.8297  0.4005
13104TIP3    H260804   5.675   3.490  10.399 -0.1195 -1.2287  0.8579
13105TIP3   OH260805   3.759   5.647  13.520  0.4650 -0.0901 -0.1533
13105TIP3    H160806   3.791   5.704  13.450  1.2486 -0.5032 -0.1456
13105TIP3    H260807   3.672   5.621  13.492  0.0852  1.1325 -0.1416
13106TIP3   OH260808   6.054   6.468   5.126  0.1173  0.4471 -0.0897
13106TIP3    H160809   6.024   6.379   5.112 -0.9430  0.6814  0.5529
13106TIP3    H260810   6.030   6.516   5.047  1.2214  0.0427 -0.6814
13107TIP3   OH260811   4.326   0.504  14.541 -0.5392  0.0370 -0.6029
13107TIP3    H160812   4.397   0.464  14.592  0.6666  1.8278 -0.7521
13107TIP3    H260813   4.363   0.588  14.512 -2.3020  0.4533 -1.7780
13108TIP3   OH260814   2.876   5.107   5.650  0.0865  0.3344 -0.3061
13108TIP3    H160815   2.891   5.018   5.617 -2.4523 -0.5805  0.7448
13108TIP3    H260816   2.865   5.096   5.745 -3.3034  1.1893 -0.4485
13109TIP3   OH260817   3.012   3.759  15.186  0.1424  0.6502 -0.5054
13109TIP3    H160818   2.984   3.730  15.273 -0.2921  2.0230 -0.1705
13109TIP3    H260819   3.100   3.721  15.176  1.2940  2.5112  1.6159
13110TIP3   OH260820   4.855   6.404   5.684 -0.2493 -0.1781  0.3979
13110TIP3    H160821   4.819   6.427   5.770 -0.3141 -1.0222  0.6061
13110TIP3    H260822   4.795   6.338   5.650  0.3125 -0.5612  0.1276
13111TIP3   OH260823   5.866   3.351  16.043  0.2626 -0.1185 -0.0032
13111TIP3    H160824   5.774   3.357  16.068  0.7001 -1.1407  1.9870
13111TIP3    H260825   5.887   3.438  16.010 -1.5906 -0.0830 -1.2272
13112TIP3   OH260826   5.345   3.754  11.888  0.6415 -0.3017 -0.6282
13112TIP3    H160827   5.256   3.783  11.873  1.2060  2.0375  0.1445
13112TIP3    H260828   5.337   3.660  11.905 -1.6070 -0.2168 -0.9281
13113TIP3   OH260829   6.072   1.417  15.399  0.4837  0.2028 -0.3028
13113TIP3    H160830   6.045   1.474  15.471  0.8438  0.5457 -0.4329
13113TIP3    H260831   6.149   1.371  15.433  0.4136  0.0675 -0.3272
13114TIP3   OH260832   4.236   2.422  14.670 -0.3691  0.2246 -0.1787
13114TIP3    H160833   4.190   2.505  14.657  1.8365  2.0028  2.2304
13114TIP3    H260834   4.280   2.406  14.586  0.0423  2.1218 -0.3673
13115TIP3   OH260835   0.517   1.417  14.833 -0.1725 -0.4700  0.2312
13115TIP3    H160836   0.540   1.341  14.886 -2.0589 -2.4828 -1.5937
13115TIP3    H260837   0.449   1.384  14.774 -3.2580  3.3217  1.2211
13116TIP3   OH260838   0.017   5.612  11.226 -0.0744  0.1511 -0.5789
13116TIP3    H160839   0.069   5.690  11.247 -1.7631  1.3610 -0.6930
13116TIP3    H260840  -0.074   5.639  11.238 -0.7269 -1.7865 -0.7304
13117TIP3   OH260841   5.751   0.448  15.616 -0.4537 -0.7822  0.0349
13117TIP3    H160842   5.795   0.498  15.548 -3.0121  1.7861  0.0827
13117TIP3    H260843   5.703   0.380  15.569 -1.3937  0.3365 -0.6677
13118TIP3   OH260844   4.849   3.341   5.354  0.0137 -0.3277  0.0613
13118TIP3    H160845   4.879   3.378   5.437 -0.7211  2.0141 -0.6419
13118TIP3    H260846   4.833   3.417   5.298 -0.1503 -1.8130 -2.0219
13119TIP3   OH260847   2.221   5.198  10.763  0.4172 -0.4323  0.1103
13119TIP3    H160848   2.203   5.109  10.734 -0.9466 -0.6552  1.5295
13119TIP3    H260849   2.315   5.211  10.746  0.5891 -2.0551 -0.2709
13120TIP3   OH260850   3.351   0.882  12.586  0.3577  0.4626 -0.0687
13120TIP3    H160851   3.266   0.890  12.545  0.6631  0.9256 -0.6244
13120TIP3    H260852   3.405   0.834  12.523  0.1741 -0.9647  0.8045
13121TIP3   OH260853   4.917   2.032   2.249 -0.5274  0.2271  0.2630
13121TIP3    H160854   4.965   2.061   2.171 -0.2507  1.2408  0.7997
13121TIP3    H260855   4.835   2.080   2.246 -0.2025  0.8346  0.9910
13122TIP3   OH260856   1.370   1.867   3.927  0.6767  0.0816 -0.3149
13122TIP3    H160857   1.343   1.944   3.977 -0.3551  0.2836 -1.1444
13122TIP3    H260858   1.331   1.880   3.840  1.3386 -0.8869 -0.7737
13123TIP3   OH260859   0.115   2.867   3.918 -0.0322  0.2191 -0.0441
13123TIP3    H160860   0.092   2.844   3.828 -0.1476  0.6834 -0.1342
13123TIP3    H260861   0.172   2.796   3.947  0.3270  0.2705 -0.6178
13124TIP3   OH260862   2.809   5.379  14.646  0.3347 -0.2870 -0.3977
13124TIP3    H160863   2.875   5.438  14.683  0.3190  0.4550 -1.5196
13124TIP3    H260864   2.734   5.386  14.706  0.5730  0.3316 -0.1678
13125TIP3   OH260865   5.212   0.608   4.315 -0.7417 -0.2892  0.5541
13125TIP3    H160866   5.295   0.621   4.269 -1.4658 -2.2526 -1.4724
13125TIP3    H260867   5.225   0.527   4.365 -1.0928 -0.0103  1.1057
13126TIP3   OH260868   0.583   3.397  13.112  0.1316  0.7059 -0.4355
13126TIP3    H160869   0.526   3.323  13.089  0.6166  0.6120 -1.4057
13126TIP3    H260870   0.629   3.368  13.190 -1.2263  0.8302  0.4425
13127TIP3   OH260871   1.547   3.096  13.173  0.3503  0.1975  0.1775
13127TIP3    H160872   1.560   3.146  13.254  0.1532  1.0936 -0.3207
13127TIP3    H260873   1.478   3.144  13.127  0.1454 -0.5598 -0.3199
13128TIP3   OH260874   2.976   2.193  12.378 -0.0503 -0.0787  0.3279
13128TIP3    H160875   2.964   2.100  12.392 -0.3495 -0.2839 -1.1113
13128TIP3    H260876   3.044   2.199  12.310  0.6989  0.7817  1.1203
13129TIP3   OH260877   0.693   3.683  10.922  0.2268 -0.1266 -0.7586
13129TIP3    H160878   0.687   3.730  10.838  0.6053  0.3927 -0.4978
13129TIP3    H260879   0.778   3.708  10.957 -0.5651  0.8775  0.5094
13130TIP3   OH260880   2.231   2.605   5.005 -0.1696 -0.3760 -0.7523
13130TIP3    H160881   2.186   2.656   5.072  0.1009 -1.8183  0.5829
13130TIP3    H260882   2.319   2.643   5.001 -0.3784  0.1230 -0.7814
13131TIP3   OH260883   2.774   2.351  12.495  0.7702 -0.3389 -0.1308
13131TIP3    H160884   2.832   2.322  12.425  0.5108 -1.2249  0.0103
13131TIP3    H260885   2.692   2.304  12.480  0.2481  0.5043 -0.0264
13132TIP3   OH260886   2.198   4.747  16.840 -0.3074  0.5916 -0.0755
13132TIP3    H160887   2.174   4.655  16.828 -0.1226  0.6759 -1.1484
13132TIP3    H260888   2.243   4.749  16.925 -0.3752 -0.2877 -0.0089
13133TIP3   OH260889   6.402   6.473   4.113  0.1168 -0.1828  0.4558
13133TIP3    H160890   6.404   6.394   4.167 -2.4233 -1.5100 -1.2070
13133TIP3    H260891   6.318   6.514   4.132 -0.3605 -0.0955 -1.5915
13134TIP3   OH260892   2.919   0.095  13.236 -0.1272 -0.2056  0.4947
13134TIP3    H160893   2.901   0.187  13.216  3.3011  0.9126  1.8852
13134TIP3    H260894   2.910   0.050  13.151 -2.2289  1.2555 -0.1383
13135TIP3   OH260895   3.552   4.709  14.007 -0.3523  0.0086 -0.5132
13135TIP3    H160896   3.597   4.635  14.049  0.8378  1.4201  0.7997
13135TIP3    H260897   3.465   4.675  13.985 -0.7295 -1.1091  2.2695
13136TIP3   OH260898   6.222   5.616   0.856 -0.2991 -0.8922  0.0971
13136TIP3    H160899   6.198   5.526   0.881  0.8273 -1.1003  0.4968
13136TIP3    H260900   6.204   5.621   0.762  0.1767 -1.7372 -0.0516
13137TIP3   OH260901   2.701   4.669  16.056 -0.2233 -0.0810 -0.0676
13137TIP3    H160902   2.609   4.694  16.061 -0.3560 -0.7357  0.9283
13137TIP3    H260903   2.708   4.620  15.974 -0.4657  1.0617 -0.8123
13138TIP3   OH260904   4.840   4.510  13.497 -0.0831 -0.3024 -0.2755
13138TIP3    H160905   4.887   4.513  13.413  0.7246 -1.5855  0.0962
13138TIP3    H260906   4.775   4.580  13.491  0.4047  0.0620 -1.7057
13139TIP3   OH260907   1.040   4.069   5.570 -0.4951  0.1547 -0.2870
13139TIP3    H160908   0.982   3.996   5.588 -1.2070  0.8004  0.1054
13139TIP3    H260909   1.074   4.095   5.655  0.8376 -0.5699 -0.5677
13140TIP3   OH260910   6.757   6.418   2.762 -0.3601  0.5156  0.5759
13140TIP3    H160911   6.663   6.420   2.780 -0.5029  3.6055  0.0660
13140TIP3    H260912   6.798   6.455   2.840  0.3177  0.3884  0.2945
13141TIP3   OH260913   1.292   3.612   4.900  0.4240 -0.0287 -0.2348
13141TIP3    H160914   1.363   3.675   4.887  1.0298 -1.2041 -3.6606
13141TIP3    H260915   1.218   3.665   4.929  1.5949  1.8661 -0.5349
13142TIP3   OH260916   4.224   3.942   4.091  0.2072 -0.4903 -0.0515
13142TIP3    H160917   4.208   3.883   4.018 -1.4918 -1.6343  1.1714
13142TIP3    H260918   4.175   4.021   4.070  1.4285  0.0218 -1.0857
13143TIP3   OH260919   1.152   1.339   1.925 -0.3301 -0.3840  0.2443
13143TIP3    H160920   1.059   1.318   1.914 -0.5689  0.3598  0.7995
13143TIP3    H260921   1.179   1.372   1.840 -1.3056  2.0855  0.8013
13144TIP3   OH260922   5.246   4.713  10.888 -0.1290  0.7607 -0.5075
13144TIP3    H160923   5.195   4.642  10.850  0.8543 -1.3121  1.7303
13144TIP3    H260924   5.333   4.704  10.847  0.5947 -0.7468  1.2017
13145TIP3   OH260925   4.851   2.821  12.862 -0.2621  0.2340 -0.0270
13145TIP3    H160926   4.807   2.758  12.805 -0.3907 -0.9568  1.3373
13145TIP3    H260927   4.797   2.823  12.941  0.7553  0.6602  0.6791
13146TIP3   OH260928   6.765   5.423   3.131 -0.0162  0.6399  0.1336
13146TIP3    H160929   6.731   5.470   3.055  0.0883  0.1456 -0.2254
13146TIP3    H260930   6.728   5.335   3.122 -0.7168  0.8156  1.1251
13147TIP3   OH260931   3.275   5.804  13.515  0.0367  0.6698 -0.3898
13147TIP3    H160932   3.262   5.769  13.427  2.3998  0.3911 -0.6806
13147TIP3    H260933   3.339   5.745  13.555  0.6507  2.0447  0.7329
13148TIP3   OH260934   4.946   1.738   1.727  0.0354 -0.2273  0.8867
13148TIP3    H160935   4.998   1.789   1.664 -1.6974  1.4707  0.7357
13148TIP3    H260936   5.009   1.712   1.794  0.8086  3.6445  1.9050
13149TIP3   OH260937   0.618   0.768  10.770 -0.0510 -0.4738  0.6670
13149TIP3    H160938   0.707   0.801  10.762  0.1132 -0.7995  1.1132
13149TIP3    H260939   0.562   0.842  10.745  0.3572 -0.5578 -0.5672
13150TIP3   OH260940   1.802   0.420   1.083  0.5868  0.1141 -0.1893
13150TIP3    H160941   1.807   0.504   1.037  0.6431 -0.7324 -1.7963
13150TIP3    H260942   1.799   0.355   1.013 -1.7674 -1.1228  0.9631
13151TIP3   OH260943   1.635   5.258   2.458 -0.4261 -0.3782  0.5006
13151TIP3    H160944   1.686   5.186   2.494 -0.0497 -0.6619 -0.5613
13151TIP3    H260945   1.554   5.258   2.509 -0.1547 -1.1397  0.9417
13152TIP3   OH260946   1.650   1.091   4.202  0.2999 -0.4254 -0.0388
13152TIP3    H160947   1.622   1.165   4.255 -0.4261  0.2627 -1.3500
13152TIP3    H260948   1.656   1.018   4.264  4.3290  1.3296  2.0394
13153TIP3   OH260949   6.312   3.557  14.279  0.2417  0.2072 -0.3861
13153TIP3    H160950   6.314   3.524  14.189  0.3201  0.8788 -0.6328
13153TIP3    H260951   6.276   3.484  14.330 -0.0393 -0.0902 -0.9968
13154TIP3   OH260952   5.510   2.641  14.249 -0.0927  0.8204 -0.4537
13154TIP3    H160953   5.547   2.594  14.323 -0.9190 -2.4090 -1.9475
13154TIP3    H260954   5.585   2.659  14.192  0.1355  0.7987 -0.1626
13155TIP3   OH260955   1.725   5.200   4.455 -0.5637 -0.1935  0.4620
13155TIP3    H160956   1.801   5.144   4.471 -0.4741 -0.8221 -1.7917
13155TIP3    H260957   1.650   5.146   4.482 -0.4367 -1.1977 -1.0801
13156TIP3   OH260958   6.004   0.165   6.355 -0.2148  0.2071  0.2909
13156TIP3    H160959   6.024   0.227   6.425 -0.9655  1.3020 -0.4468
13156TIP3    H260960   5.909   0.152   6.361 -0.0921 -0.7374  0.3177
13157TIP3   OH260961   5.922   5.449   1.883  0.1327 -0.4381  0.4950
13157TIP3    H160962   5.885   5.387   1.946  2.6539 -0.9253  1.6004
13157TIP3    H260963   6.017   5.440   1.892  0.6209  2.6786 -0.2217
13158TIP3   OH260964   3.610   3.544   5.467  0.7655  0.0202 -0.0367
13158TIP3    H160965   3.595   3.588   5.384  1.1823 -1.4044 -0.9085
13158TIP3    H260966   3.591   3.610   5.533  1.2501  1.4541 -1.2670
13159TIP3   OH260967   4.427   6.393  17.134 -0.2273 -0.4083 -0.0941
13159TIP3    H160968   4.517   6.419  17.112 -0.7048  1.5560  0.1282
13159TIP3    H260969   4.372   6.449  17.079 -1.3299 -0.4775  0.9089
13160TIP3   OH260970   6.648   0.333   3.691  0.1204 -0.2160 -0.0413
13160TIP3    H160971   6.622   0.268   3.625 -1.9485  0.0148  0.4687
13160TIP3    H260972   6.705   0.393   3.644  0.0015 -0.9684 -1.1990
13161TIP3   OH260973   2.254   1.099   2.906  0.6927 -0.5273  1.0192
13161TIP3    H160974   2.269   1.097   2.811  1.9000 -1.7294  1.2045
13161TIP3    H260975   2.158   1.102   2.915  0.5994  1.0433 -0.2265
13162TIP3   OH260976   5.105   2.547  13.100 -0.3904  0.0249  0.3286
13162TIP3    H160977   5.152   2.579  13.176  0.2696  0.1178 -0.1040
13162TIP3    H260978   5.035   2.492  13.135 -0.5129  0.6069  1.0139
13163TIP3   OH260979   0.466   3.070   1.509 -0.4245 -0.0793  0.4405
13163TIP3    H160980   0.415   3.035   1.582 -0.9908  0.0918  0.1344
13163TIP3    H260981   0.438   3.161   1.502 -1.7030 -0.5348 -1.0988
13164TIP3   OH260982   4.255   0.900   4.744  0.2692 -0.6387  0.0868
13164TIP3    H160983   4.275   0.810   4.772 -1.0591 -0.9091  0.2038
13164TIP3    H260984   4.301   0.909   4.660  0.1867 -1.5301 -0.0672
13165TIP3   OH260985   2.058   2.629   1.738  0.1204 -0.4062  0.6672
13165TIP3    H160986   2.030   2.640   1.647  0.3889  0.9926  0.7338
13165TIP3    H260987   2.000   2.561   1.773 -0.0722 -0.8664 -0.4977
13166TIP3   OH260988   6.680   3.964  15.258  0.3810  0.1509  0.4219
13166TIP3    H160989   6.638   3.985  15.174  0.0258 -1.6521  0.1000
13166TIP3    H260990   6.755   4.023  15.262 -0.4729  1.3444 -0.4250
13167TIP3   OH260991   3.109   5.091  14.166 -0.5580  0.1918  0.0387
13167TIP3    H160992   3.192   5.105  14.120 -1.5172  3.4472 -0.8853
13167TIP3    H260993   3.133   5.096  14.259  0.3159  1.0883 -0.2169
13168TIP3   OH260994   3.127   2.072   1.973 -0.5403  0.6805  0.2407
13168TIP3    H160995   3.155   2.111   2.056  1.1078 -0.7174  0.3866
13168TIP3    H260996   3.063   2.135   1.938 -1.1994  1.3612  2.4753
13169TIP3   OH260997   1.409   6.601  15.638 -0.3853 -0.3231 -0.3644
13169TIP3    H160998   1.500   6.630  15.642 -0.6973  0.7175 -0.3350
13169TIP3    H260999   1.405   6.525  15.696  0.3955 -0.1866 -0.1207
13170TIP3   OH261000   4.515   3.593   5.885  0.4395  0.5765 -0.1383
13170TIP3    H161001   4.438   3.598   5.943  1.7777 -3.3705  2.4389
13170TIP3    H261002   4.564   3.673   5.903 -1.3502  1.5094  0.8696
13171TIP3   OH261003   4.406   3.904  16.742 -0.2335  0.8285 -0.4645
13171TIP3    H161004   4.371   3.916  16.830  1.0714 -1.0533  0.3833
13171TIP3    H261005   4.436   3.991  16.715  2.3941  0.9669  2.3628
13172TIP3   OH261006   3.150   6.685  15.553 -0.1488 -0.2707  0.5352
13172TIP3    H161007   3.202   6.608  15.575  0.0086 -0.2256  0.3205
13172TIP3    H261008   3.065   6.669  15.595 -1.2145 -2.0157 -2.0103
13173TIP3   OH261009   2.004   2.035   4.538  0.9151  0.4450  0.3097
13173TIP3    H161010   1.952   2.115   4.541 -0.4735 -0.4359  2.7754
13173TIP3    H261011   2.091   2.061   4.567  0.0259  0.8493  2.8467
13174TIP3   OH261012   6.070   1.387  13.134 -0.0602 -0.2228  0.4386
13174TIP3    H161013   6.051   1.321  13.067  0.7978 -0.3924  0.3415
13174TIP3    H261014   5.989   1.395  13.183 -0.0414 -1.7758  0.7995
13175TIP3   OH261015   3.711   6.754   5.488 -0.2915  0.6376  0.2641
13175TIP3    H161016   3.713   6.718   5.577 -0.1232 -1.1186 -0.4257
13175TIP3    H261017   3.640   6.818   5.490  0.1406  1.1401  1.8263
13176TIP3   OH261018   4.808   6.153   6.150 -0.2483 -0.0628  0.0299
13176TIP3    H161019   4.870   6.113   6.211  1.5310 -0.5440 -1.9763
13176TIP3    H261020   4.811   6.246   6.169  0.7881 -0.1343  0.2432
13177TIP3   OH261021   2.466   2.427   1.097 -0.0728  0.5477 -0.1734
13177TIP3    H161022   2.375   2.431   1.069  0.1025  0.9213 -0.7140
13177TIP3    H261023   2.509   2.371   1.031 -0.3893 -1.7286  1.4441
13178TIP3   OH261024   2.137   1.926   1.649  0.4046  0.3971 -0.0515
13178TIP3    H161025   2.125   2.003   1.705  1.8280  2.1580 -2.0031
13178TIP3    H261026   2.061   1.872   1.667 -1.4736  2.9658  0.3287
13179TIP3   OH261027   2.602   5.797   4.972 -0.3972 -0.1184  0.0067
13179TIP3    H161028   2.601   5.833   4.883  1.6748 -1.3526 -0.5914
13179TIP3    H261029   2.550   5.717   4.966 -1.1612  0.3626  0.1831
13180TIP3   OH261030   5.603   6.604   2.971 -0.5455 -0.0005 -0.3727
13180TIP3    H161031   5.581   6.684   2.922 -0.2424  0.0758 -0.3871
13180TIP3    H261032   5.519   6.573   3.005 -0.4729  1.2151  1.0021
13181TIP3   OH261033   1.999   2.954  12.460 -0.2201  0.0615 -0.2510
13181TIP3    H161034   2.010   3.042  12.496  0.6562  0.0573 -0.4738
13181TIP3    H261035   2.005   2.896  12.536  0.5446  0.1196 -0.2592
13182TIP3   OH261036   5.864   4.595  13.323 -0.2987  0.1424  0.0054
13182TIP3    H161037   5.851   4.504  13.348  0.1713 -0.3768 -1.5199
13182TIP3    H261038   5.781   4.622  13.285 -0.7014  0.6260  1.1888
13183TIP3   OH261039   2.770   5.490  12.208 -0.1259  1.1143 -0.1044
13183TIP3    H161040   2.824   5.550  12.157 -0.2931  1.0258 -0.3872
13183TIP3    H261041   2.707   5.455  12.145 -0.9771  1.7662  0.3760
13184TIP3   OH261042   2.070   4.601   2.064 -0.4440  0.4201  0.1195
13184TIP3    H161043   2.098   4.584   1.974 -0.0789  1.8393 -0.0653
13184TIP3    H261044   2.151   4.614   2.113 -0.5662 -1.7611  1.0167
13185TIP3   OH261045   1.476   3.354   5.574 -0.2493  0.0109  0.0811
13185TIP3    H161046   1.545   3.325   5.633  1.2140  1.1497 -0.9727
13185TIP3    H261047   1.501   3.318   5.489 -0.0602  1.7269 -0.6288
13186TIP3   OH261048   1.129   1.430   4.139  0.4468  0.0808  0.3689
13186TIP3    H161049   1.109   1.344   4.177  0.5124  0.8857  2.3470
13186TIP3    H261050   1.126   1.416   4.045 -1.9191 -1.5633  0.6005
13187TIP3   OH261051   6.615   1.347   3.638 -0.4278  0.1522 -0.5284
13187TIP3    H161052   6.541   1.339   3.578 -1.6572 -3.0993  1.1704
13187TIP3    H261053   6.600   1.429   3.684 -2.1522  0.2954 -1.2687
13188TIP3   OH261054   2.790   4.593  12.543  0.4053 -0.1892  0.4499
13188TIP3    H161055   2.886   4.597  12.543  0.5215 -1.2913 -1.6917
13188TIP3    H261056   2.768   4.569  12.453 -1.9745  1.6442  0.4527
13189TIP3   OH261057   2.821   3.077   4.159 -0.3827 -0.1064  0.4542
13189TIP3    H161058   2.896   3.106   4.210 -0.4900  0.3876  0.3282
13189TIP3    H261059   2.745   3.096   4.214 -0.4268 -0.5410  0.5517
13190TIP3   OH261060   0.374   3.156  16.894  0.1308 -0.2188 -0.2640
13190TIP3    H161061   0.325   3.194  16.967  0.6487  0.2030 -0.1278
13190TIP3    H261062   0.312   3.158  16.820  0.3468  1.5724 -0.4515
13191TIP3   OH261063   3.474   2.473   0.147 -0.0116  0.1371 -0.0043
13191TIP3    H161064   3.409   2.434   0.205  1.2948 -2.8365 -0.3762
13191TIP3    H261065   3.553   2.420   0.160  1.4866  1.7900 -1.7021
13192TIP3   OH261066   0.981   2.461   5.022 -0.7062  0.0233  0.5911
13192TIP3    H161067   1.014   2.376   4.992  1.0424  0.9466 -0.2749
13192TIP3    H261068   0.962   2.509   4.941 -2.4137  0.2259  1.0708
13193TIP3   OH261069   0.408   4.231   3.439 -0.0901  0.6334  0.8061
13193TIP3    H161070   0.484   4.193   3.395  1.8022  0.1731  4.1383
13193TIP3    H261071   0.332   4.194   3.393  1.6751 -0.7978 -1.1175
13194TIP3   OH261072   6.292   0.404   2.108  0.3450  0.1424 -0.4889
13194TIP3    H161073   6.326   0.330   2.157 -0.4764 -0.3661 -0.6646
13194TIP3    H261074   6.360   0.424   2.043  0.1591 -1.0875 -1.0810
13195TIP3   OH261075   3.213   3.720  15.844  0.3164 -0.3752 -0.6632
13195TIP3    H161076   3.209   3.752  15.755  3.6309  2.0185 -0.1037
13195TIP3    H261077   3.205   3.798  15.899 -0.7527 -1.6764  1.1620
13196TIP3   OH261078   2.419   1.011  11.719 -0.2714 -0.6320  0.4166
13196TIP3    H161079   2.456   0.924  11.727 -0.1012 -0.4327  2.4694
13196TIP3    H261080   2.325   0.996  11.706 -0.0047 -1.0954 -1.2030
13197TIP3   OH261081   5.126   6.078  14.358 -1.0355 -0.4638 -0.8553
13197TIP3    H161082   5.203   6.106  14.408 -1.4014 -1.1613  0.1374
13197TIP3    H261083   5.162   6.045  14.275 -0.5122  1.7909 -1.5868
13198TIP3   OH261084   4.300   0.603   0.270  0.4782 -0.0844 -0.4509
13198TIP3    H161085   4.251   0.565   0.197 -0.3645 -0.4035  0.2651
13198TIP3    H261086   4.392   0.597   0.244  0.3315 -2.1079 -0.5991
13199TIP3   OH261087   0.621   3.493  11.795 -0.0697  0.0297 -0.2662
13199TIP3    H161088   0.704   3.452  11.772 -0.0021 -0.5973  1.0064
13199TIP3    H261089   0.567   3.486  11.716  1.5101  1.6253 -1.5613
13200TIP3   OH261090   6.568   4.059   5.008 -0.4241  0.4095 -0.3451
13200TIP3    H161091   6.600   4.120   5.075  1.5951  0.3437 -1.1706
13200TIP3    H261092   6.635   3.990   5.005 -2.2517 -1.4558 -0.0155
13201TIP3   OH261093   6.262   3.934   5.693  0.4477 -0.1309  0.2285
13201TIP3    H161094   6.274   4.010   5.637 -0.1715  0.5046  0.9201
13201TIP3    H261095   6.256   3.860   5.633  1.5137  0.2982 -0.4309
13202TIP3   OH261096   0.282   0.228  13.388 -0.6874  0.1676 -0.2916
13202TIP3    H161097   0.364   0.215  13.436 -0.3758 -0.3027 -0.9211
13202TIP3    H261098   0.263   0.142  13.350 -0.6457  0.6341 -1.4172
13203TIP3   OH261099   3.404   3.629   2.552 -0.0726 -0.9175  0.0671
13203TIP3    H161100   3.373   3.720   2.554  2.8806  0.1798  1.6909
13203TIP3    H261101   3.329   3.578   2.582 -0.7657  1.4095  2.7514
13204TIP3   OH261102   2.099   3.589  12.409  0.6203 -0.3976 -0.3921
13204TIP3    H161103   2.039   3.534  12.459 -0.1652 -0.8013 -1.7255
13204TIP3    H261104   2.065   3.586  12.320  2.8666 -0.9732 -1.2893
13205TIP3   OH261105   4.315   6.099   4.470  0.2332 -0.3522  0.0898
13205TIP3    H161106   4.330   6.005   4.462 -0.3553 -0.4830  0.4672
13205TIP3    H261107   4.221   6.107   4.485  0.3815  0.2607  0.7148
13206TIP3   OH261108   1.490   2.827   1.066 -0.2491 -0.4335 -0.5104
13206TIP3    H161109   1.450   2.777   1.136  2.0523 -0.6480  0.7582
13206TIP3    H261110   1.460   2.917   1.080 -0.4017 -0.6045  0.2933
13207TIP3   OH261111   5.974   4.860  12.437 -0.8402  0.7342 -0.0635
13207TIP3    H161112   6.035   4.933  12.426 -0.7602  0.8564  1.1004
13207TIP3    H261113   5.946   4.865  12.529 -1.5783 -0.1186 -0.2260
13208TIP3   OH261114   3.812   2.055  12.981  0.8333  0.0347 -0.0451
13208TIP3    H161115   3.761   1.978  13.006  1.4023 -0.3673 -0.0753
13208TIP3    H261116   3.761   2.129  13.011  0.5292 -0.3768  0.4711
13209TIP3   OH261117   0.173   3.278   4.881 -0.5777  0.5361  0.3734
13209TIP3    H161118   0.116   3.227   4.939  0.8780 -0.5996  0.8566
13209TIP3    H261119   0.113   3.325   4.824 -2.0267 -1.9973 -0.3432
13210TIP3   OH261120   2.953   0.026  10.923 -0.2768 -0.3750 -0.7242
13210TIP3    H161121   3.008  -0.020  10.986 -0.1957  3.0618  1.9860
13210TIP3    H261122   2.864  -0.003  10.942 -0.0426 -1.0489 -0.6319
13211TIP3   OH261123   0.783   6.485  17.010 -0.1572  0.4844 -0.0234
13211TIP3    H161124   0.691   6.476  17.035 -0.1021 -2.1685 -0.4984
13211TIP3    H261125   0.830   6.490  17.093 -0.6676  1.4061  0.2244
13212TIP3   OH261126   3.807   0.747  14.570 -0.0267  0.1323  0.5980
13212TIP3    H161127   3.861   0.816  14.530  1.5993  0.1459  2.6405
13212TIP3    H261128   3.820   0.671  14.513  1.7638  0.3056  0.7011
13213TIP3   OH261129   6.403   3.628  16.292  0.4197  0.3520 -0.0208
13213TIP3    H161130   6.315   3.601  16.266  0.0765  1.1903  0.2482
13213TIP3    H261131   6.460   3.561  16.254 -0.2536  0.2812 -0.9557
13214TIP3   OH261132   1.292   6.626   1.042 -0.5973  0.1357 -0.1681
13214TIP3    H161133   1.323   6.716   1.044  0.1111  0.0556 -2.9683
13214TIP3    H261134   1.197   6.634   1.041 -0.5456  0.8459 -0.2202
13215TIP3   OH261135   0.421   2.920   4.209  0.0532  0.2032  0.6420
13215TIP3    H161136   0.424   2.958   4.297 -0.7403  1.3465  0.1914
13215TIP3    H261137   0.379   2.986   4.155  1.4903 -0.0157 -0.8469
13216TIP3   OH261138   5.448   2.728   1.392  0.0668  0.4533 -0.0529
13216TIP3    H161139   5.420   2.813   1.426  0.8183  1.0512 -0.8802
13216TIP3    H261140   5.507   2.749   1.320 -0.1498 -0.7768 -0.6223
13217TIP3   OH261141   0.479   6.563  16.685  0.2233  0.3094 -0.0368
13217TIP3    H161142   0.421   6.511  16.741  1.6146  1.5607  2.7713
13217TIP3    H261143   0.422   6.630  16.647 -0.2592  1.9156  3.1582
13218TIP3   OH261144   3.695   4.327  14.376  0.1251 -0.4082 -0.4217
13218TIP3    H161145   3.603   4.340  14.399  0.5740  1.0110  0.7219
13218TIP3    H261146   3.705   4.232  14.371 -1.7730 -0.5839 -2.2634
13219TIP3   OH261147   1.194   2.472  14.150  0.3241 -0.0782  0.3282
13219TIP3    H161148   1.139   2.424  14.212  0.1581  0.6591  0.7590
13219TIP3    H261149   1.190   2.563  14.180  0.4046  0.2536 -0.6445
13220TIP3   OH261150   6.427   2.870   0.508 -0.1868 -0.1935 -0.3477
13220TIP3    H161151   6.345   2.825   0.492 -1.3645  1.9231 -0.6489
13220TIP3    H261152   6.468   2.878   0.421 -0.9549  1.0278 -0.6221
13221TIP3   OH261153   3.586   2.860  15.818  0.1635  0.1832 -0.3344
13221TIP3    H161154   3.658   2.922  15.809  3.0753 -2.9382 -0.4786
13221TIP3    H261155   3.580   2.817  15.733 -1.5813  0.0162 -0.1654
13222TIP3   OH261156   2.472   3.253  10.723  0.1486  0.4539 -0.2292
13222TIP3    H161157   2.415   3.268  10.647  0.4718  0.5733 -0.4513
13222TIP3    H261158   2.465   3.160  10.740  0.6011  0.2975 -0.8379
13223TIP3   OH261159   2.907   2.953   1.251  0.1586  0.2204 -0.0720
13223TIP3    H161160   2.952   2.995   1.178  0.2415  0.2731  0.0100
13223TIP3    H261161   2.814   2.959   1.228  0.2813 -3.0429 -1.9956
13224TIP3   OH261162   6.270   5.799  15.634 -0.1253 -0.0714  0.1318
13224TIP3    H161163   6.270   5.846  15.718 -0.6019  1.0243 -0.4619
13224TIP3    H261164   6.312   5.860  15.573  0.6678 -1.0601 -0.3296
13225TIP3   OH261165   2.325   3.222   4.940  0.3364  0.1175 -0.2157
13225TIP3    H161166   2.366   3.308   4.936 -1.7708  1.1864 -0.2636
13225TIP3    H261167   2.282   3.211   4.855 -1.3100  0.0672  0.5801
13226TIP3   OH261168   5.158   2.551   2.642  0.4665  0.3900 -0.0802
13226TIP3    H161169   5.175   2.603   2.564  0.5881  2.1691  1.0864
13226TIP3    H261170   5.192   2.603   2.714 -1.1050 -0.4438  1.3365
13227TIP3   OH261171   4.376   6.679  11.027 -0.3857  0.4132 -0.1263
13227TIP3    H161172   4.444   6.675  11.094 -0.3514  0.5623 -0.1517
13227TIP3    H261173   4.414   6.731  10.956 -0.5081  0.4564 -0.1612
13228TIP3   OH261174   4.704   1.238   4.197 -0.6318 -0.3233 -0.3852
13228TIP3    H161175   4.762   1.291   4.143 -1.2345  0.6142 -0.1481
13228TIP3    H261176   4.740   1.150   4.192 -0.3904 -0.1655 -1.8958
13229TIP3   OH261177   4.022   1.068  10.957  0.2688 -0.1020 -0.2514
13229TIP3    H161178   4.078   1.141  10.931  0.4386 -0.8988 -2.3409
13229TIP3    H261179   4.024   1.009  10.882 -1.0544 -1.5499  0.7912
13230TIP3   OH261180   3.437   0.445  14.778 -0.5576 -0.1941  0.1135
13230TIP3    H161181   3.367   0.388  14.747 -0.5315  0.3646 -1.0085
13230TIP3    H261182   3.391   0.514  14.826 -1.0072  1.2195 -2.1929
13231TIP3   OH261183   2.582   3.888  16.170  0.6808 -0.6419 -0.4302
13231TIP3    H161184   2.624   3.847  16.094 -0.9925  0.3987 -1.9998
13231TIP3    H261185   2.494   3.912  16.139  0.0013 -0.0192  1.7963
13232TIP3   OH261186   3.788   6.506   2.644  0.6196  0.5088 -0.0421
13232TIP3    H161187   3.856   6.543   2.701 -1.6155  1.7833  1.9800
13232TIP3    H261188   3.814   6.532   2.556  1.9684  2.2476  0.7985
13233TIP3   OH261189   5.350   5.640   4.453  0.0553 -0.2903  0.0137
13233TIP3    H161190   5.386   5.727   4.465  0.8481 -0.7170  0.8707
13233TIP3    H261191   5.256   5.650   4.469  0.1505  0.3944  0.1456
13234TIP3   OH261192   5.387   0.344   3.308 -0.1703 -0.4115  0.7067
13234TIP3    H161193   5.408   0.409   3.375  0.4358  0.8235 -0.6298
13234TIP3    H261194   5.292   0.342   3.305 -0.2016  0.7073  0.5229
13235TIP3   OH261195   6.574   1.620   3.723  0.0766  0.6508  0.3189
13235TIP3    H161196   6.486   1.620   3.759 -0.0103 -0.4686  0.1508
13235TIP3    H261197   6.571   1.680   3.649 -1.3276 -1.4558 -1.4566
13236TIP3   OH261198   6.342   1.464  12.064 -0.5456  0.4023 -0.0263
13236TIP3    H161199   6.331   1.477  12.158 -0.0151 -2.6444  0.5526
13236TIP3    H261200   6.307   1.376  12.047  2.0577 -0.3737 -2.0848
13237TIP3   OH261201   1.768   3.952   5.474 -0.0266  0.1412 -0.1311
13237TIP3    H161202   1.788   3.899   5.551 -1.3552 -1.0070 -0.5185
13237TIP3    H261203   1.853   3.977   5.439  0.6060  0.4132  1.5088
13238TIP3   OH261204   4.570   4.191  15.686 -0.0670 -0.2156  0.3297
13238TIP3    H161205   4.484   4.191  15.643 -0.5552  1.8842  1.1754
13238TIP3    H261206   4.633   4.184  15.615 -0.9143 -0.0812 -0.4536
13239TIP3   OH261207   0.854   4.048   5.150 -0.1803  0.3801  0.1857
13239TIP3    H161208   0.940   4.075   5.182 -0.2777 -1.4322  2.2173
13239TIP3    H261209   0.821   3.987   5.217 -3.9831  2.5757  0.6048
13240TIP3   OH261210   4.085   5.908  12.293 -0.6152  0.1488  0.0230
13240TIP3    H161211   4.061   5.823  12.330  1.1929 -0.5456 -0.3026
13240TIP3    H261212   4.047   5.907  12.205  1.1940 -1.3088 -0.8230
13241TIP3   OH261213   1.868   6.606  11.673  0.4884 -0.4846  0.0445
13241TIP3    H161214   1.785   6.563  11.650  0.0791  0.3794 -0.1350
13241TIP3    H261215   1.898   6.646  11.592 -0.4189  1.6661  0.7152
13242TIP3   OH261216   2.488   3.088   3.542  0.6136 -0.2013  0.5693
13242TIP3    H161217   2.579   3.116   3.530  1.0456 -0.1781  3.3365
13242TIP3    H261218   2.494   2.993   3.555 -0.1360 -0.6920 -1.9981
13243TIP3   OH261219   0.492   0.078   2.305  0.0283  0.1062 -0.5080
13243TIP3    H161220   0.560   0.135   2.269  0.9377  0.5295  1.7002
13243TIP3    H261221   0.501  -0.004   2.257  1.4474  0.4939 -0.9484
13244TIP3   OH261222   4.956   2.567   5.205 -0.2647  0.9306  0.9112
13244TIP3    H161223   5.000   2.563   5.290  0.6745 -1.2649  0.3990
13244TIP3    H261224   5.027   2.577   5.141 -1.0967  5.6191  0.3875
13245TIP3   OH261225   3.996   0.251  13.082 -0.2868 -0.1288  0.1360
13245TIP3    H161226   4.073   0.301  13.108 -1.4763  1.5098  0.7103
13245TIP3    H261227   3.986   0.185  13.151  0.5296 -0.3019  0.1012
13246TIP3   OH261228   3.877   1.807  13.191  0.3746 -0.3059  0.2339
13246TIP3    H161229   3.937   1.735  13.209  0.0173 -0.5522  0.4550
13246TIP3    H261230   3.930   1.872  13.145  1.0260 -0.1556  1.1650
13247TIP3   OH261231   4.287   2.872  15.629  0.0050  0.2138 -0.2160
13247TIP3    H161232   4.216   2.935  15.615 -0.0703  0.0184 -0.7360
13247TIP3    H261233   4.343   2.912  15.695 -0.4832  0.4621  0.0478
13248TIP3   OH261234   2.503   2.728   5.059 -0.3709  0.6562  0.0467
13248TIP3    H161235   2.530   2.779   4.983  0.4054  0.1868 -0.0002
13248TIP3    H261236   2.566   2.656   5.064 -0.3733  0.7105  1.1636
13249TIP3   OH261237   1.092   3.563  16.723 -0.0426  0.0856 -0.8269
13249TIP3    H161238   1.155   3.583  16.655  1.1892 -1.3086 -0.1556
13249TIP3    H261239   1.145   3.533  16.797 -1.5118 -2.8140 -0.8076
13250TIP3   OH261240   4.122   4.432   5.900 -0.7869 -0.0177  0.0169
13250TIP3    H161241   4.042   4.410   5.947 -0.5099  0.5551  0.7761
13250TIP3    H261242   4.099   4.509   5.848 -0.3223  1.1960  1.5079
13251TIP3   OH261243   4.211   6.196  15.481  0.1985 -0.6796 -0.9962
13251TIP3    H161244   4.275   6.267  15.486  0.3148 -0.8333  0.0527
13251TIP3    H261245   4.139   6.231  15.428  0.0939  0.3572 -0.1881
13252TIP3   OH261246   5.886   4.568   1.181 -0.7183 -0.5839 -0.4215
13252TIP3    H161247   5.976   4.599   1.193 -1.1696  0.8657 -0.5579
13252TIP3    H261248   5.871   4.508   1.254  0.9049 -2.2171 -1.3457
13253TIP3   OH261249   2.398   1.153   2.672 -0.1302 -0.7283  0.1997
13253TIP3    H161250   2.421   1.153   2.579 -0.4504  2.7491 -0.0049
13253TIP3    H261251   2.452   1.084   2.710  1.1014 -1.2673 -2.3084
13254TIP3   OH261252   1.794   3.333   2.195  0.1226  0.2139  0.3689
13254TIP3    H161253   1.725   3.314   2.258 -0.4168 -0.2386 -0.3512
13254TIP3    H261254   1.862   3.376   2.247  0.5316 -1.8615  1.6394
13255TIP3   OH261255   1.164   2.945   1.837  0.4524  0.4852  0.0871
13255TIP3    H161256   1.221   3.007   1.882  0.0061  0.8924  0.1017
13255TIP3    H261257   1.219   2.868   1.822  1.1475  1.0473 -0.3262
13256TIP3   OH261258   5.848   5.671  16.863  0.3365 -0.2870 -0.1973
13256TIP3    H161259   5.879   5.588  16.825  0.1148 -0.2020 -0.5749
13256TIP3    H261260   5.864   5.662  16.957  0.3234 -0.7576 -0.2353
13257TIP3   OH261261   3.298   2.525  14.841  0.7662 -0.1281 -0.1531
13257TIP3    H161262   3.228   2.470  14.876  2.1982  1.2509  6.0555
13257TIP3    H261263   3.268   2.614  14.854  1.4861  0.6533 -3.0291
13258TIP3   OH261264   5.331   0.975  16.612 -0.0922 -0.0016  0.0069
13258TIP3    H161265   5.389   0.931  16.675  0.1315  1.5079  0.8979
13258TIP3    H261266   5.365   1.064  16.607 -1.7870  0.6616 -0.1574
13259TIP3   OH261267   1.771   2.242   3.413 -0.4334 -0.0845 -0.0968
13259TIP3    H161268   1.835   2.200   3.355 -0.3403  0.7400 -0.6153
13259TIP3    H261269   1.749   2.324   3.368 -0.6465  0.3927  0.8566
13260TIP3   OH261270   5.021   2.465  12.777  0.3022 -0.0090  0.5031
13260TIP3    H161271   5.073   2.474  12.857 -0.9435 -0.5078  1.4199
13260TIP3    H261272   5.020   2.371  12.760 -0.2766 -0.0114  0.5122
13261TIP3   OH261273   4.786   5.915   0.589  0.0163 -0.1169  0.2266
13261TIP3    H161274   4.705   5.866   0.605 -0.2730  0.1169 -0.4816
13261TIP3    H261275   4.847   5.883   0.655 -0.3726 -0.9451  0.1949
13262TIP3   OH261276   0.313   1.636   0.785 -0.3600 -0.4986  0.2491
13262TIP3    H161277   0.369   1.668   0.856 -0.2260 -0.2072  0.0106
13262TIP3    H261278   0.280   1.715   0.742 -0.8939 -0.6686  0.3394
13263TIP3   OH261279   3.070   2.987   1.493 -0.3815  0.1081  0.2402
13263TIP3    H161280   3.009   2.958   1.424  1.7084 -0.8759 -1.3000
13263TIP3    H261281   3.083   2.909   1.547 -0.0621  0.1438  0.2151
13264TIP3   OH261282   2.910   0.246  13.788 -0.0575 -0.5869 -0.8305
13264TIP3    H161283   2.896   0.303  13.712  1.8886  1.3692  0.1486
13264TIP3    H261284   2.906   0.305  13.863  0.4746 -2.0397  0.3962
13265TIP3   OH261285   3.939   0.282   5.219 -0.3088 -0.2757  0.1112
13265TIP3    H161286   3.843   0.279   5.219 -0.2901 -1.1362  0.0882
13265TIP3    H261287   3.962   0.322   5.136 -0.6847  2.1154  1.0893
13266TIP3   OH261288   1.131   4.695   2.389  0.2710  0.7480 -0.2697
13266TIP3    H161289   1.112   4.779   2.431 -0.0127  0.9087 -0.7110
13266TIP3    H261290   1.151   4.636   2.462  1.5000  1.4496 -0.0254
13267TIP3   OH261291   4.747   4.605   1.370 -0.1230 -0.1159 -0.3681
13267TIP3    H161292   4.738   4.669   1.440 -1.6676 -0.6763 -0.0224
13267TIP3    H261293   4.833   4.623   1.332  0.7726  0.1729  1.6855
13268TIP3   OH261294   0.513   4.716   6.137 -0.3175 -1.1197  0.3189
13268TIP3    H161295   0.608   4.723   6.151 -0.4502  4.0893  0.4225
13268TIP3    H261296   0.475   4.738   6.222 -1.4707  0.9843 -0.6649
13269TIP3   OH261297   6.296   6.452   6.437 -0.0504  0.9048 -0.3933
13269TIP3    H161298   6.221   6.394   6.427  0.6402  0.1911 -1.8076
13269TIP3    H261299   6.371   6.398   6.414  0.7413  2.0136 -0.4990
13270TIP3   OH261300   4.954   2.141   6.506 -0.4177 -0.5995 -0.5501
13270TIP3    H161301   4.989   2.206   6.566  1.8086 -0.5830 -1.7763
13270TIP3    H261302   4.877   2.183   6.468  0.6526  1.1380 -0.9043
13271TIP3   OH261303   3.522   2.962   4.725  0.1042  0.2286 -0.0923
13271TIP3    H161304   3.506   2.903   4.799 -1.2000  0.5758 -0.0755
13271TIP3    H261305   3.591   2.919   4.674  0.8182 -0.1566  1.1618
13272TIP3   OH261306   6.208   1.299  11.869  0.1206  0.8771 -1.0472
13272TIP3    H161307   6.234   1.217  11.910  0.7654  2.1385  1.2640
13272TIP3    H261308   6.251   1.298  11.784 -0.5928 -1.5158 -1.4474
13273TIP3   OH261309   4.729   5.281  12.381  0.9315 -0.2035 -0.2402
13273TIP3    H161310   4.757   5.234  12.303 -1.4244 -0.2026 -1.1614
13273TIP3    H261311   4.776   5.238  12.453  1.6306 -1.5219 -1.4366
13274TIP3   OH261312   5.897   2.617   2.756  0.3196  0.7074 -0.1878
13274TIP3    H161313   5.845   2.546   2.795  2.7093 -1.8101 -1.2542
13274TIP3    H261314   5.840   2.653   2.688 -1.2799  0.4377  0.9468
13275TIP3   OH261315   5.746   5.130  11.953  0.5392  0.1015  0.2955
13275TIP3    H161316   5.675   5.072  11.978 -0.0192  1.0176  0.9185
13275TIP3    H261317   5.718   5.217  11.985  1.1343  0.7929 -0.9915
13276TIP3   OH261318   1.281   6.268  16.116 -0.6039 -0.0154  0.0807
13276TIP3    H161319   1.268   6.241  16.206  2.2790  0.6342  0.7861
13276TIP3    H261320   1.264   6.362  16.116 -0.3364  0.0342  0.0132
13277TIP3   OH261321   0.741   3.573  14.457  0.3626 -0.7817 -0.0282
13277TIP3    H161322   0.767   3.525  14.536  0.2955  0.3631  0.7084
13277TIP3    H261323   0.722   3.504  14.393 -0.9962 -1.8125  1.3776
13278TIP3   OH261324   4.551   5.351  11.722  0.1452 -0.3982 -0.1540
13278TIP3    H161325   4.614   5.412  11.762  0.1758 -1.8145  2.1520
13278TIP3    H261326   4.561   5.365  11.628  1.6745  1.6077  0.2268
13279TIP3   OH261327   5.466   4.403  14.977  0.3784 -0.3321 -0.3352
13279TIP3    H161328   5.540   4.422  14.919 -1.5378  1.4189 -2.3594
13279TIP3    H261329   5.464   4.477  15.037  0.7306 -0.8147  0.2925
13280TIP3   OH261330   6.502   1.714  16.187  0.3829 -0.4796  1.1375
13280TIP3    H161331   6.496   1.807  16.208 -1.0384 -0.5121  1.0018
13280TIP3    H261332   6.490   1.711  16.092  1.7003 -0.7172  0.9655
13281TIP3   OH261333   2.475   0.935  12.459  0.4814 -0.1449 -0.0907
13281TIP3    H161334   2.398   0.955  12.513  0.4190  0.1936 -0.2992
13281TIP3    H261335   2.522   0.867  12.507 -0.8765 -1.6620 -0.8281
13282TIP3   OH261336   4.422   6.157   5.516 -0.1219  0.1161  0.2603
13282TIP3    H161337   4.387   6.092   5.455  1.8778 -0.7917  0.0047
13282TIP3    H261338   4.347   6.210   5.539 -1.6427 -1.6713 -0.3014
13283TIP3   OH261339   4.975   4.743  16.799  0.3457 -0.3292 -0.0909
13283TIP3    H161340   4.945   4.701  16.718  0.6250  1.3504 -1.1183
13283TIP3    H261341   4.908   4.809  16.818  1.6118  1.1287 -0.5013
13284TIP3   OH261342   6.783   5.452   3.969  0.0303 -0.5370 -0.1413
13284TIP3    H161343   6.761   5.371   3.923  0.1309 -0.1010 -0.9815
13284TIP3    H261344   6.753   5.522   3.910  2.4564  0.0772 -0.7933
13285TIP3   OH261345   6.280   0.185  11.423 -0.3503 -0.2686 -0.0524
13285TIP3    H161346   6.302   0.278  11.424  0.8594 -0.5465  0.8813
13285TIP3    H261347   6.193   0.182  11.464  1.1328  0.1528  3.5206
13286TIP3   OH261348   1.731   4.382   6.301  0.0994  0.6467  0.4344
13286TIP3    H161349   1.807   4.422   6.344  0.1345  1.8734 -0.7093
13286TIP3    H261350   1.685   4.455   6.261 -0.2046 -0.3759 -1.1650
13287TIP3   OH261351   1.984   3.220   2.015  0.3790  0.3608  0.1774
13287TIP3    H161352   2.038   3.169   2.075 -1.2559 -1.0315  0.5290
13287TIP3    H261353   1.921   3.265   2.072  0.9750  1.8121 -0.2429
13288TIP3   OH261354   5.762   4.777   4.954 -0.4181 -0.3683  0.1305
13288TIP3    H161355   5.692   4.759   4.890 -0.8827 -2.5931  1.1480
13288TIP3    H261356   5.745   4.715   5.025  1.9526 -0.1853  0.9334
13289TIP3   OH261357   5.081   6.116   2.608  0.1968  0.6336 -0.1199
13289TIP3    H161358   5.133   6.152   2.536  1.3505  0.0374  0.4043
13289TIP3    H261359   4.994   6.155   2.596  1.0416  2.5698 -0.3294
13290TIP3   OH261360   2.155   2.089   0.483 -0.0856 -0.1540  0.9007
13290TIP3    H161361   2.174   2.056   0.570  2.3698 -1.0735  0.1060
13290TIP3    H261362   2.152   2.184   0.493  2.4002 -0.0921  1.6812
13291TIP3   OH261363   1.683   1.192  17.014  0.3094  0.0708  0.2468
13291TIP3    H161364   1.635   1.258  16.963 -0.2421  1.2284  2.1372
13291TIP3    H261365   1.753   1.242  17.057  1.6777 -1.1411 -0.5069
13292TIP3   OH261366   1.161   0.238   5.198 -0.3790 -0.0169 -0.2104
13292TIP3    H161367   1.253   0.214   5.212  0.1121  1.3139 -0.9073
13292TIP3    H261368   1.123   0.164   5.151  0.1000 -0.9548  0.8417
13293TIP3   OH261369   5.859   5.228  15.621 -0.5429 -0.1221 -0.0275
13293TIP3    H161370   5.870   5.133  15.635  1.7120 -0.0410 -0.8706
13293TIP3    H261371   5.881   5.267  15.705  1.7097 -0.2370 -0.4984
13294TIP3   OH261372   6.077   0.584   6.374 -0.4903  0.5502 -0.1632
13294TIP3    H161373   6.142   0.633   6.423  2.3763 -2.1459 -0.9331
13294TIP3    H261374   6.060   0.506   6.428 -0.0904 -0.6417 -1.6681
13295TIP3   OH261375   6.713   0.990  16.009  0.2522  0.3729 -0.0184
13295TIP3    H161376   6.718   1.040  16.091 -0.1051 -0.7848  0.7399
13295TIP3    H261377   6.783   0.926  16.017 -0.5665 -0.5484 -0.0442
13296TIP3   OH261378   5.703   5.194   1.770 -0.0361  0.0486  0.0051
13296TIP3    H161379   5.634   5.208   1.705 -1.1663  0.4692  1.2497
13296TIP3    H261380   5.659   5.201   1.854  1.8441  2.1979  0.9093
13297TIP3   OH261381   2.770   0.857  17.102  0.6710 -0.3205  0.0074
13297TIP3    H161382   2.712   0.783  17.083  2.0816 -1.6389  0.6640
13297TIP3    H261383   2.812   0.876  17.018 -0.8759  0.8397 -0.5438
13298TIP3   OH261384   0.978   6.114  11.175  0.2406 -0.1396 -0.2350
13298TIP3    H161385   0.890   6.093  11.145  0.6552 -0.7655 -1.0549
13298TIP3    H261386   1.021   6.152  11.099  0.6712  0.1816  0.1675
13299TIP3   OH261387   3.713   2.014   2.200 -0.3253 -0.1054  0.0982
13299TIP3    H161388   3.634   2.067   2.199 -0.2414  0.0297  0.6324
13299TIP3    H261389   3.690   1.938   2.253 -0.2630 -0.3221 -0.1848
13300TIP3   OH261390   0.203   0.901  14.363  0.2395 -0.2710  0.1072
13300TIP3    H161391   0.207   0.812  14.327  0.1849 -0.3125  0.2055
13300TIP3    H261392   0.269   0.902  14.432  0.3072 -0.2066  0.0407
13301TIP3   OH261393   3.949   2.869  11.421 -0.7382  0.0205  0.3808
13301TIP3    H161394   4.035   2.894  11.455  0.0614 -1.5095 -0.3681
13301TIP3    H261395   3.897   2.849  11.498 -0.8367  2.0933  0.9012
13302TIP3   OH261396   0.188   0.873   5.054  0.3205 -0.3417  0.5513
13302TIP3    H161397   0.128   0.851   5.125 -0.2687 -0.3848  0.0465
13302TIP3    H261398   0.199   0.791   5.006 -0.0265 -0.0975  0.0435
13303TIP3   OH261399   4.538   0.252   2.832 -0.0034 -0.1602  0.1639
13303TIP3    H161400   4.599   0.280   2.764  0.2628 -0.4731  0.2690
13303TIP3    H261401   4.594   0.235   2.908 -0.2708 -0.0418  0.3886
13304TIP3   OH261402   0.562   3.238   2.528  0.0516  0.7238  0.1725
13304TIP3    H161403   0.498   3.304   2.502  0.5227  0.9738 -0.3563
13304TIP3    H261404   0.638   3.288   2.557  0.4881  0.4162 -0.4286
13305TIP3   OH261405   6.593   2.562  17.081 -0.2506  1.0262  0.1185
13305TIP3    H161406   6.583   2.606  16.997  0.4293  0.8626 -0.0590
13305TIP3    H261407   6.539   2.611  17.142 -0.4213  1.3929 -0.3311
13306TIP3   OH261408   5.153   0.372  13.007  0.5220 -0.3273 -0.5717
13306TIP3    H161409   5.238   0.327  13.008  1.0325  0.5704  1.9384
13306TIP3    H261410   5.103   0.330  13.076 -0.8276 -0.3298 -1.5233
13307TIP3   OH261411   6.391   6.102   0.460 -0.0619 -0.1837 -0.0117
13307TIP3    H161412   6.387   6.050   0.380  0.8692 -0.5585  0.1692
13307TIP3    H261413   6.414   6.190   0.431 -2.4654  0.3901 -0.4049
13308TIP3   OH261414   3.921   0.305   1.040 -0.2274 -0.2062  0.3331
13308TIP3    H161415   3.839   0.350   1.019  0.4101 -0.2107 -2.5281
13308TIP3    H261416   3.982   0.376   1.061 -0.3120 -0.0206 -0.0359
13309TIP3   OH261417   5.886   3.747  15.577 -0.3465  0.3343 -0.0834
13309TIP3    H161418   5.967   3.697  15.573 -0.8292 -0.5777  1.0973
13309TIP3    H261419   5.899   3.810  15.648 -0.1116  1.2532 -0.9141
13310TIP3   OH261420   3.547   4.750  12.339 -0.6283  0.3691  0.9649
13310TIP3    H161421   3.535   4.661  12.372 -1.0126 -0.2441 -0.7243
13310TIP3    H261422   3.507   4.806  12.405 -2.6537 -0.8933  0.8921
13311TIP3   OH261423   2.181   2.504   1.141  0.0761 -0.1079 -0.2819
13311TIP3    H161424   2.174   2.494   1.236  2.5840  1.2078  0.1328
13311TIP3    H261425   2.124   2.436   1.105  0.3928 -1.7876  2.1477
13312TIP3   OH261426   6.620   2.125  12.816  0.1725  0.0953  0.2279
13312TIP3    H161427   6.532   2.108  12.781 -1.1886  2.1619  2.3969
13312TIP3    H261428   6.669   2.046  12.794 -2.1441 -1.0531 -1.2581
13313TIP3   OH261429   0.805   0.503  13.362  0.2025 -0.2341 -0.0374
13313TIP3    H161430   0.721   0.525  13.402  0.0665  0.6629 -0.7904
13313TIP3    H261431   0.864   0.489  13.436 -0.3319  0.2578  0.4876
13314TIP3   OH261432   6.765   5.813  13.058  0.5545  0.3171  0.4831
13314TIP3    H161433   6.792   5.749  12.992 -0.3203  1.1829 -0.7597
13314TIP3    H261434   6.708   5.874  13.011 -1.5646 -0.0367  2.4401
13315TIP3   OH261435   6.477   2.015  11.747 -0.0368 -0.4059 -0.1687
13315TIP3    H161436   6.407   2.051  11.693 -0.7085 -1.4197 -0.0211
13315TIP3    H261437   6.503   1.934  11.703  1.2884  0.1165 -0.3940
13316TIP3   OH261438   1.869   6.115  13.614 -0.1352 -0.3471  0.5040
13316TIP3    H161439   1.813   6.191  13.594 -0.6589 -1.2432 -1.7277
13316TIP3    H261440   1.816   6.039  13.587  1.7987 -1.2760 -0.8658
13317TIP3   OH261441   0.475   0.158   3.342  0.2072  0.0846 -0.5004
13317TIP3    H161442   0.542   0.209   3.296  0.5988  0.1956  0.1863
13317TIP3    H261443   0.518   0.075   3.363  0.2201  0.2488  0.1546
13318TIP3   OH261444   0.494   3.241  10.839  0.4386 -0.0507  0.2186
13318TIP3    H161445   0.409   3.284  10.832  0.3212 -0.3236 -0.0524
13318TIP3    H261446   0.514   3.212  10.750  0.7465 -0.1203  0.3089
13319TIP3   OH261447   6.773   4.975   0.967  0.2683 -0.0303  0.2109
13319TIP3    H161448   6.768   4.881   0.948 -2.0295 -0.2787  1.6327
13319TIP3    H261449   6.822   4.980   1.049 -0.5652 -0.1247  0.7287
13320TIP3   OH261450   2.013   0.190  11.390  0.2267 -0.1327  0.6237
13320TIP3    H161451   2.097   0.179  11.435  0.9570  1.8093 -0.1574
13320TIP3    H261452   2.030   0.162  11.300  0.0705  0.3053  0.4545
13321TIP3   OH261453   3.644   0.189   0.221  0.3088 -0.1567 -0.0344
13321TIP3    H161454   3.690   0.249   0.162  1.1362 -0.4640  0.2777
13321TIP3    H261455   3.667   0.218   0.309 -1.8002  0.9636  0.1856
13322TIP3   OH261456   0.017   2.655   6.079 -0.3946  0.1778 -0.1146
13322TIP3    H161457  -0.070   2.627   6.107 -0.6856  1.8691  0.7952
13322TIP3    H261458   0.003   2.739   6.035  0.5134 -0.7144 -2.2302
13323TIP3   OH261459   4.128   1.586  11.646 -0.4821 -0.1791  0.1803
13323TIP3    H161460   4.189   1.647  11.605 -0.0213 -0.1448  0.8952
13323TIP3    H261461   4.165   1.571  11.733  0.4625 -2.9197 -0.5853
13324TIP3   OH261462   0.448   3.860  16.221 -0.7109 -0.0080  0.1141
13324TIP3    H161463   0.379   3.831  16.161 -1.9270  3.2388 -0.2883
13324TIP3    H261464   0.528   3.822  16.186 -1.8219 -0.8506 -1.6677
13325TIP3   OH261465   6.421   2.767  14.779 -0.0047 -0.1758  0.5663
13325TIP3    H161466   6.358   2.800  14.843 -1.5335 -1.3924 -0.2271
13325TIP3    H261467   6.373   2.700  14.731  0.9311  0.9759 -2.1717
13326TIP3   OH261468   3.803   1.427  13.700 -0.5584  0.1203 -0.7387
13326TIP3    H161469   3.774   1.465  13.783  0.0461 -0.7893 -0.0887
13326TIP3    H261470   3.815   1.334  13.719 -1.8333 -0.3904 -2.2401
13327TIP3   OH261471   0.900   0.569  10.571 -0.6625 -0.2351 -0.5326
13327TIP3    H161472   0.981   0.534  10.534 -0.1099 -1.1709  1.4244
13327TIP3    H261473   0.914   0.566  10.666 -2.7218  0.2339 -0.1709
13328TIP3   OH261474   3.199   3.777   1.887 -0.1747 -0.3044 -0.3608
13328TIP3    H161475   3.269   3.828   1.926 -1.1361  1.0516 -0.3603
13328TIP3    H261476   3.156   3.735   1.961  0.0585 -0.3992 -0.2785
13329TIP3   OH261477   5.494   2.248  11.324  0.5272 -0.3269 -0.2139
13329TIP3    H161478   5.562   2.191  11.288  0.1533 -1.2043  0.4347
13329TIP3    H261479   5.527   2.275  11.410  0.3343 -0.2546 -0.1594
13330TIP3   OH261480   1.302   0.965  13.593 -0.4462  0.6669  0.3815
13330TIP3    H161481   1.235   0.902  13.564 -0.6349  0.9890  0.1042
13330TIP3    H261482   1.319   0.942  13.684 -0.4876  0.1893  0.2706
13331TIP3   OH261483   5.911   5.521  16.341 -0.2010 -0.3952 -0.7364
13331TIP3    H161484   5.950   5.476  16.416 -0.5230  0.2039 -0.2005
13331TIP3    H261485   5.892   5.450  16.279  1.1691 -0.7607 -0.7700
13332TIP3   OH261486   5.664   6.158   2.462  0.4558  0.0717  0.1697
13332TIP3    H161487   5.734   6.105   2.422  0.3274 -0.1261  0.2043
13332TIP3    H261488   5.639   6.108   2.540  0.1821  0.0754  0.0840
13333TIP3   OH261489   0.216   4.420  12.884 -0.1773  0.0087  0.3478
13333TIP3    H161490   0.134   4.456  12.849  0.4379 -1.7612 -3.4327
13333TIP3    H261491   0.283   4.480  12.853  0.2246 -0.2762  0.6592
13334TIP3   OH261492   4.219   0.922   3.543 -0.0871 -0.9790  0.6142
13334TIP3    H161493   4.177   0.959   3.465  1.9991 -1.6567 -0.9406
13334TIP3    H261494   4.164   0.950   3.616 -0.9317  1.5724 -0.8781
13335TIP3   OH261495   1.423   0.275   1.355 -0.1357  0.2872  0.1517
13335TIP3    H161496   1.494   0.210   1.355  0.0930  0.5000 -1.4707
13335TIP3    H261497   1.468   0.359   1.357 -0.2436  0.4486 -1.7444
13336TIP3   OH261498   6.818   1.515   5.464  0.4366 -1.0525 -0.0721
13336TIP3    H161499   6.780   1.574   5.529 -1.2572  0.8678 -2.6304
13336TIP3    H261500   6.911   1.540   5.460  0.3717 -0.5924  0.9246
13337TIP3   OH261501   1.772   0.106  15.992 -0.3646  0.3821  0.2278
13337TIP3    H161502   1.811   0.065  15.915 -0.7743  0.8194 -0.2189
13337TIP3    H261503   1.709   0.169  15.957 -1.6116 -0.4212  0.9347
13338TIP3   OH261504   3.033   6.235  14.139  0.6381  0.1662  0.2079
13338TIP3    H161505   2.998   6.277  14.061  0.1418 -3.0157 -1.4448
13338TIP3    H261506   2.989   6.279  14.212 -1.9701  0.6450 -1.5013
13339TIP3   OH261507   2.786   0.140   4.372 -0.4997  0.1333  0.6223
13339TIP3    H161508   2.703   0.148   4.418 -0.6250 -1.0332  0.6278
13339TIP3    H261509   2.783   0.054   4.330 -0.5163  1.2777 -1.8753
13340TIP3   OH261510   5.338   1.159  13.273 -0.0566 -0.2815 -0.6499
13340TIP3    H161511   5.290   1.105  13.211 -0.9846 -0.6213  0.3283
13340TIP3    H261512   5.332   1.111  13.356  2.7052 -0.7463 -0.6550
13341TIP3   OH261513   0.587   3.988  14.461 -0.8018 -0.4300 -0.2397
13341TIP3    H161514   0.565   3.936  14.384  0.2920 -1.5293  0.1574
13341TIP3    H261515   0.605   3.923  14.529  0.7127  0.4719  0.2560
13342TIP3   OH261516   0.336   0.206  12.871 -0.1749 -0.3343  0.5601
13342TIP3    H161517   0.245   0.229  12.851 -0.1866 -0.3674  0.5753
13342TIP3    H261518   0.332   0.116  12.901  0.0260 -0.7927 -0.7105
13343TIP3   OH261519   4.869   4.786   0.989 -0.3202 -0.0298 -0.2710
13343TIP3    H161520   4.776   4.785   1.012 -0.1490  0.7125  0.4925
13343TIP3    H261521   4.913   4.816   1.069  0.6139 -0.7743 -0.4966
13344TIP3   OH261522   5.935   2.819  16.970  0.2618  1.0237 -0.1984
13344TIP3    H161523   5.840   2.828  16.978  0.0033  0.3052 -1.9467
13344TIP3    H261524   5.958   2.751  17.033 -0.4166  1.0073  0.0464
13345TIP3   OH261525   2.100   1.986  15.484 -0.2079  0.0573 -0.2026
13345TIP3    H161526   2.168   2.017  15.423 -1.8403  1.2774 -1.4788
13345TIP3    H261527   2.032   2.053  15.481 -0.0198  0.6437  3.7201
13346TIP3   OH261528   0.088   3.966   2.328 -0.2881 -0.2768 -0.7477
13346TIP3    H161529   0.021   3.914   2.283 -1.2007  0.7614 -0.6395
13346TIP3    H261530   0.116   3.910   2.401 -1.2277 -0.6412 -0.6434
13347TIP3   OH261531   4.689   5.850  14.483  0.1972  0.0870 -0.2907
13347TIP3    H161532   4.737   5.768  14.487 -0.2642 -0.2207 -0.9708
13347TIP3    H261533   4.753   5.915  14.453  0.3493 -0.1919 -0.5669
13348TIP3   OH261534   6.264   5.515   5.298 -0.1468  0.3202  0.1295
13348TIP3    H161535   6.188   5.566   5.323 -0.9418 -0.1104 -1.2833
13348TIP3    H261536   6.240   5.424   5.319  0.0043  0.1894 -0.2518
13349TIP3   OH261537   1.975   1.898   3.858  0.1747  0.1936  0.0227
13349TIP3    H161538   1.896   1.864   3.816 -0.7981  0.6267  1.4357
13349TIP3    H261539   2.033   1.822   3.863 -0.3616 -0.2686 -0.5434
13350TIP3   OH261540   1.166   4.409  10.970  0.0285  0.4728  0.4395
13350TIP3    H161541   1.216   4.410  11.052 -1.6451 -1.0345  1.5624
13350TIP3    H261542   1.184   4.324  10.931 -0.8991  0.2853  0.3857
13351TIP3   OH261543   6.794   0.560   2.547  0.1197 -0.6926  0.0217
13351TIP3    H161544   6.705   0.538   2.521  0.6366 -1.6128 -1.0764
13351TIP3    H261545   6.848   0.530   2.474  1.2867  0.2893  0.4515
13352TIP3   OH261546   1.200   0.062   0.962 -0.2275 -0.4769 -0.3286
13352TIP3    H161547   1.264   0.055   0.891 -1.2591  0.7972 -1.4480
13352TIP3    H261548   1.117   0.036   0.921 -0.9056  0.6502  0.2980
13353TIP3   OH261549   4.913   3.281   4.498  0.3638  0.4471  0.4371
13353TIP3    H161550   4.876   3.240   4.576  2.2733 -0.3426  0.9795
13353TIP3    H261551   4.922   3.209   4.435  1.2827  0.5522  0.4430
13354TIP3   OH261552   4.640   1.831   5.850  0.0876 -0.0221  0.5885
13354TIP3    H161553   4.595   1.749   5.871 -1.1982  0.0634 -1.5437
13354TIP3    H261554   4.580   1.876   5.790  2.2277  0.9571 -0.9118
13355TIP3   OH261555   3.273   6.181  10.968  0.3471  0.0244  0.7768
13355TIP3    H161556   3.204   6.233  10.927 -0.8223 -1.8133  0.2559
13355TIP3    H261557   3.334   6.162  10.896  0.8506  0.7637  0.9992
13356TIP3   OH261558   1.496   4.716   3.808  0.2518 -0.3650 -0.0796
13356TIP3    H161559   1.581   4.744   3.843  0.0841 -0.6610  0.5682
13356TIP3    H261560   1.447   4.686   3.884 -0.8415  0.7857 -0.3031
13357TIP3   OH261561   1.931   6.664  11.228 -0.3345  0.0492  0.1261
13357TIP3    H161562   2.014   6.655  11.182 -0.9149  0.0376 -0.9634
13357TIP3    H261563   1.874   6.709  11.165 -1.3028 -0.4143  0.6515
13358TIP3   OH261564   0.660   5.848   5.145 -0.5264  0.1922  0.5991
13358TIP3    H161565   0.723   5.900   5.195  0.0639 -0.5179  0.6016
13358TIP3    H261566   0.703   5.764   5.131 -1.4084 -0.2519  0.4601
13359TIP3   OH261567   5.968   5.217   0.755  0.1801 -0.0133  0.2241
13359TIP3    H161568   5.928   5.296   0.793 -1.0428 -1.0114  1.1201
13359TIP3    H261569   5.899   5.151   0.760  1.8186 -1.7552  1.5674
13360TIP3   OH261570   0.994   4.766   4.933  0.1473  0.7887 -0.2269
13360TIP3    H161571   0.984   4.836   4.998 -1.3982 -0.6461  1.1948
13360TIP3    H261572   1.011   4.688   4.985  2.2108  0.1078 -1.7967
13361TIP3   OH261573   0.218   1.492   4.424 -0.5067  0.1438 -0.0493
13361TIP3    H161574   0.150   1.507   4.490 -0.2596  0.3414  0.1633
13361TIP3    H261575   0.254   1.405   4.446  0.2411  0.6208  0.6841
13362TIP3   OH261576   4.617   1.051  16.199 -0.6463  0.1201 -0.8585
13362TIP3    H161577   4.613   1.122  16.263 -1.3904 -1.2888  0.7295
13362TIP3    H261578   4.657   1.091  16.122  1.0754  1.6979  0.7450
13363TIP3   OH261579   1.403   6.747   3.079 -0.3644  0.7018  0.4953
13363TIP3    H161580   1.403   6.752   3.174 -0.7768  1.2550  0.4676
13363TIP3    H261581   1.496   6.740   3.055 -0.3149 -1.0333  1.0018
13364TIP3   OH261582   5.956   5.584  14.946  0.1792  0.0199 -0.3412
13364TIP3    H161583   5.894   5.594  14.874 -0.7482 -1.9515  0.1225
13364TIP3    H261584   5.910   5.621  15.022  0.0887 -0.2752 -0.2516
13365TIP3   OH261585   5.744   3.929   5.453  0.0741  0.7646 -0.4312
13365TIP3    H161586   5.711   3.845   5.421 -1.0149  0.5356  1.1826
13365TIP3    H261587   5.704   3.939   5.539  1.5556  2.1461  0.1380
13366TIP3   OH261588   1.564   4.341  11.353  0.1776 -0.0620  0.2305
13366TIP3    H161589   1.565   4.248  11.377 -0.2403 -0.5449 -1.4895
13366TIP3    H261590   1.656   4.367  11.359  0.0054  0.2733  3.5731
13367TIP3   OH261591   3.244   2.174  16.149  0.8534 -0.0416  0.2353
13367TIP3    H161592   3.333   2.201  16.127 -0.0690  2.2250 -0.9308
13367TIP3    H261593   3.242   2.080  16.129  2.6540  0.0922 -0.7347
13368TIP3   OH261594   5.469   3.865  13.749 -0.1119  0.0937 -0.1289
13368TIP3    H161595   5.487   3.952  13.783 -0.0310 -0.6810  1.9858
13368TIP3    H261596   5.377   3.849  13.770 -0.6229  0.3017 -2.0775
13369TIP3   OH261597   5.100   2.329  12.334 -0.0412  0.1404  0.2658
13369TIP3    H161598   5.125   2.372  12.252  0.2559  2.0885  1.3325
13369TIP3    H261599   5.036   2.388  12.374 -1.2303 -1.4410  0.8362
13370TIP3   OH261600   4.053   2.570   4.974  0.1386 -0.1776 -0.5965
13370TIP3    H161601   4.133   2.622   4.962  0.2914 -0.4721 -0.8808
13370TIP3    H261602   4.084   2.480   4.985 -0.0797 -0.1207  0.6598
13371TIP3   OH261603   1.635   6.458  16.050 -0.0872  0.2449  0.0557
13371TIP3    H161604   1.689   6.446  15.972  0.2413 -0.9363  0.4391
13371TIP3    H261605   1.644   6.376  16.098  0.7605  1.3785  1.9942
13372TIP3   OH261606   4.951   2.135   4.786  0.3816  0.1284 -0.1243
13372TIP3    H161607   4.871   2.148   4.736 -0.1245 -1.2063  0.2881
13372TIP3    H261608   4.929   2.165   4.874  0.1292 -0.7793  0.1322
13373TIP3   OH261609   3.694   3.733   1.670 -0.5414  0.4366 -0.0008
13373TIP3    H161610   3.787   3.714   1.674 -0.8318 -0.9566  1.7096
13373TIP3    H261611   3.685   3.820   1.709 -0.0710 -0.0567  1.2592
13374TIP3   OH261612   6.716   4.043  16.480 -0.3694 -0.7885  0.1050
13374TIP3    H161613   6.629   4.075  16.458  0.2932  1.1880  0.1617
13374TIP3    H261614   6.757   4.026  16.395  0.4063  1.8356 -0.1122
13375TIP3   OH261615   0.978   5.132  16.171  0.2762  0.2606 -0.3822
13375TIP3    H161616   1.051   5.111  16.113  0.9966 -0.2252  0.6623
13375TIP3    H261617   0.910   5.069  16.148  0.6249 -0.0545 -0.5660
13376TIP3   OH261618   3.789   1.957  16.625 -0.2766  0.1882  0.0071
13376TIP3    H161619   3.775   2.037  16.573 -1.6525 -0.9878 -1.5386
13376TIP3    H261620   3.804   1.989  16.714 -0.6272  2.1736 -0.5844
13377TIP3   OH261621   0.051   6.166   5.440 -0.1633 -0.0365 -0.2564
13377TIP3    H161622  -0.020   6.229   5.427 -0.6932 -0.1445  1.6934
13377TIP3    H261623   0.006   6.085   5.466  0.6191 -0.4473 -0.1582
13378TIP3   OH261624   1.756   0.320  15.561  0.1589 -0.2843 -0.3310
13378TIP3    H161625   1.689   0.356  15.620 -0.0802 -0.1720 -0.6693
13378TIP3    H261626   1.707   0.285  15.487  0.5625  2.0691 -1.8338
13379TIP3   OH261627   6.573   1.598  16.722  0.3015  0.0016  0.2084
13379TIP3    H161628   6.651   1.591  16.667  0.9426  2.3357  0.6967
13379TIP3    H261629   6.507   1.545  16.677  2.2225 -2.3819  0.0049
13380TIP3   OH261630   4.465   4.294   6.060 -0.5610  0.1438  0.2330
13380TIP3    H161631   4.430   4.383   6.053 -1.5636 -0.2767 -0.5118
13380TIP3    H261632   4.559   4.305   6.068 -0.5927  1.2616 -0.6042
13381TIP3   OH261633   4.632   1.868  13.604 -0.2506 -0.0481  0.1329
13381TIP3    H161634   4.685   1.891  13.527  1.2758 -0.7205  0.9434
13381TIP3    H261635   4.578   1.795  13.573 -1.0548  0.9261 -0.8346
13382TIP3   OH261636   4.666   5.260   5.483 -0.6534 -0.2107 -0.2013
13382TIP3    H161637   4.738   5.231   5.538  1.2824 -1.2079 -3.0074
13382TIP3    H261638   4.636   5.180   5.439 -1.6502  0.6195 -1.0923
13383TIP3   OH261639   2.325   3.468   2.373  1.0900  0.1684 -0.9581
13383TIP3    H161640   2.354   3.415   2.299  2.5179  1.2858 -1.2221
13383TIP3    H261641   2.323   3.558   2.340  0.4060  0.5227 -0.0185
13384TIP3   OH261642   5.236   3.466   6.408 -0.6689 -0.2140 -0.2795
13384TIP3    H161643   5.203   3.522   6.479  0.4661  0.4706 -0.2597
13384TIP3    H261644   5.331   3.475   6.414 -0.4901 -1.7594 -0.6207
13385TIP3   OH261645   0.589   2.641  16.103  0.1131  0.2080  0.0346
13385TIP3    H161646   0.662   2.665  16.160 -0.5351 -0.4496  1.1684
13385TIP3    H261647   0.582   2.546  16.110  1.4537 -0.2281 -2.9460
13386TIP3   OH261648   4.611   6.814   1.964 -0.4674  0.3771  0.4337
13386TIP3    H161649   4.635   6.872   1.892 -1.2730  0.3183  0.1134
13386TIP3    H261650   4.595   6.729   1.923 -0.9432  0.3457  0.6767
13387TIP3   OH261651   1.290   6.029   1.241 -0.0500 -0.4611  0.6626
13387TIP3    H161652   1.327   5.991   1.161 -0.5232 -2.0012  1.1362
13387TIP3    H261653   1.348   6.102   1.262 -0.0823  0.1795 -1.2385
13388TIP3   OH261654   5.452   6.185   2.286  0.0527 -0.1731  0.1400
13388TIP3    H161655   5.497   6.154   2.207  0.7259 -0.6112  0.6852
13388TIP3    H261656   5.519   6.181   2.354 -0.3488  0.7872  0.6075
13389TIP3   OH261657   3.460   0.739   5.162 -0.0211 -0.4082 -0.0859
13389TIP3    H161658   3.510   0.702   5.089 -0.8688 -2.5925  0.3366
13389TIP3    H261659   3.520   0.799   5.205  0.4618  1.0703 -2.6276
13390TIP3   OH261660   3.238   3.969  15.976  0.1249 -0.3250  0.3560
13390TIP3    H161661   3.253   4.015  16.058  1.7666  0.0648 -0.1192
13390TIP3    H261662   3.326   3.948  15.944 -0.5070 -1.2086 -0.8853
13391TIP3   OH261663   2.617   3.429  15.815  0.1414 -0.2645  1.0272
13391TIP3    H161664   2.587   3.516  15.840 -0.4011 -0.3527  0.6902
13391TIP3    H261665   2.566   3.370  15.871 -0.1720 -0.4067  0.5920
13392TIP3   OH261666   3.093   1.459  13.288 -0.3341  0.2173  0.2067
13392TIP3    H161667   3.082   1.547  13.325  2.3582  0.6788  0.0963
13392TIP3    H261668   3.110   1.403  13.364  1.9233  0.5781  0.0382
13393TIP3   OH261669   5.301   0.397  12.376  0.4578  0.5440  0.1481
13393TIP3    H161670   5.270   0.336  12.309  0.9025 -0.0285  0.4529
13393TIP3    H261671   5.238   0.469  12.374  1.0657  1.1001 -1.6750
13394TIP3   OH261672   1.278   4.529  14.389  0.2776 -0.2235 -0.1652
13394TIP3    H161673   1.265   4.624  14.385  1.3855  0.0503  1.5123
13394TIP3    H261674   1.327   4.508  14.310 -0.0876  0.5779 -0.6196
13395TIP3   OH261675   0.687   3.903   1.729 -0.4294  0.0218  0.4658
13395TIP3    H161676   0.650   3.938   1.648  1.7496 -0.4079 -0.7843
13395TIP3    H261677   0.681   3.808   1.720 -0.1388 -0.0294  0.7748
13396TIP3   OH261678   1.312   2.370   2.822 -0.5308 -0.0437  0.2650
13396TIP3    H161679   1.306   2.457   2.782  0.1790  0.4225  1.1329
13396TIP3    H261680   1.228   2.359   2.867 -1.0900 -0.3171 -0.8011
13397TIP3   OH261681   0.881   4.517   6.189  0.7264  0.1746 -0.4788
13397TIP3    H161682   0.967   4.483   6.211 -0.1613 -1.4143  0.7874
13397TIP3    H261683   0.851   4.561   6.269 -1.2435 -2.9192  0.7203
13398TIP3   OH261684   0.272   3.788  16.017 -0.2420 -0.3735 -0.2225
13398TIP3    H161685   0.256   3.862  15.960 -0.5582 -0.0469  0.2782
13398TIP3    H261686   0.315   3.723  15.962  1.8834  0.9395 -0.1864
13399TIP3   OH261687   4.276   4.031  14.076  0.2068 -0.3396 -0.4120
13399TIP3    H161688   4.224   4.108  14.099 -0.1360 -0.6529 -0.1360
13399TIP3    H261689   4.279   3.979  14.155 -1.3491 -1.6402 -1.1568
13400TIP3   OH261690   4.935   2.738  15.692 -0.2043  0.0368  0.4673
13400TIP3    H161691   4.947   2.648  15.724  0.1402 -0.5139 -1.1184
13400TIP3    H261692   4.844   2.742  15.665  0.0066 -0.1596 -0.3233
13401TIP3   OH261693   2.576   5.363  16.013  0.5094  0.7490  0.0070
13401TIP3    H161694   2.648   5.415  16.049  0.7647  1.8473 -1.9451
13401TIP3    H261695   2.508   5.427  15.993 -0.3380 -0.0617  0.2290
13402TIP3   OH261696   1.404   2.153   2.084 -0.5648 -0.0167 -0.0050
13402TIP3    H161697   1.473   2.194   2.031  0.9143 -2.7502 -0.4129
13402TIP3    H261698   1.428   2.172   2.174  0.2286 -0.1195 -0.1805
13403TIP3   OH261699   6.681   3.798   5.042 -0.2454 -0.6694 -0.0792
13403TIP3    H161700   6.698   3.797   5.136 -0.0671  0.9490 -0.0588
13403TIP3    H261701   6.720   3.718   5.009  0.1136 -1.0217  1.1631
13404TIP3   OH261702   5.831   2.297   4.357 -0.1033 -0.3066 -0.0186
13404TIP3    H161703   5.916   2.333   4.332  0.4780 -1.4222  0.2605
13404TIP3    H261704   5.817   2.329   4.446  0.0684 -0.2047 -0.0280
13405TIP3   OH261705   1.300   0.247   4.502 -0.0278 -0.3827 -0.1648
13405TIP3    H161706   1.308   0.341   4.488  1.3052  0.0796  2.8432
13405TIP3    H261707   1.375   0.209   4.457 -0.3885 -0.0044 -1.1076
13406TIP3   OH261708   6.717   4.642   1.815 -0.6326 -0.0155 -0.4804
13406TIP3    H161709   6.663   4.566   1.835 -0.1414 -0.2535 -0.0433
13406TIP3    H261710   6.729   4.686   1.899  1.0315 -0.7543 -0.3034
13407TIP3   OH261711   3.139   0.943  11.354  0.4416 -0.1956 -0.2529
13407TIP3    H161712   3.165   0.914  11.267 -0.2424  0.6501 -0.7525
13407TIP3    H261713   3.222   0.948  11.403  0.9548  0.2423 -1.1370
13408TIP3   OH261714   3.281   4.531  14.417 -0.0911  0.0602 -0.1176
13408TIP3    H161715   3.352   4.566  14.470 -0.8017  1.2900  0.0499
13408TIP3    H261716   3.298   4.437  14.415  1.4721  0.3073  0.0033
13409TIP3   OH261717   4.874   2.253   5.257 -0.4781  0.5707 -0.4582
13409TIP3    H161718   4.794   2.215   5.293 -0.1438  0.4752  0.1964
13409TIP3    H261719   4.917   2.293   5.332 -0.5372  1.7443 -1.0242
13410TIP3   OH261720   3.434   0.503  11.956  0.2230  0.1828 -0.4822
13410TIP3    H161721   3.488   0.438  11.911  1.0455 -1.0807  2.1313
13410TIP3    H261722   3.348   0.495  11.916  0.1296 -3.0106  0.0924
13411TIP3   OH261723   2.031   0.336   3.530 -0.0597  0.0669  0.4626
13411TIP3    H161724   2.047   0.246   3.503 -4.5016 -0.9309  0.4601
13411TIP3    H261725   2.026   0.385   3.447 -2.2259 -0.7064  0.0725
13412TIP3   OH261726   3.270   0.269  14.569  0.2721  0.5283 -0.4740
13412TIP3    H161727   3.285   0.305  14.482  2.3375  3.5244  0.9513
13412TIP3    H261728   3.349   0.220  14.589  0.3635  0.9110  0.1400
13413TIP3   OH261729   1.782   2.460  10.299 -0.1004 -0.2608 -0.5238
13413TIP3    H161730   1.824   2.377  10.277 -0.3039 -0.6137  0.3809
13413TIP3    H261731   1.785   2.464  10.395 -0.1768  0.7322 -0.5509
13414TIP3   OH261732   4.881   1.373   3.999  0.5230  0.0871  0.5341
13414TIP3    H161733   4.800   1.406   3.962  1.4298  1.1870 -0.5750
13414TIP3    H261734   4.920   1.320   3.930  2.0791  1.9036 -0.0823
13415TIP3   OH261735   4.419   2.765   0.567 -0.1053  0.1816  0.0521
13415TIP3    H161736   4.427   2.706   0.641  0.7296  0.6347  0.3313
13415TIP3    H261737   4.328   2.797   0.571 -0.1427  0.0005  0.7152
13416TIP3   OH261738   5.105   4.824  13.090  0.0134 -0.0883 -0.7405
13416TIP3    H161739   5.110   4.786  13.178  0.4830  1.2926 -0.1369
13416TIP3    H261740   5.040   4.893  13.098  1.7509  1.6544 -0.8000
13417TIP3   OH261741   5.737   2.416  14.690  0.1340 -0.2757  0.0449
13417TIP3    H161742   5.719   2.422  14.784 -1.1061  0.2800 -0.2065
13417TIP3    H261743   5.679   2.345  14.660 -0.6012  0.5457 -0.5382
13418TIP3   OH261744   5.480   3.487   4.381  1.0888  0.4782  0.1141
13418TIP3    H161745   5.560   3.435   4.380 -0.3442 -1.8666 -0.2283
13418TIP3    H261746   5.430   3.455   4.306 -1.0727  0.3112  1.5363
13419TIP3   OH261747   2.440   3.699  13.190  0.0689 -0.1415 -0.1711
13419TIP3    H161748   2.390   3.620  13.209  0.6070 -0.5499 -0.4117
13419TIP3    H261749   2.532   3.671  13.195  0.3307  0.8645  1.4926
13420TIP3   OH261750   2.048   3.901   0.715 -0.2875 -0.8825  0.1243
13420TIP3    H161751   2.087   3.814   0.703  0.0309 -0.4995 -2.0660
13420TIP3    H261752   2.124   3.958   0.729 -0.2575 -0.5616 -1.2649
13421TIP3   OH261753   4.164   0.072  16.070 -0.0257  0.2693 -0.5394
13421TIP3    H161754   4.134   0.163  16.080  0.1690  0.2294  0.5457
13421TIP3    H261755   4.160   0.056  15.976  1.4589  1.9262 -0.9318
13422TIP3   OH261756   3.829   3.602  11.937 -0.2845 -0.6678 -0.5114
13422TIP3    H161757   3.789   3.672  11.885 -0.0527 -0.3347 -0.2460
13422TIP3    H261758   3.760   3.537  11.947 -0.8468 -0.0042  0.1214
13423TIP3   OH261759   4.619   4.167  15.958 -0.0640  0.4873 -0.1663
13423TIP3    H161760   4.710   4.144  15.943  0.1899 -0.1282  2.0505
13423TIP3    H261761   4.584   4.184  15.870  1.8073 -0.5884 -1.1805
13424TIP3   OH261762   5.117   1.993   1.912  0.1203 -0.3406 -0.2913
13424TIP3    H161763   5.117   2.083   1.880  0.5824 -0.6263 -1.1150
13424TIP3    H261764   5.024   1.971   1.922 -0.0057  0.7843  1.5829
13425TIP3   OH261765   1.964   0.651  13.989 -0.0096 -0.0033 -0.1052
13425TIP3    H161766   1.936   0.662  13.898  1.8554  0.5235 -0.6450
13425TIP3    H261767   1.986   0.558  13.997  1.0404  0.1971 -0.5712
13426TIP3   OH261768   2.039   6.141  10.716  0.0055 -0.0567  0.1273
13426TIP3    H161769   1.948   6.112  10.705 -0.7199  2.1611 -0.3275
13426TIP3    H261770   2.084   6.106  10.639 -0.7285 -0.2843 -0.2114
13427TIP3   OH261771   0.574   3.032  11.051  0.0477  0.3222  0.4543
13427TIP3    H161772   0.578   2.987  10.967 -0.8026 -0.0035  0.5777
13427TIP3    H261773   0.552   3.122  11.029  0.3587  0.3608  0.2971
13428TIP3   OH261774   0.863   4.994   1.050 -0.7442  0.0011 -0.4008
13428TIP3    H161775   0.809   5.045   1.110  1.9685  0.9179  1.4697
13428TIP3    H261776   0.880   4.912   1.097  2.3186  1.1673  0.8025
13429TIP3   OH261777   2.774   0.136  14.772 -0.5871  0.3567 -0.2266
13429TIP3    H161778   2.753   0.217  14.817 -2.2817  0.2594 -0.7667
13429TIP3    H261779   2.832   0.089  14.832  0.2782  1.8662  0.1633
13430TIP3   OH261780   4.346   4.802  12.781  0.2169 -0.2092  0.2176
13430TIP3    H161781   4.351   4.765  12.870  2.2811  0.5455  0.4697
13430TIP3    H261782   4.388   4.736  12.726  0.9442  0.2866  0.1641
13431TIP3   OH261783   3.802   5.336  14.467  0.0921  0.4218 -0.1091
13431TIP3    H161784   3.887   5.349  14.425  0.1784  0.4483  0.0715
13431TIP3    H261785   3.738   5.370  14.404  0.0033 -1.9041 -1.3915
13432TIP3   OH261786   3.891   4.375   6.038 -0.6914 -0.4879  0.1216
13432TIP3    H161787   3.828   4.428   6.087 -0.8382 -1.9327  1.5916
13432TIP3    H261788   3.840   4.299   6.008 -0.5447  0.2169 -2.1555
13433TIP3   OH261789   5.104   5.801   3.578 -0.1500  0.4316 -0.3711
13433TIP3    H161790   5.028   5.839   3.622 -0.6834 -0.4051 -0.5488
13433TIP3    H261791   5.127   5.866   3.511 -1.3012  0.2680 -0.9497
13434TIP3   OH261792   6.601   5.605   0.364 -0.0885 -0.1300 -0.2505
13434TIP3    H161793   6.686   5.575   0.395  0.3739 -0.6083 -1.8901
13434TIP3    H261794   6.621   5.680   0.308 -0.7794 -0.0239 -0.3621
13435TIP3   OH261795   3.053   0.817   4.144 -0.5938 -0.3650 -0.0383
13435TIP3    H161796   3.104   0.829   4.224  0.9998 -1.1412 -0.8870
13435TIP3    H261797   3.093   0.878   4.081 -0.1470 -1.5710 -0.9556
13436TIP3   OH261798   1.288   0.059   3.669  0.0952  0.4096  0.3046
13436TIP3    H161799   1.234  -0.018   3.652  0.8932  0.0910 -0.9229
13436TIP3    H261800   1.245   0.130   3.622 -0.6977  0.7798  1.5195
13437TIP3   OH261801   5.677   3.160   5.592  0.3405 -0.3082 -0.1632
13437TIP3    H161802   5.589   3.126   5.606  0.1012 -0.3697 -1.7361
13437TIP3    H261803   5.708   3.116   5.513  2.8187 -2.2810  1.7242
13438TIP3   OH261804   3.480   3.613  12.443 -0.6159 -0.3015 -0.1307
13438TIP3    H161805   3.496   3.645  12.532  0.7246 -0.8119 -0.1661
13438TIP3    H261806   3.488   3.690  12.387 -0.1895 -0.2059  0.0613
13439TIP3   OH261807   6.700   1.745   1.761  0.3247  0.4265 -0.9218
13439TIP3    H161808   6.640   1.819   1.751  0.7296  0.6680 -1.6617
13439TIP3    H261809   6.665   1.694   1.834  1.0730  2.3450  0.8613
13440TIP3   OH261810   1.948   5.058  12.027  0.3863 -0.0715  0.0944
13440TIP3    H161811   1.978   5.131  12.081  0.2249 -1.9156  2.8784
13440TIP3    H261812   1.884   5.012  12.083 -0.0703 -1.9111 -1.8230
13441TIP3   OH261813   5.370   6.244   4.477 -0.2773 -0.1218  0.5395
13441TIP3    H161814   5.417   6.287   4.405 -0.9956  0.1913  0.2526
13441TIP3    H261815   5.375   6.306   4.549  2.6569 -1.4545  1.6538
13442TIP3   OH261816   1.225   5.309   2.169 -0.0057  0.2228 -0.1523
13442TIP3    H161817   1.143   5.260   2.162  0.0695  0.3132 -2.1571
13442TIP3    H261818   1.291   5.243   2.191 -0.5089  0.0797  1.0218
13443TIP3   OH261819   3.260   0.693   0.423  0.1502  0.4296  0.0443
13443TIP3    H161820   3.323   0.753   0.463  0.3507 -0.5094  1.2124
13443TIP3    H261821   3.312   0.638   0.364  0.6075 -0.7882  1.5051
13444TIP3   OH261822   6.629   4.651   4.593 -0.4797  0.3075 -0.4444
13444TIP3    H161823   6.722   4.634   4.599 -0.4044  0.3466 -1.3998
13444TIP3    H261824   6.587   4.567   4.610 -0.1978 -0.1964 -2.0388
13445TIP3   OH261825   3.238   4.247  15.772  0.5303  0.5363  0.4727
13445TIP3    H161826   3.174   4.230  15.841 -1.1360  1.4960 -0.7521
13445TIP3    H261827   3.320   4.210  15.805 -1.3861 -4.3252  0.5411
13446TIP3   OH261828   6.374   2.648   3.406  0.1728 -0.5765 -0.2593
13446TIP3    H161829   6.436   2.698   3.459  0.0998 -0.4777 -0.2655
13446TIP3    H261830   6.296   2.704   3.401 -0.2123 -1.0433  0.4157
13447TIP3   OH261831   2.883   2.273   4.411  0.1053  0.4906  0.1013
13447TIP3    H161832   2.798   2.228   4.407 -0.3116  1.0942  1.4511
13447TIP3    H261833   2.921   2.245   4.495  0.5030  1.4774  0.2676
13448TIP3   OH261834   4.879   5.074   0.222 -0.3761 -0.5788 -0.4078
13448TIP3    H161835   4.845   5.163   0.237  0.5994  0.1722 -2.4212
13448TIP3    H261836   4.885   5.036   0.310 -0.3926  1.4998  0.5473
13449TIP3   OH261837   4.953   4.926   5.390 -0.0065  0.6483 -0.8839
13449TIP3    H161838   5.022   4.990   5.371 -0.5383  1.6607  0.4430
13449TIP3    H261839   4.886   4.976   5.436 -1.0727 -0.5885 -1.0306
13450TIP3   OH261840   5.756   1.995  13.250 -0.1358 -0.3428  0.4713
13450TIP3    H161841   5.813   1.935  13.297  0.3185  0.8689  1.5431
13450TIP3    H261842   5.756   1.964  13.159 -0.2864 -2.1953  1.0693
13451TIP3   OH261843   2.708   4.240   5.886 -0.2306  0.4310  0.0152
13451TIP3    H161844   2.725   4.183   5.961  2.7807  0.8266 -0.2558
13451TIP3    H261845   2.652   4.310   5.922 -0.0119 -0.1209  1.5248
13452TIP3   OH261846   6.532   4.381  16.357  0.2249 -0.0915  0.7334
13452TIP3    H161847   6.445   4.389  16.317  0.3070 -1.6969  0.1475
13452TIP3    H261848   6.567   4.299  16.322  2.2954  0.8624  0.3696
13453TIP3   OH261849   4.702   3.777   0.248 -0.1071  0.2971 -0.0256
13453TIP3    H161850   4.758   3.818   0.182 -0.9582 -0.6338 -1.3666
13453TIP3    H261851   4.613   3.799   0.221 -0.5913 -2.0898 -0.6215
13454TIP3   OH261852   0.066   2.033   4.872 -0.2889 -0.4654 -0.6137
13454TIP3    H161853   0.161   2.039   4.874 -0.1817 -0.8393 -2.5249
13454TIP3    H261854   0.048   1.940   4.855 -0.9329 -0.1852 -1.5440
13455TIP3   OH261855   1.336   5.128   0.692  0.4617  0.0931 -0.9957
13455TIP3    H161856   1.273   5.130   0.765 -0.2338  1.2118 -1.5829
13455TIP3    H261857   1.405   5.069   0.721 -0.9194 -1.2881 -0.3667
13456TIP3   OH261858   5.381   2.428  16.545  0.5454  0.1633  0.0082
13456TIP3    H161859   5.406   2.436  16.452  1.4514  1.4886  0.3275
13456TIP3    H261860   5.463   2.443  16.592  0.1691 -0.8927  1.0339
13457TIP3   OH261861   3.270   6.638   4.834  0.2966  0.2085 -0.0155
13457TIP3    H161862   3.206   6.569   4.852  1.1701 -0.3665  1.0454
13457TIP3    H261863   3.346   6.592   4.799  0.9626  0.5930  0.8805
13458TIP3   OH261864   4.724   1.619   6.251  0.0106  0.0286 -0.3970
13458TIP3    H161865   4.648   1.595   6.303  0.5962  0.6386  0.7901
13458TIP3    H261866   4.770   1.536   6.235  0.9051  0.0159  1.8612
13459TIP3   OH261867   6.022   2.128   3.168  0.0044 -0.2444 -0.7619
13459TIP3    H161868   5.928   2.134   3.189  0.3033 -0.3522  0.6984
13459TIP3    H261869   6.048   2.219   3.151 -0.0034  0.0241  0.5671
13460TIP3   OH261870   6.709   6.136   3.618  0.4631 -0.2457 -0.3048
13460TIP3    H161871   6.804   6.144   3.623  0.4334  0.4117 -0.6954
13460TIP3    H261872   6.693   6.042   3.613  1.1775 -0.3106 -1.7833
13461TIP3   OH261873   6.188   6.711   5.841 -0.4116  0.2220  1.0915
13461TIP3    H161874   6.102   6.753   5.841 -0.1388  0.7966  1.5447
13461TIP3    H261875   6.223   6.728   5.754 -0.6670  0.1720  0.9784
13462TIP3   OH261876   3.338   5.211   0.681  0.4182  0.3767  0.2950
13462TIP3    H161877   3.376   5.210   0.594 -0.2705 -0.8386 -0.0145
13462TIP3    H261878   3.382   5.284   0.726  1.3174  0.5377 -0.8082
13463TIP3   OH261879   2.353   3.127  13.980 -0.5058 -0.7886  0.1042
13463TIP3    H161880   2.258   3.138  13.992 -0.3388 -0.3760  1.1993
13463TIP3    H261881   2.386   3.111  14.069  0.6025  0.2527 -0.1002
13464TIP3   OH261882   3.268   1.605  11.172 -0.0654  0.5673  0.1907
13464TIP3    H161883   3.297   1.537  11.111 -1.0454  0.7957 -0.5720
13464TIP3    H261884   3.193   1.566  11.217 -1.7133  1.6705 -1.4565
13465TIP3   OH261885   5.182   4.985  10.889  0.4457  0.1804  0.1326
13465TIP3    H161886   5.185   4.898  10.851  0.5131 -0.5319  1.6998
13465TIP3    H261887   5.225   5.041  10.824 -1.3040 -0.5749 -1.7864
13466TIP3   OH261888   0.496   1.165   6.364 -0.0403  0.1519 -0.1027
13466TIP3    H161889   0.533   1.173   6.451  1.0543  1.7295 -0.6656
13466TIP3    H261890   0.402   1.180   6.376 -0.2343 -1.7169  1.0451
13467TIP3   OH261891   2.703   5.282  10.404  0.4464  0.1123 -0.4155
13467TIP3    H161892   2.630   5.326  10.447  0.6842  0.5220 -0.4240
13467TIP3    H261893   2.665   5.243  10.325  0.4277  1.1671 -0.9378
13468TIP3   OH261894   1.284   5.547   1.412  0.0300  0.1314 -1.0119
13468TIP3    H161895   1.227   5.570   1.339  2.1702 -0.0503 -2.8788
13468TIP3    H261896   1.371   5.575   1.383  0.8724  0.7776  1.8451
13469TIP3   OH261897   4.964   3.059  14.804 -0.1887 -0.4740 -0.3187
13469TIP3    H161898   5.043   3.082  14.755  0.7666 -0.5414  1.1285
13469TIP3    H261899   4.913   3.007  14.742  0.1055  0.9377 -1.8382
13470TIP3   OH261900   0.779   1.728   5.133  0.4945  0.0272  0.4078
13470TIP3    H161901   0.870   1.703   5.148  0.5125 -0.4545 -0.4695
13470TIP3    H261902   0.744   1.746   5.221  1.1710 -0.6818  0.8287
13471TIP3   OH261903   5.974   4.215   1.316 -0.9865  0.1469 -0.5813
13471TIP3    H161904   5.955   4.122   1.333 -0.0617 -0.0563 -0.5879
13471TIP3    H261905   5.897   4.261   1.348 -2.1017 -0.7147 -1.9125
13472TIP3   OH261906   4.210   0.254   1.373 -0.2053 -0.1941 -0.3451
13472TIP3    H161907   4.274   0.324   1.387  0.2846 -0.5746 -0.6260
13472TIP3    H261908   4.151   0.260   1.448 -0.3022  0.6598 -0.4848
13473TIP3   OH261909   4.454   3.542   0.454 -0.0401  0.1648 -1.0176
13473TIP3    H161910   4.468   3.468   0.395  1.4371  0.3374 -0.9224
13473TIP3    H261911   4.532   3.597   0.443 -0.4664  0.9981 -0.0696
13474TIP3   OH261912   1.603   5.350   3.101  0.2795 -0.1372 -0.5657
13474TIP3    H161913   1.649   5.345   3.185  0.0488  0.3820 -0.4017
13474TIP3    H261914   1.529   5.408   3.119 -0.9780 -1.6923 -0.5845
13475TIP3   OH261915   3.126   2.275   2.161  0.3289  0.0097 -0.3693
13475TIP3    H161916   3.167   2.262   2.247  0.1178  0.6888 -0.1629
13475TIP3    H261917   3.161   2.358   2.130 -0.7799  0.5494 -0.2417
13476TIP3   OH261918   0.186   4.676   3.534  0.0800  0.0150  0.5263
13476TIP3    H161919   0.127   4.608   3.505  1.4321 -0.7880 -0.4592
13476TIP3    H261920   0.204   4.728   3.456  2.7050 -1.3572  0.1140
13477TIP3   OH261921   0.808   5.215  14.004  0.1805  0.4780  0.0187
13477TIP3    H161922   0.732   5.192  14.057 -1.4000  2.5275 -1.2178
13477TIP3    H261923   0.826   5.136  13.952 -1.3991  0.0820  0.0127
13478TIP3   OH261924   5.947   6.486   2.386  0.1354 -0.0184 -0.4518
13478TIP3    H161925   5.948   6.557   2.450 -0.7269  0.4668 -0.9563
13478TIP3    H261926   5.914   6.410   2.435  0.9956 -0.0707  0.0698
13479TIP3   OH261927   6.208   5.504   2.505 -0.5702  0.0593 -0.0456
13479TIP3    H161928   6.152   5.579   2.486 -1.0148 -0.4469 -0.7926
13479TIP3    H261929   6.154   5.446   2.558 -0.7381 -0.3981 -0.7107
13480TIP3   OH261930   2.985   3.659   6.285 -0.6709  0.5182 -0.5204
13480TIP3    H161931   2.975   3.655   6.380  0.9950 -1.4473 -0.3719
13480TIP3    H261932   3.068   3.704   6.272 -0.8267  0.6559 -1.0621
13481TIP3   OH261933   5.476   1.899  16.715 -0.5543  0.1571 -1.0940
13481TIP3    H161934   5.471   1.845  16.636 -0.8410 -2.3581  0.5247
13481TIP3    H261935   5.385   1.917  16.738 -0.6874 -1.9589  0.3721
13482TIP3   OH261936   6.694   1.240   5.171  0.0479  0.4063  0.3630
13482TIP3    H161937   6.714   1.172   5.107 -0.7924  0.5728 -0.0909
13482TIP3    H261938   6.755   1.223   5.243  0.8616  0.0932 -0.3813
13483TIP3   OH261939   1.003   0.483  15.474  0.2407  0.6471 -0.2039
13483TIP3    H161940   1.039   0.477  15.386  0.4256  1.8867 -0.2421
13483TIP3    H261941   1.054   0.422  15.526  0.9499  0.8027 -0.7080
13484TIP3   OH261942   2.592   0.488   4.538  0.5041 -0.4066 -0.5115
13484TIP3    H161943   2.631   0.464   4.622 -1.5991 -0.4334  0.5199
13484TIP3    H261944   2.511   0.533   4.561 -0.7555 -1.4990 -2.5150
13485TIP3   OH261945   3.936   3.571   4.959  0.2665  0.6038  0.3786
13485TIP3    H161946   3.850   3.614   4.967 -0.3586 -0.6660  0.6711
13485TIP3    H261947   3.962   3.553   5.049  1.7828  2.6974  0.4425
13486TIP3   OH261948   2.094   4.772  14.200  0.0666 -0.3976  0.0316
13486TIP3    H161949   2.161   4.704  14.202 -0.4368 -0.9547 -1.2690
13486TIP3    H261950   2.020   4.734  14.247 -0.0121 -0.5308 -0.1982
13487TIP3   OH261951   6.255   2.318  16.791 -0.1137 -0.0198 -0.5719
13487TIP3    H161952   6.286   2.395  16.743  0.2332  0.0625 -0.2298
13487TIP3    H261953   6.308   2.246  16.757  1.4331  0.3305  0.9151
13488TIP3   OH261954   6.024   5.241  10.994  0.0247  0.3160 -0.0114
13488TIP3    H161955   6.007   5.215  10.903  0.9967 -0.6049  0.0439
13488TIP3    H261956   6.103   5.192  11.018  0.0195  0.8699  1.1965
13489TIP3   OH261957   4.617   4.212   0.704  0.0806  0.4553  0.3084
13489TIP3    H161958   4.669   4.132   0.706  1.1905  1.1579  1.2394
13489TIP3    H261959   4.680   4.280   0.680 -0.1801  1.4400  2.1848
13490TIP3   OH261960   1.981   1.293  14.031  0.2526 -0.4015  0.3923
13490TIP3    H161961   2.036   1.371  14.037  1.3837 -1.0467 -0.8463
13490TIP3    H261962   2.020   1.231  14.093 -1.1353  0.2536  1.9812
13491TIP3   OH261963   1.360   3.161  17.124 -0.3438  0.3337 -0.4113
13491TIP3    H161964   1.379   3.159  17.218 -0.1158 -0.3093 -0.4681
13491TIP3    H261965   1.267   3.183  17.118  0.1117  2.6320 -0.1023
13492TIP3   OH261966   3.095   2.213  12.641  0.3992  0.2258 -0.3906
13492TIP3    H161967   3.060   2.239  12.555  0.4269 -0.8415 -0.7349
13492TIP3    H261968   3.136   2.128  12.625  0.5594  0.1033  0.6507
13493TIP3   OH261969   6.676   3.476   1.150  0.1041 -0.1239 -0.1322
13493TIP3    H161970   6.757   3.469   1.099  0.7492 -0.2610  0.8706
13493TIP3    H261971   6.701   3.527   1.227 -0.8603  0.1344  0.0208
13494TIP3   OH261972   1.344   4.616   3.214  0.0019  0.6862 -0.4176
13494TIP3    H161973   1.314   4.706   3.228 -1.7448  0.0744 -0.0385
13494TIP3    H261974   1.436   4.617   3.242  0.7813  2.8968 -2.7150
13495TIP3   OH261975   6.062   0.952   0.395 -0.2705 -0.0492 -1.0788
13495TIP3    H161976   6.041   1.044   0.377  1.0885  1.0501  2.1932
13495TIP3    H261977   5.993   0.922   0.454  1.0250  0.0064  0.5480
13496TIP3   OH261978   2.885   5.766   3.426 -0.1864  0.1598  0.2886
13496TIP3    H161979   2.893   5.671   3.435  1.1774  0.2034 -0.1125
13496TIP3    H261980   2.792   5.784   3.436 -0.8147 -1.4714 -1.7869
13497TIP3   OH261981   6.735   0.014   4.841 -0.2834  0.3720  0.5525
13497TIP3    H161982   6.798   0.076   4.804  0.3563 -0.6667 -0.1338
13497TIP3    H261983   6.784  -0.068   4.848 -0.8815  0.1152  2.1623
13498TIP3   OH261984   0.764   2.290  11.481 -0.6718  0.1830  0.4582
13498TIP3    H161985   0.858   2.306  11.471 -0.9318  1.2523 -0.4630
13498TIP3    H261986   0.735   2.265  11.393 -1.0368 -1.4664  1.0005
13499TIP3   OH261987   6.170   3.289   6.365 -0.6075 -0.2427 -0.3879
13499TIP3    H161988   6.154   3.284   6.459 -1.2210 -1.9817 -0.5535
13499TIP3    H261989   6.266   3.285   6.356 -0.4155  1.7206  0.1982
13500TIP3   OH261990   3.323   2.399   3.444  0.3753  0.1996  0.6435
13500TIP3    H161991   3.367   2.327   3.400 -1.5833  0.5293 -2.1589
13500TIP3    H261992   3.241   2.362   3.476  1.0030  0.3879  2.5937
13501TIP3   OH261993   0.712   2.855   3.033 -0.0262  0.1853 -0.2912
13501TIP3    H161994   0.722   2.764   3.061  2.2517  0.5070  0.1094
13501TIP3    H261995   0.647   2.852   2.963 -0.6380 -1.6053  0.3040
13502TIP3   OH261996   6.025   0.888   4.119 -0.4857 -0.5906  0.3995
13502TIP3    H161997   6.025   0.953   4.189  1.2438 -2.6837  2.5159
13502TIP3    H261998   6.042   0.938   4.040  1.3845  1.4907  1.9960
13503TIP3   OH261999   5.243   0.348  15.819  0.2079  0.1455 -0.2084
13503TIP3    H162000   5.275   0.296  15.744 -0.7026 -0.5470 -0.1373
13503TIP3    H262001   5.158   0.381  15.790 -0.1548 -0.1361  0.5252
13504TIP3   OH262002   3.626   5.466  14.287  0.4338  0.2843 -1.0020
13504TIP3    H162003   3.609   5.515  14.207 -1.8660  0.4824 -0.4854
13504TIP3    H262004   3.546   5.478  14.339  2.0509  0.6837  1.5944
13505TIP3   OH262005   3.642   2.542   0.979 -0.3481  0.0336 -0.2041
13505TIP3    H162006   3.707   2.505   0.919 -0.7190 -0.5848 -0.2398
13505TIP3    H262007   3.572   2.573   0.921 -0.7975 -0.7455 -0.0983
13506TIP3   OH262008   5.053   5.020  12.277  0.1104  0.6440 -0.3241
13506TIP3    H162009   4.975   5.035  12.223  1.4632  1.6663 -2.0959
13506TIP3    H262010   5.093   5.106  12.285  2.7075 -0.2533 -2.1641
13507TIP3   OH262011   3.059   4.520  12.562 -0.0375 -0.7312 -0.7176
13507TIP3    H162012   3.126   4.515  12.494  0.4241 -0.3899 -0.2892
13507TIP3    H262013   3.107   4.541  12.642 -0.7989  0.9463 -0.6571
13508TIP3   OH262014   4.710   5.577  11.368 -0.2224  0.4692  0.2728
13508TIP3    H162015   4.735   5.488  11.391  0.3237  1.0453  2.0514
13508TIP3    H262016   4.790   5.628  11.380 -0.5074  1.2150 -0.7865
13509TIP3   OH262017   6.433   0.356   1.717 -0.2675  0.3126  0.5256
13509TIP3    H162018   6.364   0.418   1.692 -0.1175  0.0060 -0.7092
13509TIP3    H262019   6.385   0.279   1.748 -0.4729  0.4543  0.5618
13510TIP3   OH262020   3.533   3.590  13.412 -0.4489 -0.0140 -0.2826
13510TIP3    H162021   3.527   3.675  13.455  1.4957  0.1815 -0.3162
13510TIP3    H262022   3.456   3.542  13.443 -0.1352  0.7880  1.9114
13511TIP3   OH262023   4.799   5.370  13.715 -0.4726 -0.6796  0.2430
13511TIP3    H162024   4.735   5.425  13.759 -1.0715 -1.3277  0.2067
13511TIP3    H262025   4.878   5.377  13.769  0.4630  2.4711 -1.3011
13512TIP3   OH262026   3.310   3.199  13.191 -0.2022 -0.1795 -0.3146
13512TIP3    H162027   3.265   3.187  13.275 -1.6477 -2.2815 -1.3165
13512TIP3    H262028   3.393   3.151  13.201 -0.7339 -1.1249 -0.3336
13513TIP3   OH262029   2.927   3.077  17.070  0.0372 -0.3742 -0.7323
13513TIP3    H162030   2.859   3.113  17.127  1.2288 -2.0457  1.9398
13513TIP3    H262031   2.988   3.150  17.055  0.8260 -0.3878  2.0136
13514TIP3   OH262032   5.435   1.511  13.188 -0.5859 -0.2712  0.0541
13514TIP3    H162033   5.419   1.465  13.106 -1.0177  1.7043 -1.0579
13514TIP3    H262034   5.530   1.509  13.200 -0.4531 -0.0047 -0.8773
13515TIP3   OH262035   4.121   0.500  15.518 -0.7680 -0.0266  0.1246
13515TIP3    H162036   4.152   0.571  15.462 -0.6325 -0.8597 -0.9051
13515TIP3    H262037   4.196   0.441  15.525 -0.9580 -0.2005  0.7504
13516TIP3   OH262038   0.351   1.768   5.157  0.4856 -0.6891  0.5389
13516TIP3    H162039   0.337   1.731   5.245  1.3592 -0.8756  0.6077
13516TIP3    H262040   0.263   1.782   5.123  0.1255 -0.3831  1.5458
13517TIP3   OH262041   0.356   3.238  13.913  0.1212 -0.2148 -0.4313
13517TIP3    H162042   0.288   3.291  13.869  0.8583 -0.6414 -2.1559
13517TIP3    H262043   0.306   3.176  13.966 -0.7964  0.8376 -0.0056
13518TIP3   OH262044   2.716   5.164   0.638  0.0898 -0.8677 -0.1131
13518TIP3    H162045   2.744   5.090   0.692 -0.0631 -2.0951 -1.6237
13518TIP3    H262046   2.621   5.154   0.631 -0.1133  0.2827  0.7706
13519TIP3   OH262047   3.467   3.469  15.965 -0.7455  0.2889  0.2492
13519TIP3    H162048   3.556   3.455  15.996 -0.3915  1.1257 -0.3296
13519TIP3    H262049   3.471   3.554  15.920 -2.2108  1.1893  1.7012
13520TIP3   OH262050   5.610   5.986   1.791  0.2529 -0.1568 -0.1572
13520TIP3    H162051   5.551   5.911   1.794 -3.8052  2.7687  1.0663
13520TIP3    H262052   5.587   6.031   1.710  0.2652  1.4198  0.6861
13521TIP3   OH262053   4.773   4.499   0.051  0.3045  0.0933 -0.1695
13521TIP3    H162054   4.743   4.488  -0.039  1.9896  0.7704 -0.8490
13521TIP3    H262055   4.728   4.430   0.100 -1.6670  0.5339 -1.2490
13522TIP3   OH262056   6.293   2.122  16.447  0.1488  0.3649 -0.1542
13522TIP3    H162057   6.345   2.128  16.527 -1.7422  0.3384  1.1630
13522TIP3    H262058   6.272   2.029  16.440  1.1162  0.2120 -1.2668
13523TIP3   OH262059   5.003   0.858  14.474 -0.3775 -0.2398 -0.0026
13523TIP3    H162060   5.018   0.952  14.466 -0.1914 -0.1888  0.8628
13523TIP3    H262061   4.925   0.842  14.421 -0.6535  0.4778  0.1750
13524TIP3   OH262062   4.453   1.475  12.318  0.1650 -0.5038  0.0005
13524TIP3    H162063   4.375   1.460  12.371 -0.2375  1.3806  0.0098
13524TIP3    H262064   4.489   1.387  12.303  0.5798 -1.1502  3.7562
13525TIP3   OH262065   1.249   0.491  15.248  1.4949  0.4703 -0.1800
13525TIP3    H162066   1.232   0.398  15.236  0.0536  0.5731  0.8607
13525TIP3    H262067   1.206   0.533  15.173 -1.7346  0.5903  1.5665
13526TIP3   OH262068   2.800   4.169  15.428  0.6531 -0.7836 -0.4540
13526TIP3    H162069   2.868   4.145  15.365  1.7559  0.3764  0.2780
13526TIP3    H262070   2.808   4.104  15.498  1.0446 -0.6007 -0.3319
13527TIP3   OH262071   5.971   6.106   3.285 -0.0759 -0.2123 -0.3464
13527TIP3    H162072   5.896   6.047   3.277  1.4909 -2.2225 -1.0470
13527TIP3    H262073   5.995   6.126   3.195  0.8826 -0.4976 -0.1672
13528TIP3   OH262074   3.282   0.755   2.876  0.3115  0.4770  0.0859
13528TIP3    H162075   3.282   0.808   2.956  0.0480  1.1486 -0.3500
13528TIP3    H262076   3.374   0.748   2.852  0.4511 -0.2824  0.8012
13529TIP3   OH262077   4.971   1.978  13.833 -0.0174  0.1798  0.0422
13529TIP3    H162078   4.954   2.051  13.773  0.5230  1.9330  1.8872
13529TIP3    H262079   4.885   1.940  13.850 -0.5328  1.3617  0.1834
13530TIP3   OH262080   5.461   1.892   2.768 -0.5316  0.2154  0.1829
13530TIP3    H162081   5.456   1.797   2.766  1.1198  0.1054 -0.7360
13530TIP3    H262082   5.375   1.920   2.801 -1.3660 -1.5416 -0.3691
13531TIP3   OH262083   1.357   2.149   6.005  0.0308  0.0895  0.2775
13531TIP3    H162084   1.364   2.194   6.089  0.4162 -1.4622  1.1067
13531TIP3    H262085   1.283   2.089   6.015 -1.9858  2.0212 -1.5861
13532TIP3   OH262086   4.939   5.602   2.543  0.4158 -0.4808  0.4358
13532TIP3    H162087   5.023   5.561   2.565  0.3643 -0.8326 -0.0083
13532TIP3    H262088   4.962   5.683   2.499  0.5400 -1.1031 -0.6743
13533TIP3   OH262089   2.459   6.093  12.714  0.1386 -0.0035 -0.1880
13533TIP3    H162090   2.504   6.106  12.797  0.0333 -1.0671  0.0472
13533TIP3    H262091   2.524   6.050  12.658  0.2476  0.8019 -0.7147
13534TIP3   OH262092   0.569   2.629  16.759  0.2775 -0.1110  0.2513
13534TIP3    H162093   0.506   2.690  16.799 -0.7792 -1.8965  1.4424
13534TIP3    H262094   0.558   2.548  16.808  0.5670 -1.7521 -2.2343
13535TIP3   OH262095   0.088   3.332   5.195  0.0131  0.4201  1.0073
13535TIP3    H162096   0.030   3.299   5.127 -2.2759  1.0181  2.5459
13535TIP3    H262097   0.095   3.260   5.257  0.6880  0.4595  0.9817
13536TIP3   OH262098   1.190   1.783  13.036  0.2583 -0.8668 -0.5244
13536TIP3    H162099   1.109   1.761  12.992  0.5476 -0.7553 -1.1284
13536TIP3    H262100   1.232   1.848  12.979  0.7446 -0.8824 -0.1995
13537TIP3   OH262101   3.667   6.286   2.473 -0.0964 -0.2761  0.0138
13537TIP3    H162102   3.630   6.373   2.491  2.6846  0.7465  1.3366
13537TIP3    H262103   3.641   6.268   2.383 -1.0635  1.7599 -0.1818
13538TIP3   OH262104   3.664   5.801  12.088 -0.2704  0.5951 -1.0262
13538TIP3    H162105   3.613   5.739  12.140 -1.2082  0.7346 -1.7480
13538TIP3    H262106   3.671   5.879  12.143  2.1755 -0.5702  0.5077
13539TIP3   OH262107   4.337   6.384   2.542  0.0509  0.0432  0.4339
13539TIP3    H162108   4.399   6.391   2.614  1.1501 -0.0868 -0.4621
13539TIP3    H262109   4.333   6.473   2.506 -0.2550  0.0408  0.4620
13540TIP3   OH262110   0.398   0.697  15.481 -0.3933 -0.1642 -0.0331
13540TIP3    H162111   0.386   0.697  15.576 -0.5431 -0.0985 -0.0516
13540TIP3    H262112   0.320   0.653  15.447  0.8551 -2.6315  0.0198
13541TIP3   OH262113   5.445   3.692  16.952 -0.5631  0.5696 -0.0101
13541TIP3    H162114   5.540   3.696  16.946 -0.4868 -1.1373 -0.2861
13541TIP3    H262115   5.423   3.754  17.022  1.2068 -2.3661  3.4798
13542TIP3   OH262116   1.377   2.723  14.932  0.7217  0.2330 -0.4656
13542TIP3    H162117   1.321   2.801  14.931  0.0682 -0.2107  0.4517
13542TIP3    H262118   1.439   2.739  15.003  2.2960  1.0486 -1.9318
13543TIP3   OH262119   3.066   3.258   6.030  0.5380  0.1036 -0.3696
13543TIP3    H162120   3.151   3.259   6.073  0.2402 -0.6969  0.2723
13543TIP3    H262121   3.028   3.173   6.053  0.4311 -0.4437 -2.3656
13544TIP3   OH262122   2.031   0.408   2.654  0.5245  0.2371  0.3027
13544TIP3    H162123   2.005   0.499   2.647  1.0628  0.3602 -0.2452
13544TIP3    H262124   1.969   0.369   2.716  0.0696  0.8860  0.2608
13545TIP3   OH262125   6.285   5.385  10.496 -0.3428 -0.2837 -0.0782
13545TIP3    H162126   6.248   5.330  10.427 -1.0176  0.3236 -0.2052
13545TIP3    H262127   6.285   5.473  10.459 -1.4520  0.1823  0.9916
13546TIP3   OH262128   1.498   0.089   2.324  0.4571 -0.6808  0.4531
13546TIP3    H162129   1.508   0.180   2.352 -0.1176 -0.5279  0.1878
13546TIP3    H262130   1.412   0.063   2.356 -0.3626 -0.4010 -1.3628
13547TIP3   OH262131   0.491   3.405  12.545 -0.1255  0.0542  0.6315
13547TIP3    H162132   0.399   3.421  12.565 -0.0852  0.1635  0.7347
13547TIP3    H262133   0.505   3.448  12.461 -0.1893 -0.0356  0.5752
13548TIP3   OH262134   0.603   5.698  11.962 -0.0715  0.1698  0.2332
13548TIP3    H162135   0.605   5.717  12.056  0.5883  1.4340 -0.0132
13548TIP3    H262136   0.638   5.777  11.921  0.4680 -0.6961 -1.0333
13549TIP3   OH262137   0.944   3.106  14.153 -0.1151  1.0297  0.4910
13549TIP3    H162138   1.020   3.105  14.095 -1.5651  2.2830 -1.5858
13549TIP3    H262139   0.889   3.034  14.122 -0.7274  1.4774  0.5059
13550TIP3   OH262140   4.584   2.935   0.803 -0.0817  0.1167  0.5190
13550TIP3    H162141   4.619   2.857   0.847  1.0528 -0.8707 -1.9067
13550TIP3    H262142   4.491   2.916   0.792 -0.0395 -0.3908  0.9780
13551TIP3   OH262143   3.901   1.757   4.797  0.5933 -0.4249  0.1185
13551TIP3    H162144   3.897   1.798   4.710 -0.4268 -0.8469 -0.0529
13551TIP3    H262145   3.967   1.688   4.788  2.4845  1.2470  0.4664
13552TIP3   OH262146   0.065   1.179   1.236  0.1348  0.3419  0.0802
13552TIP3    H162147   0.090   1.225   1.156  1.5126  0.2863  0.4565
13552TIP3    H262148  -0.030   1.189   1.240  0.1470  1.1764 -1.0487
13553TIP3   OH262149   1.308   2.757  13.922  0.1085  0.2741  0.5583
13553TIP3    H162150   1.387   2.703  13.918  0.6583  1.0128  1.0553
13553TIP3    H262151   1.282   2.755  14.015 -0.9644 -0.6557  0.2564
13554TIP3   OH262152   1.013   5.209   0.350 -0.1022 -0.2398  0.5067
13554TIP3    H162153   1.078   5.268   0.311 -0.6890  0.6426  0.8435
13554TIP3    H262154   0.955   5.186   0.277 -0.1801  0.0096  0.4920
13555TIP3   OH262155   0.927   3.225  16.290 -0.3075  0.0899  0.0821
13555TIP3    H162156   1.013   3.192  16.263 -0.1265  1.8659 -1.8169
13555TIP3    H262157   0.941   3.259  16.378  0.7221 -0.4501  0.1475
13556TIP3   OH262158   0.364   4.253   5.677 -0.9503  0.5724 -0.1131
13556TIP3    H162159   0.449   4.282   5.643 -0.2132 -0.8826  0.3673
13556TIP3    H262160   0.364   4.158   5.662 -2.2339  0.4563  0.4775
13557TIP3   OH262161   3.539   3.468  11.165  0.0369 -0.0052 -0.0069
13557TIP3    H162162   3.492   3.491  11.085 -0.2957  1.1892  0.5103
13557TIP3    H262163   3.613   3.529  11.167  0.3651 -0.4140  0.2948
13558TIP3   OH262164   3.524   5.970   5.265 -0.0439  0.5290  0.2008
13558TIP3    H162165   3.448   5.912   5.253  0.1442  0.0873  1.0698
13558TIP3    H262166   3.506   6.015   5.347  0.6851  0.3457  0.4642
13559TIP3   OH262167   5.116   1.016   3.371 -0.1687  0.3512  0.3506
13559TIP3    H162168   5.136   0.928   3.338  0.5976  1.2882 -1.8747
13559TIP3    H262169   5.042   1.002   3.430  1.2608 -2.0420  1.7399
13560TIP3   OH262170   0.795   3.886   2.848 -0.6100 -0.2984  0.1126
13560TIP3    H162171   0.849   3.895   2.927  1.0403  1.2983 -1.0853
13560TIP3    H262172   0.829   3.809   2.804 -0.6398 -0.4294  0.3187
13561TIP3   OH262173   2.378   4.532   3.407 -0.3568 -0.2403  0.1666
13561TIP3    H162174   2.388   4.521   3.313 -0.2781 -0.9109  0.2513
13561TIP3    H262175   2.327   4.456   3.435 -1.6042  0.6833  0.4563
13562TIP3   OH262176   5.186   5.909   1.001 -0.1733 -0.2009  0.1263
13562TIP3    H162177   5.218   5.919   1.090  0.8411  0.2779 -0.2807
13562TIP3    H262178   5.103   5.957   1.001  0.2667  0.5939  0.5802
13563TIP3   OH262179   3.006   5.975   5.821 -0.0293 -0.0909  0.0827
13563TIP3    H162180   3.019   5.999   5.913  0.0046  1.8668 -0.3926
13563TIP3    H262181   3.094   5.954   5.789 -0.2534 -2.6193  0.9153
13564TIP3   OH262182   3.643   3.765  16.900  0.0049 -0.2860  0.0088
13564TIP3    H162183   3.715   3.786  16.841 -0.3073  0.5388 -0.1023
13564TIP3    H262184   3.684   3.720  16.974  0.5246 -0.5026 -0.4112
13565TIP3   OH262185   2.571   4.779  12.573 -0.2822 -0.0169 -0.3964
13565TIP3    H162186   2.643   4.716  12.570  0.1578  0.4811 -0.3096
13565TIP3    H262187   2.493   4.724  12.579  0.2139 -0.6321  4.2742
13566TIP3   OH262188   6.077   1.009   3.837 -0.0187  0.1655 -0.5405
13566TIP3    H162189   6.057   1.052   3.754  1.0489 -0.7650 -1.3155
13566TIP3    H262190   6.103   1.080   3.895 -1.0776  0.8674 -0.8939
13567TIP3   OH262191   2.233   3.777  12.576  0.1633 -0.0817 -0.6237
13567TIP3    H162192   2.190   3.699  12.542  0.8088  0.3086 -2.4353
13567TIP3    H262193   2.326   3.754  12.578  0.3477  0.5898 -1.0875
13568TIP3   OH262194   4.998   6.065   0.921 -0.7237  0.2858  0.0766
13568TIP3    H162195   4.907   6.075   0.949 -1.4336 -0.3449 -1.9012
13568TIP3    H262196   5.029   6.155   0.909 -1.7410  0.4937 -1.1734
13569TIP3   OH262197   1.070   1.298   0.266  0.5383 -0.0304 -0.2312
13569TIP3    H162198   1.149   1.299   0.320  1.2096  1.2780 -1.1749
13569TIP3    H262199   1.097   1.255   0.185  0.2481  0.2946 -0.5027
13570TIP3   OH262200   5.749   3.268   5.810 -0.0610  0.1018  0.5718
13570TIP3    H162201   5.716   3.210   5.742 -0.7622  0.6242  0.4604
13570TIP3    H262202   5.681   3.268   5.878 -0.4665  1.4425  0.1920
13571TIP3   OH262203   0.914   1.697  14.079  0.0731  0.8768 -0.1224
13571TIP3    H162204   0.956   1.745  14.150  0.0012 -0.8077  1.1290
13571TIP3    H262205   0.973   1.623  14.062 -0.4516  0.6635 -1.0548
13572TIP3   OH262206   2.111   2.737   5.435  0.2113 -0.0859 -0.2085
13572TIP3    H162207   2.144   2.821   5.402 -0.9722  0.1400 -0.8830
13572TIP3    H262208   2.054   2.705   5.365 -3.3499  0.9362  1.9744
13573TIP3   OH262209   4.188   4.696   5.687 -0.2379  0.3670 -0.5153
13573TIP3    H162210   4.167   4.611   5.647  1.3023  0.4725 -1.6260
13573TIP3    H262211   4.125   4.757   5.648 -0.1463  0.0654 -1.1541
13574TIP3   OH262212   2.750   0.059  11.469 -0.5626 -0.0975  0.0704
13574TIP3    H162213   2.769   0.027  11.558 -3.2062 -1.6079  0.2166
13574TIP3    H262214   2.787  -0.008  11.412  0.2268  0.3352  0.0708
13575TIP3   OH262215   4.505   2.096  11.889 -1.0426 -0.2227  0.0105
13575TIP3    H162216   4.600   2.109  11.884 -0.9549 -0.3176  1.2672
13575TIP3    H262217   4.471   2.142  11.812 -0.2305  2.2424  1.0248
13576TIP3   OH262218   2.053   2.393   4.486 -0.3621  0.6656 -0.6665
13576TIP3    H162219   2.128   2.451   4.499 -0.0095 -0.0538  0.7918
13576TIP3    H262220   2.070   2.349   4.403  1.4828 -0.3737  0.1909
13577TIP3   OH262221   6.533   2.985   5.279  0.3624  0.4252 -0.7325
13577TIP3    H162222   6.541   2.953   5.189 -0.1003  0.5194 -0.8095
13577TIP3    H262223   6.606   2.945   5.325 -0.9417 -1.8708 -0.4938
13578TIP3   OH262224   5.909   3.659  12.378 -0.0148  0.1446 -0.1839
13578TIP3    H162225   5.976   3.721  12.407 -0.9505  0.6591  0.9711
13578TIP3    H262226   5.834   3.714  12.354  0.2221 -0.3703 -2.2453
13579TIP3   OH262227   5.542   2.774  12.259  0.6428 -0.2671 -0.0882
13579TIP3    H162228   5.527   2.861  12.295 -2.8115 -0.1214 -1.4638
13579TIP3    H262229   5.596   2.788  12.182 -0.6059  0.8687 -0.8110
13580TIP3   OH262230   6.016   2.519   0.777  0.1396 -0.4244 -0.3294
13580TIP3    H162231   6.010   2.448   0.714 -3.5144 -2.0020  1.5324
13580TIP3    H262232   5.952   2.584   0.747 -1.0738 -0.8421  1.2554
13581TIP3   OH262233   3.998   4.107  14.826 -0.5437  0.0733 -0.1145
13581TIP3    H162234   4.040   4.042  14.768  0.3756 -0.2905  0.9271
13581TIP3    H262235   3.918   4.064  14.856 -0.9555  0.2073 -0.9761
13582TIP3   OH262236   2.481   0.691  15.669  0.0633 -0.1864  0.2281
13582TIP3    H162237   2.559   0.662  15.715  0.7087  3.2570  1.5534
13582TIP3    H262238   2.512   0.755  15.606 -1.5018 -0.3259 -0.7498
13583TIP3   OH262239   0.420   1.648  13.505 -0.4803 -0.7042  0.5005
13583TIP3    H162240   0.455   1.677  13.589  1.5813 -0.3719 -0.4321
13583TIP3    H262241   0.381   1.727  13.467  0.3944 -0.3720  0.2759
13584TIP3   OH262242   1.090   0.877  15.921 -0.6910 -0.0777  0.7681
13584TIP3    H162243   1.118   0.888  16.011 -0.0531 -2.8471  1.0013
13584TIP3    H262244   0.995   0.879  15.925 -0.6642  0.8995  1.2964
13585TIP3   OH262245   1.349   2.570  12.359  0.7514 -0.0833 -0.2645
13585TIP3    H162246   1.343   2.478  12.332  0.2567 -0.5227  1.2555
13585TIP3    H262247   1.298   2.575  12.440  1.3595  1.3804  0.0603
13586TIP3   OH262248   0.025   4.085   4.011 -0.0319  0.4680 -0.1705
13586TIP3    H162249  -0.056   4.074   3.960  0.3013  1.0430 -0.8382
13586TIP3    H262250   0.030   4.005   4.064 -0.8694  0.2761 -0.3552
13587TIP3   OH262251   3.353   3.131   4.603 -0.2982  0.2142 -0.0782
13587TIP3    H162252   3.426   3.181   4.567 -0.3920  1.5607  1.4888
13587TIP3    H262253   3.394   3.069   4.664 -0.3958  0.2266 -0.0004
13588TIP3   OH262254   5.916   2.765   4.978 -0.4530 -1.0459  0.0451
13588TIP3    H162255   6.004   2.761   5.015 -0.2592  0.4238 -0.1756
13588TIP3    H262256   5.887   2.855   4.995 -1.5775 -1.2552 -0.6329
13589TIP3   OH262257   6.392   5.701   1.063 -0.3954 -0.3781  0.6365
13589TIP3    H162258   6.360   5.621   1.021  1.5751 -0.8480 -0.0813
13589TIP3    H262259   6.374   5.770   0.999  1.3786 -0.8885 -0.4937
13590TIP3   OH262260   5.034   0.218  11.661 -0.1795 -0.0907  0.3942
13590TIP3    H162261   4.953   0.268  11.673 -0.6870 -0.6164 -0.7036
13590TIP3    H262262   5.098   0.261  11.719 -1.1617  0.4973  1.0659
13591TIP3   OH262263   3.673   6.140   0.821 -0.2314 -0.2315  0.0636
13591TIP3    H162264   3.743   6.084   0.854  0.1553  0.6803  0.8436
13591TIP3    H262265   3.692   6.227   0.858 -2.7137 -0.3192  1.7859
13592TIP3   OH262266   4.977   0.985   5.137  0.1949 -0.4851  0.1532
13592TIP3    H162267   4.900   0.987   5.195 -0.1389 -0.2444 -0.2911
13592TIP3    H262268   4.980   1.072   5.098  0.3358 -0.6881 -0.2944
13593TIP3   OH262269   2.520   0.242   4.419  0.6934  0.0665  0.1777
13593TIP3    H162270   2.505   0.292   4.339 -2.0701 -0.9342 -0.0300
13593TIP3    H262271   2.473   0.290   4.487  0.3910 -0.7371  0.5469
13594TIP3   OH262272   0.554   1.522   2.562  0.0358  0.7675 -0.2208
13594TIP3    H162273   0.468   1.489   2.587 -0.1871  0.6811 -1.0746
13594TIP3    H262274   0.536   1.585   2.492  0.7924 -0.7554 -1.8696
13595TIP3   OH262275   0.966   1.799   1.526  0.2192 -0.2278 -0.8589
13595TIP3    H162276   1.052   1.779   1.492  0.8076 -1.7194  1.2570
13595TIP3    H262277   0.957   1.894   1.518  2.4352  0.0671 -0.3388
13596TIP3   OH262278   0.555   4.023   0.732 -0.1395 -0.1530 -0.2328
13596TIP3    H162279   0.532   4.070   0.652  0.0526  2.9331  1.3711
13596TIP3    H262280   0.475   4.024   0.785  0.2580 -0.4347  0.3865
13597TIP3   OH262281   3.399   5.283  12.215  0.3423  0.2375  0.1970
13597TIP3    H162282   3.325   5.312  12.269 -0.4695 -0.0344 -0.7257
13597TIP3    H262283   3.358   5.233  12.144  1.4110  0.1942 -0.4120
13598TIP3   OH262284   1.701   6.281  16.357  0.0678  0.0871  0.1800
13598TIP3    H162285   1.676   6.196  16.320  0.1867  0.5700 -1.0648
13598TIP3    H262286   1.779   6.306  16.308  0.2243  0.7731  0.7665
13599TIP3   OH262287   0.652   1.776   0.993 -0.1856  0.5862  0.8117
13599TIP3    H162288   0.642   1.781   1.088  0.2723 -0.5962  0.9391
13599TIP3    H262289   0.563   1.785   0.959 -0.3854  0.7335  1.3608
13600TIP3   OH262290   0.955   4.963   4.612 -0.0902 -0.0017  0.1584
13600TIP3    H162291   0.911   4.934   4.532 -1.1514  1.5346  0.1446
13600TIP3    H262292   0.993   4.883   4.649 -2.2481 -1.2875 -0.2396
13601TIP3   OH262293   0.843   3.287  12.322  0.5469 -0.2311 -0.0185
13601TIP3    H162294   0.757   3.300  12.282  0.1247  1.4542  1.3259
13601TIP3    H262295   0.857   3.364  12.377  2.3689 -1.0620  0.8077
13602TIP3   OH262296   0.398   4.035   5.420  0.2546 -0.1241  0.1257
13602TIP3    H162297   0.424   3.977   5.492  1.5156 -1.0817 -1.0551
13602TIP3    H262298   0.479   4.081   5.396 -0.3633  0.8852 -0.0669
13603TIP3   OH262299   5.311   1.986  11.333  0.0392 -0.0945  0.3704
13603TIP3    H162300   5.380   1.953  11.392  0.6992  1.0556  0.2656
13603TIP3    H262301   5.230   1.951  11.370  0.2835  1.5331  2.6940
13604TIP3   OH262302   1.770   4.500   4.737 -0.2234  0.6993 -0.0160
13604TIP3    H162303   1.801   4.561   4.803  0.4365  0.0618  0.2708
13604TIP3    H262304   1.848   4.477   4.686 -0.3235 -0.4244  0.3053
13605TIP3   OH262305   1.564   3.340  12.199  0.7362  0.2336  0.5133
13605TIP3    H162306   1.489   3.291  12.167  1.1632  0.6266 -1.2117
13605TIP3    H262307   1.535   3.431  12.200  1.6244  0.6301 -1.8458
13606TIP3   OH262308   5.367   2.716   2.602  0.6508  0.2005 -0.4318
13606TIP3    H162309   5.437   2.722   2.537  1.5409  0.3017  0.5148
13606TIP3    H262310   5.345   2.807   2.623  2.8811  0.2708  2.0156
13607TIP3   OH262311   3.567   5.438   2.654 -0.0259  0.3606 -0.6912
13607TIP3    H162312   3.650   5.456   2.698  0.4889 -2.6552 -0.1917
13607TIP3    H262313   3.514   5.392   2.720 -0.0933 -2.2494 -2.3900
13608TIP3   OH262314   4.120   5.095   5.076  0.3045 -0.1636  0.4640
13608TIP3    H162315   4.026   5.112   5.078  0.0986 -0.9617 -1.0473
13608TIP3    H262316   4.158   5.175   5.039  0.0396 -0.4116 -0.3736
13609TIP3   OH262317   6.091   3.402  15.162 -0.0790 -0.3734 -0.0203
13609TIP3    H162318   6.134   3.488  15.157 -0.8885  0.0384 -0.0191
13609TIP3    H262319   5.998   3.422  15.174 -0.7927 -1.1714 -3.3414
13610TIP3   OH262320   0.485   4.290   4.439  0.0898 -0.3671  0.2968
13610TIP3    H162321   0.437   4.371   4.421 -0.5657 -0.5825  1.0745
13610TIP3    H262322   0.419   4.222   4.439  0.8439 -1.2094 -2.1263
13611TIP3   OH262323   2.199   1.345   2.668  0.1431 -0.1506  0.6955
13611TIP3    H162324   2.152   1.326   2.587 -0.4173  2.8360  0.2181
13611TIP3    H262325   2.255   1.268   2.681 -1.4687 -1.7627 -1.2111
13612TIP3   OH262326   6.460   4.631  13.630  0.6979  0.6075 -0.7226
13612TIP3    H162327   6.505   4.688  13.568  0.6652  0.4108 -0.9245
13612TIP3    H262328   6.498   4.545  13.616  1.5409  0.7803  0.3379
13613TIP3   OH262329   2.491   6.202   1.136  0.3382  0.1592 -0.4821
13613TIP3    H162330   2.552   6.273   1.157  1.1495 -0.3210 -1.2028
13613TIP3    H262331   2.434   6.240   1.069  0.8956  0.0788 -1.0123
13614TIP3   OH262332   0.942   4.052   2.324 -0.2854 -0.1813  0.0299
13614TIP3    H162333   0.907   3.983   2.380 -0.6094  0.6769  0.9174
13614TIP3    H262334   0.990   4.110   2.384 -1.2885  1.1833 -0.4325
13615TIP3   OH262335   5.827   1.269   2.402  0.2306 -0.2905 -0.0240
13615TIP3    H162336   5.734   1.275   2.384  0.0141  1.5696  1.4321
13615TIP3    H262337   5.837   1.306   2.490  2.2852 -0.8515  0.0368
13616TIP3   OH262338   4.746   1.578  16.609 -0.4764  0.5122 -0.2227
13616TIP3    H162339   4.757   1.598  16.702 -0.8112  0.9942 -0.2801
13616TIP3    H262340   4.654   1.553  16.601 -0.4652  0.5390 -0.4329
13617TIP3   OH262341   2.064   0.395   0.863  0.2894 -0.0795  0.3208
13617TIP3    H162342   2.137   0.334   0.851  0.7594  0.5831 -0.3152
13617TIP3    H262343   2.104   0.472   0.903 -0.1988  0.0188  0.6273
13618TIP3   OH262344   3.470   1.760  15.451  0.5852  0.5090 -0.1880
13618TIP3    H162345   3.412   1.734  15.523  1.7875 -2.2494 -0.0892
13618TIP3    H262346   3.532   1.821  15.492 -1.2799  2.3442  0.0351
13619TIP3   OH262347   4.815   6.721   0.204 -0.0800  0.1660 -0.1272
13619TIP3    H162348   4.733   6.672   0.197 -0.1322  0.3659 -1.1088
13619TIP3    H262349   4.863   6.698   0.124  0.5148  0.6079  0.0978
13620TIP3   OH262350   5.993   3.761   0.095  0.0401 -0.2465  0.0001
13620TIP3    H162351   6.070   3.705   0.104 -0.9084 -1.8268 -1.3378
13620TIP3    H262352   5.936   3.735   0.167  0.1255 -0.1096  0.1184
13621TIP3   OH262353   3.454   5.894   6.028 -0.0188 -0.1462  0.1933
13621TIP3    H162354   3.438   5.973   5.976  1.7386 -0.5343 -1.0092
13621TIP3    H262355   3.392   5.901   6.101  1.3315  3.3481  1.2524
13622TIP3   OH262356   1.120   1.509  15.490 -0.3155  0.2903  0.4280
13622TIP3    H162357   1.079   1.423  15.497  0.9659 -0.4183 -0.3596
13622TIP3    H262358   1.127   1.525  15.396  2.0187 -0.0754  0.4712
13623TIP3   OH262359   4.857   5.006   1.610  0.1528  0.1644  0.0361
13623TIP3    H162360   4.831   5.098   1.613  1.2733  0.4981  0.1759
13623TIP3    H262361   4.923   4.999   1.679  0.3432 -0.6601 -0.2307
13624TIP3   OH262362   6.431   5.375   2.164  0.2744 -0.3869 -0.4538
13624TIP3    H162363   6.492   5.341   2.230  0.4188  0.0705 -0.3504
13624TIP3    H262364   6.466   5.343   2.081  0.7357 -0.0113 -0.4071
13625TIP3   OH262365   2.561   3.155  13.456 -0.1375  0.0711 -0.9876
13625TIP3    H162366   2.632   3.182  13.514 -0.0753 -0.1346 -0.9689
13625TIP3    H262367   2.594   3.077  13.412  0.4343  1.1085 -2.4732
13626TIP3   OH262368   2.313   4.339   3.186 -0.1417  0.2682  1.2145
13626TIP3    H162369   2.334   4.246   3.176  0.1608  0.5322 -1.5627
13626TIP3    H262370   2.376   4.384   3.130 -1.1634  2.0304  1.4031
13627TIP3   OH262371   3.327   2.397  13.982  0.2518 -0.2243  0.4749
13627TIP3    H162372   3.283   2.313  13.997 -0.2161 -0.8472 -3.3370
13627TIP3    H262373   3.276   2.460  14.032 -1.0697 -1.8452  1.2583
13628TIP3   OH262374   5.602   0.886  12.398  0.1428 -0.4722 -0.5434
13628TIP3    H162375   5.680   0.857  12.351  2.1575  0.3585  2.0400
13628TIP3    H262376   5.549   0.930  12.332  2.0697 -0.6555 -2.3068
13629TIP3   OH262377   1.987   2.963   3.531 -0.0143 -0.0571  0.3191
13629TIP3    H162378   2.031   3.013   3.463  0.2271 -1.3968 -0.5574
13629TIP3    H262379   2.049   2.963   3.604 -0.8274  2.5181  1.1289
13630TIP3   OH262380   6.449   3.369   4.797  0.3994 -0.5561  0.2160
13630TIP3    H162381   6.426   3.426   4.870 -0.9955 -0.6172 -0.1432
13630TIP3    H262382   6.430   3.281   4.829  2.0717 -0.8111  0.5928
13631TIP3   OH262383   4.803   3.261  16.923  0.7325  0.3921 -0.4266
13631TIP3    H162384   4.843   3.217  16.998  0.1826  0.6238  0.0108
13631TIP3    H262385   4.710   3.241  16.930  0.7257  0.0989 -1.2677
13632TIP3   OH262386   6.642   5.936   0.846 -0.0951  0.4330 -0.5053
13632TIP3    H162387   6.655   5.983   0.928  1.8924  0.4830 -0.8046
13632TIP3    H262388   6.631   6.004   0.780 -0.3838  0.4211 -0.4682
13633TIP3   OH262389   6.291   4.959  11.489 -0.6754 -0.3643  0.5266
13633TIP3    H162390   6.375   4.997  11.517 -1.1124  0.4161  0.7916
13633TIP3    H262391   6.316   4.889  11.430  0.3241 -2.2453  2.9793
13634TIP3   OH262392   6.567   6.051  15.398  0.3511  0.7691 -0.1712
13634TIP3    H162393   6.497   5.985  15.398  0.6284  0.4611  0.9559
13634TIP3    H262394   6.632   6.018  15.336 -0.1881  0.7276 -0.7216
13635TIP3   OH262395   2.788   5.959  16.666 -0.0734 -0.1927 -0.2810
13635TIP3    H162396   2.832   5.917  16.593  0.4464  0.1717 -0.1870
13635TIP3    H262397   2.746   5.888  16.714 -0.4984 -0.4167 -0.9856
13636TIP3   OH262398   6.594   5.029   6.136 -0.7816  0.0539  0.0593
13636TIP3    H162399   6.542   5.109   6.122 -2.1121 -0.9307 -0.9022
13636TIP3    H262400   6.556   4.989   6.213 -2.2731 -1.2388 -1.2816
13637TIP3   OH262401   2.410   1.443   2.367 -0.5824  0.1980 -0.4636
13637TIP3    H162402   2.436   1.356   2.395 -1.5569 -0.3988 -1.3455
13637TIP3    H262403   2.316   1.437   2.354 -1.1238  2.0597  1.8480
13638TIP3   OH262404   0.333   0.536   1.684  0.2216 -0.1727 -0.1929
13638TIP3    H162405   0.262   0.581   1.728 -0.4426  0.9440 -2.3034
13638TIP3    H262406   0.305   0.528   1.593  2.4937 -0.2955 -0.9584
13639TIP3   OH262407   4.868   3.582  15.553 -0.1465 -0.0403  0.4138
13639TIP3    H162408   4.870   3.552  15.462 -1.4457 -1.5114  0.8222
13639TIP3    H262409   4.960   3.592  15.577  0.2849 -1.3110 -0.5529
13640TIP3   OH262410   1.420   0.552  14.880 -0.9403  0.1852  0.3961
13640TIP3    H162411   1.491   0.502  14.839 -1.9683 -1.1792  0.2129
13640TIP3    H262412   1.445   0.556  14.973 -0.0815  0.6996  0.1543
13641TIP3   OH262413   4.713   4.235   1.634 -0.0394 -0.5342 -0.6471
13641TIP3    H162414   4.785   4.285   1.673 -0.7999 -0.4621  0.7262
13641TIP3    H262415   4.690   4.283   1.555  0.1041  0.5613 -0.0436
13642TIP3   OH262416   0.672   4.027  13.752  0.2273 -0.5530  1.0160
13642TIP3    H162417   0.627   4.111  13.749  1.1810 -0.0501  0.2163
13642TIP3    H262418   0.629   3.974  13.685 -0.1408 -0.5818  1.2748
13643TIP3   OH262419   1.752   5.346  12.305 -0.1751 -0.3875 -0.0977
13643TIP3    H162420   1.796   5.431  12.294 -0.3804 -0.4156 -1.2148
13643TIP3    H262421   1.821   5.282  12.288  1.0139 -0.6210  4.2681
13644TIP3   OH262422   3.206   4.681  10.808  0.4052  1.1027  0.2363
13644TIP3    H162423   3.264   4.716  10.741  0.5781 -0.6775 -0.5810
13644TIP3    H262424   3.121   4.722  10.789  0.7196  1.5128 -0.3257
13645TIP3   OH262425   3.807   6.489   5.986 -0.6588  0.3776  0.5030
13645TIP3    H162426   3.866   6.557   5.953 -1.1258  0.9984  0.9113
13645TIP3    H262427   3.786   6.517   6.075  0.0714 -0.9348  1.1125
13646TIP3   OH262428   6.415   2.779  11.731  0.0766  0.0215 -0.4220
13646TIP3    H162429   6.470   2.701  11.741  0.2906  0.3895  1.8136
13646TIP3    H262430   6.373   2.767  11.646 -1.6856 -3.6825  0.7551
13647TIP3   OH262431   4.022   6.033   0.259  0.2915 -0.0441 -0.2836
13647TIP3    H162432   3.958   6.072   0.319 -1.9856 -0.6392 -2.1811
13647TIP3    H262433   3.971   6.008   0.183  2.6604 -1.5614 -1.4831
13648TIP3   OH262434   1.736   5.840  12.377 -0.2412  0.3805 -0.3928
13648TIP3    H162435   1.778   5.862  12.460 -1.2768 -0.3458  0.3452
13648TIP3    H262436   1.783   5.763  12.345 -0.9780 -0.4421  0.4402
13649TIP3   OH262437   3.628   0.236  13.954 -0.6668  0.3912  0.1021
13649TIP3    H162438   3.571   0.237  13.877 -1.4714  0.2892  0.6789
13649TIP3    H262439   3.716   0.233  13.919 -0.9818  1.4143 -0.8347
13650TIP3   OH262440   0.206   2.080   1.599 -0.2816 -0.0471  0.3765
13650TIP3    H162441   0.150   2.157   1.605 -0.0952  0.1339 -0.1878
13650TIP3    H262442   0.176   2.023   1.670  0.2722  0.9931  1.4678
13651TIP3   OH262443   2.717   4.378   4.638 -0.0996  0.6941 -0.0061
13651TIP3    H162444   2.754   4.290   4.650 -0.3153  0.7942  1.4783
13651TIP3    H262445   2.632   4.375   4.682  0.2518  1.8882  0.7919
13652TIP3   OH262446   5.991   2.406  11.244  0.2383  0.0926  0.4694
13652TIP3    H162447   5.953   2.443  11.164 -1.2553 -2.3098 -0.0536
13652TIP3    H262448   6.078   2.377  11.217 -0.2104 -0.5982 -0.3021
13653TIP3   OH262449   3.579   3.999  12.961  0.0616 -0.3035 -0.4181
13653TIP3    H162450   3.535   4.084  12.957  1.2243  0.2725 -1.4994
13653TIP3    H262451   3.511   3.938  12.991 -0.3856  1.2465  2.0551
13654TIP3   OH262452   1.865   5.277  16.598 -0.1917 -0.4092 -0.3180
13654TIP3    H162453   1.930   5.276  16.668 -0.0159 -1.0294 -0.4821
13654TIP3    H262454   1.895   5.210  16.537  0.1193  0.7052 -1.4205
13655TIP3   OH262455   6.427   0.908   5.532  0.0569  0.2943  0.1432
13655TIP3    H162456   6.412   0.918   5.438  0.5182  1.3948  0.1737
13655TIP3    H262457   6.445   0.814   5.543 -0.1663  0.1203 -0.8335
13656TIP3   OH262458   0.007   3.400  15.436 -0.1479  0.1601 -0.1513
13656TIP3    H162459   0.058   3.327  15.401  0.7551 -0.2836  1.9644
13656TIP3    H262460  -0.019   3.450  15.358  0.9237 -1.2856 -1.5059
13657TIP3   OH262461   3.579   3.517   0.520  0.5664  0.5168  0.1697
13657TIP3    H162462   3.646   3.584   0.507  0.8673  0.6135  1.9306
13657TIP3    H262463   3.527   3.519   0.440  2.0930  1.0874 -0.8456
13658TIP3   OH262464   3.450   2.660   2.190  0.4230 -0.3435  0.3333
13658TIP3    H162465   3.465   2.579   2.239 -1.4066 -0.6801  0.4358
13658TIP3    H262466   3.489   2.728   2.244  0.7812 -1.0047  0.9308
13659TIP3   OH262467   6.739   5.982  15.214  0.2639  0.1953  0.9703
13659TIP3    H162468   6.812   6.041  15.233  1.0485  0.0593 -1.3448
13659TIP3    H262469   6.762   5.940  15.131 -1.1693 -1.9510  1.5646
13660TIP3   OH262470   2.309   0.046  16.731  0.0785  0.4118 -0.7761
13660TIP3    H162471   2.320  -0.049  16.736 -1.3638  0.1434 -1.9784
13660TIP3    H262472   2.310   0.075  16.822 -0.5703 -0.8957 -0.3340
13661TIP3   OH262473   0.915   2.280  13.337  0.3586 -0.0880  0.0282
13661TIP3    H162474   0.825   2.311  13.345 -0.1707 -1.0154 -1.8168
13661TIP3    H262475   0.912   2.188  13.363 -0.0206 -1.1383 -3.2350
13662TIP3   OH262476   2.853   0.870   3.969 -0.3283  0.3640  0.7498
13662TIP3    H162477   2.897   0.873   4.053  1.7080  0.4778 -0.2628
13662TIP3    H262478   2.892   0.941   3.918 -0.1192 -0.8614 -0.9059
13663TIP3   OH262479   5.446   5.833  11.559 -0.2621  0.2260 -0.3753
13663TIP3    H162480   5.404   5.883  11.488 -0.4092 -0.1207 -0.5333
13663TIP3    H262481   5.490   5.900  11.611 -0.2249  0.4953 -0.7443
13664TIP3   OH262482   0.260   6.153  17.247  0.0645 -0.1503  0.4720
13664TIP3    H162483   0.240   6.135  17.155 -1.8622  1.1287  0.5710
13664TIP3    H262484   0.315   6.080  17.275 -1.1534 -1.7455 -1.1056
13665TIP3   OH262485   4.885   4.548   4.987 -0.2929 -0.5319  0.4264
13665TIP3    H162486   4.945   4.596   4.931  0.7788 -1.9122  0.3371
13665TIP3    H262487   4.845   4.614   5.044  1.9876  0.3251  1.1102
13666TIP3   OH262488   5.541   2.394  14.119 -0.0249  0.3158 -0.2453
13666TIP3    H162489   5.469   2.441  14.162 -1.2495 -1.4758 -0.2053
13666TIP3    H262490   5.581   2.344  14.190 -0.7932 -1.1272 -0.7854
13667TIP3   OH262491   1.900   3.338  14.286 -0.2284  0.0200  0.2270
13667TIP3    H162492   1.989   3.325  14.255  0.5669  1.8928  1.5203
13667TIP3    H262493   1.849   3.356  14.206  1.1099  1.5569 -0.3525
13668TIP3   OH262494   3.279   1.978   0.877 -0.6488 -0.5765  0.0047
13668TIP3    H162495   3.312   1.899   0.835 -0.0244  0.2536 -1.1531
13668TIP3    H262496   3.358   2.028   0.899 -1.0145 -0.4920  1.1781
13669TIP3   OH262497   2.831   3.788  13.141 -0.0159 -0.0873  0.3360
13669TIP3    H162498   2.758   3.847  13.162 -0.1691 -1.4241  4.5338
13669TIP3    H262499   2.789   3.705  13.119  0.2345 -0.1112 -0.0609
13670TIP3   OH262500   1.180   2.688   2.204  0.2806 -0.4818 -0.5228
13670TIP3    H162501   1.222   2.769   2.234 -2.5921  0.3791  1.6932
13670TIP3    H262502   1.197   2.625   2.274 -0.4308 -0.6845 -0.5231
13671TIP3   OH262503   1.626   6.185  14.187  0.2896 -0.2343 -0.0996
13671TIP3    H162504   1.639   6.167  14.094  1.4442  1.0952 -0.2268
13671TIP3    H262505   1.690   6.128  14.231  1.6834  1.0824 -0.3170
13672TIP3   OH262506   0.769   3.616   2.532 -0.1309 -0.3361  0.1122
13672TIP3    H162507   0.810   3.572   2.458 -1.0841 -1.9419  0.4752
13672TIP3    H262508   0.763   3.548   2.600 -0.9290  0.5802  0.9965
13673TIP3   OH262509   6.065   2.402   2.790  0.3664 -0.2634 -0.2699
13673TIP3    H162510   6.086   2.381   2.881 -0.3949  0.5412  0.1028
13673TIP3    H262511   6.046   2.496   2.791 -1.5479 -0.6054 -0.8954
13674TIP3   OH262512   4.574   4.941   2.236  0.1275 -0.8207  0.7041
13674TIP3    H162513   4.542   5.015   2.287  0.8047 -0.3907  0.5268
13674TIP3    H262514   4.502   4.878   2.236  0.3307 -1.1287  2.7440
13675TIP3   OH262515   6.450   3.865   0.371  0.3457 -0.0723  0.5875
13675TIP3    H162516   6.421   3.795   0.312  1.7888  0.5821 -0.9878
13675TIP3    H262517   6.499   3.925   0.314  1.2373  0.9357  2.3495
13676TIP3   OH262518   4.341   5.142  11.624  0.0690  0.1664  0.7739
13676TIP3    H162519   4.366   5.052  11.603 -0.8757  0.1079 -0.2487
13676TIP3    H262520   4.372   5.193  11.549 -1.7037  0.2624  0.0539
13677TIP3   OH262521   1.633   5.969   4.129  0.5904  0.1331 -0.4574
13677TIP3    H162522   1.567   5.969   4.061 -1.5631 -0.6579  1.5029
13677TIP3    H262523   1.626   6.055   4.170  0.2088 -0.2164  0.2364
13678TIP3   OH262524   2.921   1.474   0.572  0.7337 -0.2824  0.4474
13678TIP3    H162525   2.834   1.439   0.550  0.9556 -1.0964  0.8242
13678TIP3    H262526   2.977   1.446   0.500  1.0927 -1.4727  1.1588
13679TIP3   OH262527   3.096   3.219  12.978  0.1275 -0.1526  0.3023
13679TIP3    H162528   3.134   3.307  12.970  2.6174 -1.3111 -2.1941
13679TIP3    H262529   3.156   3.173  13.037 -0.2760 -0.6122  0.3551
13680TIP3   OH262530   4.108   2.943  15.155  0.4561 -0.1205  0.0615
13680TIP3    H162531   4.171   2.872  15.168 -2.2378 -3.1503 -1.8515
13680TIP3    H262532   4.103   2.985  15.240  4.0929 -0.4415  0.6077
13681TIP3   OH262533   0.281   2.366  15.484  0.1606  0.2795 -0.3054
13681TIP3    H162534   0.367   2.399  15.458  1.1631 -1.9218  0.0108
13681TIP3    H262535   0.271   2.283  15.436 -0.0828 -1.4222  2.4369
13682TIP3   OH262536   4.661   5.950  13.553 -0.4969 -0.3275  0.4176
13682TIP3    H162537   4.627   5.930  13.466  1.2095 -1.4027 -0.0488
13682TIP3    H262538   4.701   6.036  13.544 -1.4489  0.1303  0.4921
13683TIP3   OH262539   4.957   2.767   1.060  0.8217  0.3896  0.2648
13683TIP3    H162540   4.879   2.716   1.083  1.2716 -0.2118  0.4606
13683TIP3    H262541   4.945   2.850   1.107  0.7855 -0.0839  1.1029
13684TIP3   OH262542   0.615   0.779  14.127  0.0739 -0.1779 -0.3776
13684TIP3    H162543   0.704   0.748  14.110  1.2158  2.1184  0.8977
13684TIP3    H262544   0.626   0.870  14.154 -2.5498 -0.2267  1.2377
13685TIP3   OH262545   2.480   3.493  12.240  0.5643 -0.1672 -0.2424
13685TIP3    H162546   2.401   3.449  12.272 -0.0925  0.6343 -0.7338
13685TIP3    H262547   2.479   3.578  12.282  0.0834  0.6185 -1.7672
13686TIP3   OH262548   0.988   3.662   2.797  0.2292  0.2603 -0.8123
13686TIP3    H162549   1.054   3.609   2.753  0.4647  0.3613 -0.5835
13686TIP3    H262550   0.955   3.605   2.867  0.8611  0.6001 -0.2299
13687TIP3   OH262551   4.281   0.151  12.586 -0.4583  0.4420  0.4877
13687TIP3    H162552   4.340   0.094  12.536 -2.2450  1.2582 -2.8561
13687TIP3    H262553   4.199   0.102  12.590 -1.1535  1.5565  0.1388
13688TIP3   OH262554   4.747   1.336   3.327  0.4119  0.6422 -0.3542
13688TIP3    H162555   4.661   1.377   3.313  0.6337  1.0187 -0.6477
13688TIP3    H262556   4.798   1.404   3.371  0.8772  0.7930 -1.1067
13689TIP3   OH262557   4.047   4.328  14.984  0.2002  0.0205  0.0011
13689TIP3    H162558   4.005   4.406  14.949  0.0521 -0.7118 -1.5078
13689TIP3    H262559   4.019   4.257  14.927  2.0452 -0.7893  0.0359
13690TIP3   OH262560   4.408   2.676  14.263  0.4258 -0.0600  0.2132
13690TIP3    H162561   4.453   2.678  14.347 -1.6199 -0.3308  1.3793
13690TIP3    H262562   4.475   2.648  14.200  1.3315 -2.7074  2.1995
13691TIP3   OH262563   4.113   0.323   4.678  0.3835  0.4004 -0.5745
13691TIP3    H162564   4.190   0.294   4.726  0.9514 -1.4971 -2.5214
13691TIP3    H262565   4.145   0.344   4.590 -0.8721  2.3985 -0.6412
13692TIP3   OH262566   2.988   1.828   2.744 -0.1557  0.6819 -0.2722
13692TIP3    H162567   2.919   1.797   2.685 -0.1127  1.9704 -1.0489
13692TIP3    H262568   2.970   1.785   2.827  0.0119 -1.5191 -1.2816
13693TIP3   OH262569   3.547   4.823   5.370  0.1603  0.0052 -0.4453
13693TIP3    H162570   3.515   4.912   5.387  0.0726 -0.3043  1.1424
13693TIP3    H262571   3.482   4.785   5.311 -0.9400  0.3244  0.5170
13694TIP3   OH262572   1.050   4.807   1.175 -0.4147  0.0052 -0.1705
13694TIP3    H162573   1.114   4.768   1.116  0.3962  0.8975  0.1042
13694TIP3    H262574   1.041   4.744   1.247  0.5761  0.1331  0.0713
13695TIP3   OH262575   0.276   3.669  13.856 -0.4094 -0.5394 -0.7761
13695TIP3    H162576   0.199   3.622  13.823 -1.6498  1.7846 -1.4084
13695TIP3    H262577   0.244   3.716  13.932  0.5554 -0.0330 -0.6719
13696TIP3   OH262578   1.203   0.652   6.598 -0.4384  0.4188  0.3422
13696TIP3    H162579   1.126   0.684   6.645 -0.0090  0.5685  0.9657
13696TIP3    H262580   1.224   0.721   6.535 -0.2069  0.8477  0.8824
13697TIP3   OH262581   0.760   3.727   5.064  0.2052  0.0413 -0.2438
13697TIP3    H162582   0.732   3.804   5.014 -0.0746  0.0787 -0.0339
13697TIP3    H262583   0.701   3.657   5.036  0.5483 -0.1308 -0.5355
13698TIP3   OH262584   4.337   3.705  13.780  0.3925  0.3949 -0.1000
13698TIP3    H162585   4.428   3.733  13.789  0.8218 -0.5756 -1.2192
13698TIP3    H262586   4.329   3.679  13.689 -0.6209 -0.8473  0.3213
13699TIP3   OH262587   0.345   4.723   2.082 -0.2480 -0.3828 -0.0469
13699TIP3    H162588   0.414   4.782   2.114  0.2592 -0.6921 -0.5536
13699TIP3    H262589   0.313   4.765   2.002  1.6992 -1.8932 -1.6964
13700TIP3   OH262590   6.607   4.587  17.148  0.0311 -0.0893 -0.0099
13700TIP3    H162591   6.680   4.646  17.130  0.2037 -0.6990 -1.4644
13700TIP3    H262592   6.530   4.633  17.113 -0.0820 -0.0183  0.3322
13701TIP3   OH262593   6.365   4.493   1.297  0.2776 -0.5826 -0.1074
13701TIP3    H162594   6.419   4.571   1.282  0.2981 -0.6585 -0.4406
13701TIP3    H262595   6.427   4.420   1.296  0.4076 -0.5250  1.2272
13702TIP3   OH262596   5.520   6.729   2.518  0.1281  0.2084 -0.1598
13702TIP3    H162597   5.478   6.775   2.446 -1.3731 -0.1254  0.4735
13702TIP3    H262598   5.519   6.637   2.491  0.8536  0.2370 -0.3166
13703TIP3   OH262599   6.425   5.157   1.578  0.4580  0.2719 -0.5950
13703TIP3    H162600   6.351   5.099   1.593  0.9516 -0.8514 -2.1421
13703TIP3    H262601   6.398   5.241   1.613 -2.8930  0.8010 -3.8108
13704TIP3   OH262602   3.628   6.049  15.593 -0.4400 -0.5505  0.4240
13704TIP3    H162603   3.615   6.086  15.680  0.2362 -1.5180  0.9574
13704TIP3    H262604   3.570   5.972  15.590 -0.2311 -0.7009  0.1431
13705TIP3   OH262605   2.227   2.978   1.862  0.6715  0.2191  0.0785
13705TIP3    H162606   2.314   2.997   1.826  0.7747 -0.3850 -0.0082
13705TIP3    H262607   2.245   2.922   1.938  0.3762  0.3243  0.2247
13706TIP3   OH262608   1.682   1.993   1.915  0.1709 -0.1881 -0.3662
13706TIP3    H162609   1.631   1.916   1.941 -0.3140 -0.2396 -1.3984
13706TIP3    H262610   1.670   2.055   1.986 -1.5294 -0.1221 -0.6706
13707TIP3   OH262611   6.736   4.650   0.163 -0.0392 -0.1636 -0.0188
13707TIP3    H162612   6.792   4.706   0.217 -1.7870  0.6562  1.0410
13707TIP3    H262613   6.649   4.690   0.170 -0.8036 -1.5009 -1.4343
13708TIP3   OH262614   6.589   0.561   0.287 -0.8090  0.3417  0.0888
13708TIP3    H162615   6.590   0.585   0.194  3.4838  2.3103  0.3903
13708TIP3    H262616   6.607   0.467   0.287 -1.4278  0.1992 -1.0527
13709TIP3   OH262617   0.394   2.423  13.144 -0.9265 -0.4789 -0.3534
13709TIP3    H162618   0.429   2.336  13.123 -0.9517 -1.2022  2.3153
13709TIP3    H262619   0.364   2.416  13.234 -1.7255  2.0957 -0.3440
13710TIP3   OH262620   6.638   4.184   2.896 -0.1256 -0.0764  0.3141
13710TIP3    H162621   6.693   4.261   2.912 -0.3676  0.1444  0.0947
13710TIP3    H262622   6.574   4.214   2.831 -0.0235 -0.5547 -0.0070
13711TIP3   OH262623   4.627   2.974   1.715  0.4239  0.2781 -0.4386
13711TIP3    H162624   4.717   2.993   1.691  0.3520 -1.2260 -2.0521
13711TIP3    H262625   4.589   2.932   1.638 -1.1608 -0.6998  0.8050
13712TIP3   OH262626   6.314   5.897   2.295 -0.7423  0.0357  0.0396
13712TIP3    H162627   6.228   5.916   2.258 -0.6715 -0.9432 -0.6411
13712TIP3    H262628   6.344   5.818   2.250  0.8191  0.7337 -0.2392
13713TIP3   OH262629   5.258   6.359  13.394 -0.1587  0.0398  0.2775
13713TIP3    H162630   5.212   6.409  13.462 -0.9260 -0.2881  0.0164
13713TIP3    H262631   5.229   6.268  13.408 -1.4506  0.1556 -1.3424
13714TIP3   OH262632   6.517   3.267   5.258  0.0548 -0.1163 -0.8711
13714TIP3    H162633   6.513   3.178   5.294 -0.1356  0.6385  1.1253
13714TIP3    H262634   6.576   3.260   5.183  0.3821 -1.8440 -0.5040
13715TIP3   OH262635   1.183   2.451   0.159  0.0628  0.5509 -0.0728
13715TIP3    H162636   1.137   2.367   0.166 -0.3613  0.9150  2.4792
13715TIP3    H262637   1.270   2.433   0.194  0.2119  1.0197 -0.1995
13716TIP3   OH262638   5.626   2.771   0.239 -0.0056  0.4388  0.4180
13716TIP3    H162639   5.631   2.747   0.147  0.3369 -0.3794  0.6379
13716TIP3    H262640   5.561   2.841   0.242 -1.3488 -0.7308 -0.2251
13717TIP3   OH262641   1.085   0.967   2.294 -0.2117 -0.2031 -0.1562
13717TIP3    H162642   1.111   0.988   2.384  0.5403  0.0270 -0.4205
13717TIP3    H262643   1.113   1.043   2.243 -3.1966  1.0403 -0.1972
13718TIP3   OH262644   4.334   5.433   4.243 -0.6711  0.0992  0.0304
13718TIP3    H162645   4.324   5.507   4.183 -1.9552 -1.1902 -1.4237
13718TIP3    H262646   4.273   5.367   4.211  0.3216 -1.5652  1.3693
13719TIP3   OH262647   0.201   5.703   1.158 -0.0041  0.0125 -0.0408
13719TIP3    H162648   0.171   5.635   1.098  0.2670 -0.4259  0.3150
13719TIP3    H262649   0.144   5.694   1.235  1.1547 -0.9892  0.7463
13720TIP3   OH262650   4.287   2.695   4.956  0.1727 -0.7383  0.3246
13720TIP3    H162651   4.358   2.643   4.993  0.1212 -0.1251  1.3068
13720TIP3    H262652   4.314   2.711   4.865  0.6112 -1.6878  0.2789
13721TIP3   OH262653   6.711   4.946   5.887 -0.1130  0.6842 -0.6763
13721TIP3    H162654   6.669   4.996   5.957  0.2599 -1.2395  1.0254
13721TIP3    H262655   6.711   4.855   5.919  0.3825 -0.2255 -3.0441
13722TIP3   OH262656   3.266   2.139  17.217 -0.1571 -0.1885 -0.2009
13722TIP3    H162657   3.357   2.127  17.245 -0.2345 -0.9188 -0.2241
13722TIP3    H262658   3.215   2.109  17.292 -0.3987  1.4845  0.3315
13723TIP3   OH262659   0.395   2.104   2.245 -0.7243 -0.8491  0.3884
13723TIP3    H162660   0.333   2.046   2.200 -0.4507 -0.9665  0.1623
13723TIP3    H262661   0.480   2.082   2.208 -0.5330 -0.7475  0.7644
13724TIP3   OH262662   1.326   5.818   4.050 -0.0906  0.3639  0.4492
13724TIP3    H162663   1.336   5.739   4.103 -0.0976 -0.0243 -0.1239
13724TIP3    H262664   1.273   5.790   3.975 -0.5766  1.0478  0.5325
13725TIP3   OH262665   6.023   1.140  13.000 -0.0807  0.7297 -0.0665
13725TIP3    H162666   6.027   1.053  12.960  0.5139  0.9052 -0.4023
13725TIP3    H262667   5.993   1.124  13.089 -1.3849  0.3288 -0.5536
13726TIP3   OH262668   2.831   0.147   2.170  0.1919  0.5201  0.0400
13726TIP3    H162669   2.825   0.202   2.248 -0.3377  2.1060 -1.0656
13726TIP3    H262670   2.768   0.077   2.185  0.4102  0.5493  1.2105
13727TIP3   OH262671   2.341   5.556  13.178  0.6038 -0.4747  0.2561
13727TIP3    H162672   2.335   5.640  13.133  2.4807 -0.4745 -0.0644
13727TIP3    H262673   2.277   5.563  13.249 -1.7806 -0.1245 -1.7651
13728TIP3   OH262674   4.144   4.565   3.034  0.2039  0.7107  0.2072
13728TIP3    H162675   4.221   4.540   2.982  0.6190 -0.9006  1.4927
13728TIP3    H262676   4.176   4.631   3.094 -0.2933  2.6319 -1.5421
13729TIP3   OH262677   6.775   5.175  14.212  0.7085 -0.0188 -0.3815
13729TIP3    H162678   6.691   5.158  14.169  1.0933 -1.8126 -0.5114
13729TIP3    H262679   6.839   5.178  14.141  1.0146 -0.6372 -0.1421
13730TIP3   OH262680   0.291   5.672   5.478 -0.3237  0.7378 -0.0919
13730TIP3    H162681   0.375   5.718   5.476 -1.3039  2.6201 -0.5692
13730TIP3    H262682   0.234   5.729   5.530 -1.0401 -1.0345  1.1622
13731TIP3   OH262683   2.952   5.105  11.942 -0.5389  0.4038  0.0991
13731TIP3    H162684   2.902   5.123  11.863 -2.6626  0.4396  1.3692
13731TIP3    H262685   2.892   5.126  12.014  0.7812 -1.0438  1.7242
13732TIP3   OH262686   2.330   1.357  16.875 -0.1019  0.0325  0.2816
13732TIP3    H162687   2.329   1.345  16.780  0.5882  1.0993  0.1134
13732TIP3    H262688   2.308   1.272  16.911  0.3727 -0.5760 -0.8318
13733TIP3   OH262689   3.491   3.307   3.478 -0.4158  0.1432 -0.2934
13733TIP3    H162690   3.445   3.243   3.424 -0.3076  1.6390 -2.2517
13733TIP3    H262691   3.582   3.276   3.480 -0.7718 -0.9086  0.6252
13734TIP3   OH262692   1.461   6.815   2.726 -0.5262 -0.2503  0.1278
13734TIP3    H162693   1.538   6.873   2.723 -0.0730 -0.7368  1.5733
13734TIP3    H262694   1.397   6.858   2.670  1.1908 -0.4432 -2.0974
13735TIP3   OH262695   3.508   5.583  14.054 -0.5592  0.2129  0.1181
13735TIP3    H162696   3.437   5.521  14.070 -0.1339 -0.4481 -0.4399
13735TIP3    H262697   3.471   5.669  14.072 -1.5067 -0.1190 -0.1927
13736TIP3   OH262698   2.068   0.084   0.185  0.7753  0.1610  0.2493
13736TIP3    H162699   2.037   0.137   0.259 -0.6393 -1.8481  1.1889
13736TIP3    H262700   2.136   0.028   0.222  0.4607 -0.4551 -0.0856
13737TIP3   OH262701   5.226   3.485   4.693  0.2631 -0.3470 -0.1087
13737TIP3    H162702   5.166   3.512   4.623 -0.7116  0.9597  1.1803
13737TIP3    H262703   5.198   3.396   4.715 -0.4084 -0.2047 -0.3596
13738TIP3   OH262704   5.343   5.662   2.885 -0.2642 -0.0996 -0.8532
13738TIP3    H162705   5.262   5.616   2.863  0.0251 -0.8996 -0.3354
13738TIP3    H262706   5.333   5.684   2.978 -0.0918  0.2284 -0.9135
13739TIP3   OH262707   4.394   6.461  15.487 -0.2168  0.0269 -0.1781
13739TIP3    H162708   4.379   6.470  15.393 -1.7324  1.0937  0.1405
13739TIP3    H262709   4.484   6.428  15.493  0.4372  1.2933 -1.9668
13740TIP3   OH262710   1.563   1.867   6.495  0.0615 -0.5256  0.2795
13740TIP3    H162711   1.497   1.842   6.558  0.5066  1.1981  1.5032
13740TIP3    H262712   1.639   1.813   6.516 -0.5936 -1.7898 -0.4865
13741TIP3   OH262713   4.623   6.135  11.318  0.3645 -0.2417 -0.6882
13741TIP3    H162714   4.710   6.139  11.357 -0.3543  0.6640  0.9146
13741TIP3    H262715   4.598   6.227  11.305  0.7786 -0.4735 -3.9156
13742TIP3   OH262716   2.657   1.570   2.409  0.2264 -0.0888 -0.1951
13742TIP3    H162717   2.684   1.578   2.317 -0.1807 -0.0925 -0.3182
13742TIP3    H262718   2.569   1.533   2.405  1.3464 -3.0980  0.2848
13743TIP3   OH262719   6.402   3.572  13.199 -0.4550  0.3777  0.4045
13743TIP3    H162720   6.479   3.625  13.177 -0.3923 -0.7676 -2.5656
13743TIP3    H262721   6.331   3.610  13.147 -0.8949 -1.1040 -0.1307
13744TIP3   OH262722   2.604   0.478   3.596  0.0270 -0.0328 -0.1862
13744TIP3    H162723   2.509   0.471   3.605 -0.2639  1.4056 -1.7474
13744TIP3    H262724   2.633   0.388   3.578 -1.2233 -0.2720 -1.1235
13745TIP3   OH262725   0.795   0.976   2.630  0.3086  0.2786 -0.5253
13745TIP3    H162726   0.712   1.020   2.643  1.1269  1.6023  0.5014
13745TIP3    H262727   0.785   0.929   2.547 -1.7673 -0.4101  0.0503
13746TIP3   OH262728   3.282   2.707   3.458  0.3199 -0.5140 -0.5991
13746TIP3    H162729   3.283   2.612   3.449  0.2264 -0.6286  0.4943
13746TIP3    H262730   3.371   2.733   3.436  0.2475 -0.8067 -1.2765
13747TIP3   OH262731   0.637   5.671   2.032 -0.1014  0.0037  0.3975
13747TIP3    H162732   0.707   5.724   1.992 -0.2000 -0.1627  0.0012
13747TIP3    H262733   0.558   5.723   2.019 -0.5506 -1.1364 -1.8280
13748TIP3   OH262734   1.621   4.013   0.182 -0.6338 -0.0100 -0.2036
13748TIP3    H162735   1.627   4.017   0.278 -0.4907 -2.4764 -0.0242
13748TIP3    H262736   1.612   3.919   0.163  0.6289  0.2707 -2.6698
13749TIP3   OH262737   6.004   2.218   6.014  0.4741 -0.4141  0.2880
13749TIP3    H162738   6.014   2.196   5.921  0.4956 -0.3036  0.2634
13749TIP3    H262739   6.071   2.284   6.030 -0.0255  0.1279  0.1893
13750TIP3   OH262740   0.789   2.902  13.701  0.0873 -0.5071 -0.2185
13750TIP3    H162741   0.751   2.954  13.773  0.7307  0.0696 -0.2822
13750TIP3    H262742   0.858   2.851  13.742  0.0291 -0.6622 -0.3138
13751TIP3   OH262743   5.965   2.690   5.428  0.2742  0.3548  0.2497
13751TIP3    H162744   5.939   2.601   5.402  2.0471 -0.1468  0.0945
13751TIP3    H262745   5.905   2.747   5.380 -0.7693 -0.7396  0.1976
13752TIP3   OH262746   1.787   6.112   3.679  0.4560 -0.4913 -0.1318
13752TIP3    H162747   1.693   6.130   3.679  0.9074  2.4383 -1.4765
13752TIP3    H262748   1.805   6.077   3.592  0.8416  0.4754 -0.4439
13753TIP3   OH262749   1.551   5.025  13.086  0.2899 -0.4043 -0.4025
13753TIP3    H162750   1.514   4.955  13.032 -1.0182  0.0555 -0.1388
13753TIP3    H262751   1.500   5.022  13.167  1.7664 -0.6344  0.5575
13754TIP3   OH262752   5.079   6.171  10.812  0.1468  0.1802 -0.2534
13754TIP3    H162753   5.032   6.108  10.757 -0.9901  0.3365  0.5030
13754TIP3    H262754   5.035   6.255  10.795 -0.5018  0.1574  1.1591
13755TIP3   OH262755   0.641   6.314   3.250  0.8709  0.2856 -0.2408
13755TIP3    H162756   0.665   6.404   3.228  1.0718  0.1156 -0.7317
13755TIP3    H262757   0.553   6.303   3.215  0.3934  0.6404  0.8124
13756TIP3   OH262758   0.433   3.275   7.030 -0.0059 -0.0289  0.5628
13756TIP3    H162759   0.367   3.235   6.973 -1.0341  1.7672  0.3977
13756TIP3    H262760   0.423   3.231   7.114  0.4283 -1.6000 -0.1739
13757TIP3   OH262761   5.690   4.577   6.979 -0.5398  0.1957  0.0127
13757TIP3    H162762   5.726   4.513   6.918 -0.4155 -2.2099  2.4155
13757TIP3    H262763   5.637   4.525   7.039 -2.2403  2.7011  0.8264
13758TIP3   OH262764   1.931   3.487  15.664  0.1022 -0.3315  0.1344
13758TIP3    H162765   1.996   3.426  15.630  1.6257  1.4156 -0.2022
13758TIP3    H262766   1.867   3.496  15.592  2.4372  2.0955 -1.8376
13759TIP3   OH262767   3.800   5.017   5.718 -0.5649 -0.4759  0.4806
13759TIP3    H162768   3.728   5.044   5.776 -0.5409 -0.3638  0.4577
13759TIP3    H262769   3.762   4.948   5.664 -0.6362 -0.4659  0.5174
13760TIP3   OH262770   4.737   4.511  11.513 -0.5373  0.2485 -0.4162
13760TIP3    H162771   4.702   4.462  11.588  0.7694 -0.6898 -0.3978
13760TIP3    H262772   4.662   4.521  11.454 -0.7253 -2.3432 -0.7296
13761TIP3   OH262773   0.897   1.329   2.178 -0.3519 -0.3370  0.2020
13761TIP3    H162774   0.925   1.367   2.261  1.3503 -1.5684  0.2200
13761TIP3    H262775   0.968   1.272   2.151 -0.5949  0.4472 -2.4168
13762TIP3   OH262776   6.533   0.546   5.922  0.4361 -0.0465 -0.1213
13762TIP3    H162777   6.570   0.458   5.921 -0.2923 -0.4173  1.5850
13762TIP3    H262778   6.452   0.538   5.972  0.4971  1.6554  0.3376
13763TIP3   OH262779   6.613   5.893   5.183  0.0167  0.6111  0.0593
13763TIP3    H162780   6.644   5.825   5.123 -1.3234 -0.3488  0.4198
13763TIP3    H262781   6.519   5.878   5.190  0.0327  1.1548  1.8403
13764TIP3   OH262782   0.233   1.119   5.705 -0.3523  0.5733 -0.0659
13764TIP3    H162783   0.307   1.105   5.645  0.6590  0.9961  1.0541
13764TIP3    H262784   0.215   1.213   5.699  0.2663  0.7587  0.8655
13765TIP3   OH262785   2.618   6.192   4.235 -0.6177  0.2110  0.3163
13765TIP3    H162786   2.602   6.286   4.245 -0.3237  0.1838  1.1139
13765TIP3    H262787   2.650   6.182   4.145 -1.1043  0.8089  0.0724
13766TIP3   OH262788   2.851   3.375  14.984 -0.4146 -0.1065 -0.3193
13766TIP3    H162789   2.877   3.290  15.019 -0.3677 -0.4510 -1.1691
13766TIP3    H262790   2.758   3.381  15.001  0.2584  1.7598  4.0797
13767TIP3   OH262791   2.246   2.417  16.355  0.2390 -0.0234  0.1081
13767TIP3    H162792   2.291   2.499  16.377  1.5159 -1.0424  1.5210
13767TIP3    H262793   2.309   2.369  16.302 -0.5509 -0.0703 -0.8108
13768TIP3   OH262794   5.779   1.351   4.673 -0.1097 -0.2175 -0.1021
13768TIP3    H162795   5.871   1.342   4.651 -0.2361 -1.7885 -0.0948
13768TIP3    H262796   5.776   1.417   4.743  0.6499  2.3426 -2.2936
13769TIP3   OH262797   2.989   1.207   1.250 -0.0365 -0.5036 -0.8649
13769TIP3    H162798   2.967   1.137   1.190  0.0719 -0.6476 -0.7359
13769TIP3    H262799   3.023   1.277   1.195  2.3300 -1.5095 -0.7584
13770TIP3   OH262800   1.690   3.880  17.071  0.7299 -0.4606  0.6594
13770TIP3    H162801   1.616   3.911  17.019  0.0216 -2.9338  0.0920
13770TIP3    H262802   1.751   3.954  17.072 -1.2747  1.2924  0.3043
13771TIP3   OH262803   4.737   4.913   1.978 -0.1965 -0.0940 -0.2042
13771TIP3    H162804   4.687   4.935   2.057  1.9781  2.1261  0.6684
13771TIP3    H262805   4.721   4.986   1.919  1.5178  0.3721 -0.1286
13772TIP3   OH262806   6.504   2.681   5.321 -0.3824 -0.2513  0.2973
13772TIP3    H162807   6.462   2.596   5.330  0.6756 -0.7532  0.6756
13772TIP3    H262808   6.508   2.696   5.226  0.2501 -1.0563  0.1853
13773TIP3   OH262809   2.415   1.611   3.992  0.5691 -0.0181  0.3629
13773TIP3    H162810   2.467   1.689   4.010  0.9363 -0.4347  1.1343
13773TIP3    H262811   2.333   1.625   4.041  0.7461 -0.2403  0.7220
13774TIP3   OH262812   3.186   1.117  12.497  0.0769  0.2592 -0.1289
13774TIP3    H162813   3.145   1.034  12.473 -0.6874 -0.0871  2.1102
13774TIP3    H262814   3.154   1.135  12.586  2.8536  1.2602  0.7662
13775TIP3   OH262815   4.716   5.808  11.558 -0.3434 -0.2421 -0.1851
13775TIP3    H162816   4.646   5.746  11.575  0.2771 -1.1325 -0.7938
13775TIP3    H262817   4.788   5.780  11.615  0.6654 -1.3917 -1.9191
13776TIP3   OH262818   6.174   6.720   6.341  0.0779 -0.3625  0.1099
13776TIP3    H162819   6.082   6.696   6.349  0.5007 -2.1468 -0.0955
13776TIP3    H262820   6.220   6.637   6.330  1.7631  0.4725  0.5702
13777TIP3   OH262821   3.699   6.087   6.012 -0.1692 -0.1968 -0.2720
13777TIP3    H162822   3.766   6.125   5.954 -0.4911 -0.1985 -0.6498
13777TIP3    H262823   3.627   6.066   5.953 -0.7245  0.3239  0.2154
13778TIP3   OH262824   0.164   3.432   0.095 -0.0132  0.0963 -0.6706
13778TIP3    H162825   0.164   3.340   0.118  0.7753  0.7166  2.1850
13778TIP3    H262826   0.071   3.455   0.089 -0.2165 -0.9809 -2.1076
13779TIP3   OH262827   2.352   6.505  12.010  0.8197 -0.1310 -0.1515
13779TIP3    H162828   2.415   6.565  12.050  0.2060  0.0358  0.5756
13779TIP3    H262829   2.295   6.562  11.958  0.0569 -0.0296  0.7712
13780TIP3   OH262830   6.809   5.832   2.186  0.3686 -0.1797 -0.5871
13780TIP3    H162831   6.796   5.754   2.239  1.3230  0.6201  0.8844
13780TIP3    H262832   6.730   5.838   2.132  0.8527 -2.9202 -1.8011
13781TIP3   OH262833   6.814   2.310  16.901  0.0095 -0.4058 -0.3767
13781TIP3    H162834   6.771   2.236  16.945 -1.1711 -0.4631 -1.5421
13781TIP3    H262835   6.870   2.348  16.968 -1.1483 -0.9298  0.9540
13782TIP3   OH262836   5.143   3.780  14.260  0.2614 -0.3138  0.7219
13782TIP3    H162837   5.137   3.850  14.325 -0.8091  0.5317 -0.2566
13782TIP3    H262838   5.199   3.816  14.192 -0.1405 -0.4840  0.3001
13783TIP3   OH262839   3.171   2.970   3.694 -0.1267  0.3369  0.3766
13783TIP3    H162840   3.247   3.029   3.694 -1.0198  1.5920  2.1181
13783TIP3    H262841   3.183   2.918   3.773 -0.9138  0.3436  0.5021
13784TIP3   OH262842   0.960   1.483   6.147 -0.1118 -0.4542 -0.4448
13784TIP3    H162843   0.999   1.397   6.163  0.6423 -0.1530 -0.6158
13784TIP3    H262844   0.933   1.514   6.234  0.7590 -0.3343 -0.2095
13785TIP3   OH262845   4.741   5.639   1.636  0.3075  0.1605 -0.3353
13785TIP3    H162846   4.715   5.585   1.710  2.5722  1.5180  1.5814
13785TIP3    H262847   4.710   5.727   1.657  2.4110  0.9091 -0.0851
13786TIP3   OH262848   1.655   2.216   6.335  0.5362  0.1298  0.0903
13786TIP3    H162849   1.567   2.181   6.349  1.2783 -1.0771  2.1787
13786TIP3    H262850   1.661   2.227   6.240 -1.5296 -0.6459 -0.1908
13787TIP3   OH262851   6.507   0.445  11.204  0.1298 -0.4445  0.3416
13787TIP3    H162852   6.492   0.503  11.130  2.4306 -0.5792 -0.3080
13787TIP3    H262853   6.558   0.372  11.168  1.7904 -0.2494  2.1168
13788TIP3   OH262854   3.408   4.716   1.588 -0.2572  0.1390 -0.6959
13788TIP3    H162855   3.404   4.672   1.503  2.2404 -0.1335 -0.7592
13788TIP3    H262856   3.489   4.683   1.628 -1.5991 -0.1023  2.0267
13789TIP3   OH262857   5.607   5.145   5.381  0.4532  0.4812  0.1623
13789TIP3    H162858   5.566   5.183   5.458 -0.2678  0.1945 -0.0639
13789TIP3    H262859   5.700   5.143   5.401  0.2800  0.4574  0.9995
13790TIP3   OH262860   2.657   4.606   3.347 -0.6905  0.6074 -0.1190
13790TIP3    H162861   2.601   4.584   3.421 -2.0018 -0.3006 -1.3152
13790TIP3    H262862   2.745   4.582   3.375 -1.2990 -0.7000  0.7647
13791TIP3   OH262863   1.200   4.781   2.854  0.3099  0.4031 -0.2252
13791TIP3    H162864   1.185   4.710   2.916  0.2590  0.0096 -0.6879
13791TIP3    H262865   1.152   4.756   2.776  1.2958  0.3525 -0.8240
13792TIP3   OH262866   0.837   2.940  12.985  0.0039 -0.0284  0.5737
13792TIP3    H162867   0.884   2.856  12.982 -2.2086 -1.3932  1.5314
13792TIP3    H262868   0.772   2.933  12.915  0.3385  1.2692  0.1178
13793TIP3   OH262869   6.649   3.037  15.397  0.2064 -0.1828 -0.3071
13793TIP3    H162870   6.574   3.087  15.365  0.4813  1.2062  1.1212
13793TIP3    H262871   6.616   2.992  15.475  0.5649 -0.4566 -0.3101
13794TIP3   OH262872   3.281   0.511   4.676 -0.0923  0.1676 -0.4604
13794TIP3    H162873   3.258   0.483   4.588 -1.2026  0.2093 -0.2059
13794TIP3    H262874   3.278   0.431   4.729 -0.6852  0.3324 -0.2310
13795TIP3   OH262875   4.849   1.440  13.846  0.4179 -0.0455  0.4409
13795TIP3    H162876   4.757   1.418  13.839  0.7848 -1.2636 -1.0511
13795TIP3    H262877   4.858   1.479  13.934 -1.0603 -2.0853  1.5734
13796TIP3   OH262878   5.047   4.033   2.720  0.2223 -0.7121  0.0670
13796TIP3    H162879   5.113   4.088   2.764 -2.2535  1.5364  1.2374
13796TIP3    H262880   5.070   4.039   2.627  1.9662 -0.4447  0.4689
13797TIP3   OH262881   1.392   1.134  12.723 -0.0846 -0.2710 -0.2368
13797TIP3    H162882   1.335   1.061  12.698 -0.2150  0.1084 -1.0949
13797TIP3    H262883   1.384   1.140  12.818  0.1395 -1.5483 -0.1147
13798TIP3   OH262884   2.256   4.524  11.636  0.0287  0.0910  0.1619
13798TIP3    H162885   2.201   4.492  11.564  0.3090  0.7241 -0.3506
13798TIP3    H262886   2.218   4.485  11.715 -0.5571 -0.2610 -0.2857
13799TIP3   OH262887   2.515   3.266   1.048 -0.2463  0.2931 -0.2835
13799TIP3    H162888   2.451   3.307   1.105  1.1919 -0.0517  1.6568
13799TIP3    H262889   2.600   3.298   1.079  0.7162 -1.6213 -0.7628
13800TIP3   OH262890   5.094   1.573  15.075 -0.3279  0.1407  0.1780
13800TIP3    H162891   5.174   1.527  15.097  0.4994  1.1626 -0.5832
13800TIP3    H262892   5.123   1.648  15.022 -1.5838  1.5694  1.3978
13801TIP3   OH262893   2.989   3.785  11.195 -0.0740 -0.4232  0.6913
13801TIP3    H162894   3.064   3.840  11.172 -0.9345 -0.4971 -2.8846
13801TIP3    H262895   2.917   3.847  11.207 -0.1325 -0.5256  0.8676
13802TIP3   OH262896   6.609   5.659  11.579  0.3968 -0.1555 -0.0825
13802TIP3    H162897   6.531   5.603  11.575  0.8579 -0.8251  0.0665
13802TIP3    H262898   6.682   5.600  11.559  0.7667  0.7059 -1.3389
13803TIP3   OH262899   5.943   3.742  13.989  0.0990  0.0857  0.1274
13803TIP3    H162900   5.890   3.767  13.913 -0.0276 -0.5082  0.0172
13803TIP3    H262901   5.991   3.822  14.012  1.0060 -0.0138 -1.2873
13804TIP3   OH262902   6.278   4.918  13.077 -0.2141 -0.0888 -0.3816
13804TIP3    H162903   6.344   4.899  13.010  0.6485 -0.1165  0.4614
13804TIP3    H262904   6.328   4.938  13.156 -1.1865  1.3146 -0.0796
13805TIP3   OH262905   1.739   4.208   0.645  0.9030  0.0873  0.1706
13805TIP3    H162906   1.701   4.203   0.732  0.2205  3.2860  0.1741
13805TIP3    H262907   1.813   4.269   0.654  1.2320 -0.0399 -1.3478
13806TIP3   OH262908   1.484   5.947   3.881 -0.1484  0.0218 -0.2013
13806TIP3    H162909   1.539   5.889   3.830  3.0750  1.1119  1.7392
13806TIP3    H262910   1.442   5.890   3.946  1.8191 -0.4161  0.7476
13807TIP3   OH262911   5.754   2.707  14.977 -0.2724  0.4246  0.0404
13807TIP3    H162912   5.773   2.770  15.047  0.6827 -0.2825  0.4499
13807TIP3    H262913   5.785   2.750  14.897  1.1180  0.1790  0.4197
13808TIP3   OH262914   4.895   3.070  15.372  0.7623  0.5355 -0.3418
13808TIP3    H162915   4.892   3.130  15.446 -1.3476 -0.6026  0.5909
13808TIP3    H262916   4.871   3.124  15.296 -0.2461  1.0865  0.3463
13809TIP3   OH262917   2.938   0.209  14.525  0.3858 -0.1652 -0.3499
13809TIP3    H162918   2.903   0.200  14.614 -0.3533 -1.2155 -0.7254
13809TIP3    H262919   3.032   0.222  14.538  0.0083  2.1933  0.6691
13810TIP3   OH262920   2.844   6.005   4.849  0.0291 -0.3396  0.3988
13810TIP3    H162921   2.849   5.945   4.924  0.7254  0.4385  0.9957
13810TIP3    H262922   2.815   5.950   4.776  1.4093 -1.5844  0.7433
13811TIP3   OH262923   5.934   6.167   5.120  0.2477  0.2905 -0.1978
13811TIP3    H162924   5.889   6.183   5.037 -1.2777  0.8554  0.6922
13811TIP3    H262925   6.018   6.129   5.095 -0.3865 -0.0372 -1.9671
13812TIP3   OH262926   5.193   5.244   0.277  0.0912 -0.0751 -0.1521
13812TIP3    H162927   5.195   5.161   0.325  0.7436 -0.0145 -0.0569
13812TIP3    H262928   5.240   5.305   0.334  2.2163 -0.3594 -1.4902
13813TIP3   OH262929   2.973   2.670   0.414 -0.7897 -0.3772 -0.5209
13813TIP3    H162930   2.969   2.697   0.506  0.7822 -2.1402  0.1445
13813TIP3    H262931   3.061   2.695   0.386 -0.1825 -2.3615 -0.6041
13814TIP3   OH262932   5.587   2.155  16.784  0.0333 -0.0821  0.0203
13814TIP3    H162933   5.547   2.077  16.744  1.0543 -1.0352  0.7868
13814TIP3    H262934   5.526   2.180  16.853  0.4421 -1.1912  0.8198
13815TIP3   OH262935   3.232   0.781   3.592  0.3035 -0.0093  0.9266
13815TIP3    H162936   3.145   0.751   3.620 -0.5559  1.2398 -0.2716
13815TIP3    H262937   3.278   0.701   3.568  0.2352 -0.8944  3.4602
13816TIP3   OH262938   4.392   1.372   5.740 -0.3302 -0.7546  0.4346
13816TIP3    H162939   4.415   1.290   5.785 -1.0881 -0.5614  1.2237
13816TIP3    H262940   4.309   1.352   5.696 -0.6291 -0.3575  0.8076
13817TIP3   OH262941   2.118   6.202  13.527 -0.8395 -0.9122  0.0887
13817TIP3    H162942   2.035   6.162  13.553 -1.0646 -0.4811  0.0356
13817TIP3    H262943   2.138   6.264  13.597 -1.5784  0.4423 -0.8542
13818TIP3   OH262944   0.722   1.839  16.468 -0.6727  0.1387  0.2462
13818TIP3    H162945   0.645   1.895  16.461 -1.9276 -1.3671  1.3042
13818TIP3    H262946   0.695   1.767  16.524  0.7927 -1.6449 -1.1814
13819TIP3   OH262947   6.047   2.615   0.056  0.4148  0.0628  0.0300
13819TIP3    H162948   6.053   2.607   0.151 -0.8735  3.4286  0.5134
13819TIP3    H262949   5.978   2.553   0.031  2.1358 -2.3723  0.8798
13820TIP3   OH262950   5.515   5.567  16.670 -0.1808 -0.1900  0.1156
13820TIP3    H162951   5.514   5.551  16.764 -0.8140  0.2316  0.1793
13820TIP3    H262952   5.475   5.488  16.632 -0.1081 -0.2720  0.2086
13821TIP3   OH262953   3.029   5.274   6.430  0.2335 -0.6863 -0.1800
13821TIP3    H162954   2.976   5.222   6.370 -0.6461  1.3043 -1.2239
13821TIP3    H262955   2.996   5.250   6.517 -3.2665  1.1509 -0.7828
13822TIP3   OH262956   1.631   4.897  11.627 -0.1040  0.1541 -0.8285
13822TIP3    H162957   1.681   4.951  11.565  2.5113 -3.3424 -2.1418
13822TIP3    H262958   1.653   4.934  11.713 -0.1060  2.3531 -1.6994
13823TIP3   OH262959   4.772   1.916   0.925 -0.6176  0.1418 -0.2078
13823TIP3    H162960   4.683   1.932   0.956 -0.5506  0.4575 -0.1759
13823TIP3    H262961   4.781   1.972   0.848 -1.3910 -1.9289 -1.9163
13824TIP3   OH262962   1.306   2.915   3.616  0.2858  0.3209 -0.4041
13824TIP3    H162963   1.365   2.890   3.687  1.4789  0.0424 -1.4631
13824TIP3    H262964   1.218   2.912   3.656  0.7949 -1.1049  0.6996
13825TIP3   OH262965   5.485   3.558  12.672  0.2877 -0.5994 -0.2094
13825TIP3    H162966   5.501   3.506  12.751  0.1550 -0.6901 -0.2418
13825TIP3    H262967   5.556   3.623  12.671  1.0745 -1.4392 -0.7176
13826TIP3   OH262968   5.258   2.117  12.267 -0.5148  0.1676 -0.1587
13826TIP3    H162969   5.217   2.193  12.308 -1.9416 -1.0463  0.7864
13826TIP3    H262970   5.266   2.053  12.338  1.4349 -0.3061 -0.7336
13827TIP3   OH262971   5.762   6.566   6.062 -0.5731 -0.1311 -0.3557
13827TIP3    H162972   5.681   6.535   6.103 -0.2192 -1.4986 -0.6254
13827TIP3    H262973   5.814   6.486   6.049  0.6270  0.6657 -0.6080
13828TIP3   OH262974   6.298   5.686  16.137  0.3724 -0.5032  0.0582
13828TIP3    H162975   6.285   5.648  16.050  1.9905  1.6196 -1.2095
13828TIP3    H262976   6.368   5.750  16.125  0.5083  0.0177  2.9098
13829TIP3   OH262977   0.350   1.780   4.649 -0.0391  0.7489 -0.0241
13829TIP3    H162978   0.322   1.688   4.655 -1.7531  1.2664  0.3990
13829TIP3    H262979   0.436   1.781   4.690 -0.4221 -0.5012  0.8784
13830TIP3   OH262980   2.451   1.704   5.174  0.4257  0.1523 -0.2825
13830TIP3    H162981   2.533   1.754   5.179  0.0872  0.8391 -1.1974
13830TIP3    H262982   2.383   1.768   5.197  0.1110 -0.3447  0.2069
13831TIP3   OH262983   0.486   5.765  11.374  0.6320 -0.3434 -0.1155
13831TIP3    H162984   0.558   5.773  11.437 -0.3060 -0.3186  0.9859
13831TIP3    H262985   0.516   5.697  11.313  1.0795 -1.2597  1.0704
13832TIP3   OH262986   0.584   5.104  14.889  0.4252 -0.2354  0.5320
13832TIP3    H162987   0.516   5.067  14.944 -1.1030  0.5062 -0.7579
13832TIP3    H262988   0.547   5.101  14.800  2.6155 -1.0337 -0.4389
13833TIP3   OH262989   2.540   4.676  12.194 -0.2813 -0.0850 -0.0816
13833TIP3    H162990   2.607   4.621  12.235 -0.6231  0.4054  1.1975
13833TIP3    H262991   2.587   4.754  12.164 -0.4527  1.0320  2.3055
13834TIP3   OH262992   6.054   3.087  13.210 -0.3436 -0.2417 -0.1777
13834TIP3    H162993   5.998   3.148  13.161 -0.0658 -0.1996 -0.4413
13834TIP3    H262994   6.054   3.007  13.158  0.8023  0.1452 -0.8025
13835TIP3   OH262995   3.556   6.411  12.036 -0.6643  0.4273 -0.0624
13835TIP3    H162996   3.540   6.435  12.127  1.8061 -0.6033  0.7322
13835TIP3    H262997   3.642   6.369  12.037 -1.4707 -1.5693 -2.5181
13836TIP3   OH262998   0.505   3.523   6.354  0.2869  0.4226  0.0653
13836TIP3    H162999   0.568   3.451   6.359 -1.8040 -1.4672  0.9783
13836TIP3    H263000   0.525   3.576   6.431 -0.3312 -1.1889  1.4142
13837TIP3   OH263001   6.051   1.746   5.432 -0.0904 -0.4928 -0.5905
13837TIP3    H163002   6.145   1.751   5.412 -0.1078  1.0348 -0.4519
13837TIP3    H263003   6.009   1.765   5.348 -0.2266  0.7766 -0.2598
13838TIP3   OH263004   5.838   3.191   3.071  0.4235 -0.1731 -0.0441
13838TIP3    H163005   5.892   3.253   3.119 -1.0123  1.0700  0.0228
13838TIP3    H263006   5.774   3.244   3.024 -0.0816 -1.5306 -0.9793
13839TIP3   OH263007   2.535   0.211  10.857 -0.5989 -0.1859  0.1675
13839TIP3    H163008   2.554   0.150  10.786  3.5764  0.6381  0.3340
13839TIP3    H263009   2.484   0.281  10.816  0.3999 -0.4811 -1.6768
13840TIP3   OH263010   2.637   0.559  13.197 -0.0890 -0.3017 -0.2370
13840TIP3    H163011   2.587   0.576  13.277 -0.1371 -2.1689  0.1695
13840TIP3    H263012   2.595   0.613  13.130  0.2905  1.7217  1.0731
13841TIP3   OH263013   0.254   4.940  11.895 -0.6733 -0.4588 -0.3328
13841TIP3    H163014   0.225   4.973  11.811 -1.0524 -3.1838 -1.3985
13841TIP3    H263015   0.192   4.870  11.916  0.6842 -1.3218  1.0918
13842TIP3   OH263016   1.694   4.519  14.821 -0.2212  0.2201  0.0607
13842TIP3    H163017   1.648   4.465  14.757 -0.7136  0.3550  0.3031
13842TIP3    H263018   1.687   4.471  14.904 -1.7205  1.2291  0.5525
13843TIP3   OH263019   1.541   0.133  12.935 -0.1640 -0.2514  0.4850
13843TIP3    H163020   1.615   0.084  12.901 -0.0139 -0.4312  1.0502
13843TIP3    H263021   1.466   0.073  12.927 -0.2272 -0.1171  0.0362
13844TIP3   OH263022   2.892   5.274   1.979 -0.4422  0.3476  0.5888
13844TIP3    H163023   2.847   5.191   1.993  0.8837 -0.4296  0.3995
13844TIP3    H263024   2.824   5.334   1.949 -1.5959 -0.4100  1.5987
13845TIP3   OH263025   4.047   0.101  11.738 -0.2152 -0.7808 -0.8606
13845TIP3    H163026   4.114   0.169  11.733 -1.2894  0.2728 -1.6056
13845TIP3    H263027   4.064   0.044  11.662  1.2480 -1.9389  0.2738
13846TIP3   OH263028   1.872   2.577  14.505  0.4962 -0.8097  0.0498
13846TIP3    H163029   1.962   2.578  14.474  0.2753  0.5456 -0.6083
13846TIP3    H263030   1.880   2.561  14.599  1.5803  1.1724  0.3596
13847TIP3   OH263031   0.831   4.097   1.519  0.1408 -0.0301 -0.5360
13847TIP3    H163032   0.861   4.166   1.460  1.8019 -0.0630  0.2073
13847TIP3    H263033   0.738   4.088   1.499  0.4379  0.5941 -2.4822
13848TIP3   OH263034   1.133   1.451  16.089  0.4145  0.3764  0.2862
13848TIP3    H163035   1.147   1.475  15.998 -0.9265  0.6757  0.1354
13848TIP3    H263036   1.053   1.496  16.114  0.2662 -0.4185  1.3414
13849TIP3   OH263037   6.244   4.582   5.643  0.4521  0.4124 -0.6595
13849TIP3    H163038   6.187   4.551   5.714 -0.2789  1.2794 -0.8433
13849TIP3    H263039   6.328   4.540   5.660 -0.2278 -0.8890 -0.3706
13850TIP3   OH263040   3.682   1.983  14.524 -0.6643  0.7770 -0.6244
13850TIP3    H163041   3.688   1.977  14.620  0.2644  0.6275 -0.6822
13850TIP3    H263042   3.654   2.073  14.508 -1.9719  0.4678 -0.1835
13851TIP3   OH263043   5.709   5.307  13.676  0.5197 -0.1621  0.4849
13851TIP3    H163044   5.688   5.317  13.769  0.5568  1.3207  0.3510
13851TIP3    H263045   5.624   5.303  13.633  0.5059 -0.5710  0.5413
13852TIP3   OH263046   2.663   3.364   6.515 -0.1680  0.4005  0.2895
13852TIP3    H163047   2.647   3.401   6.602  0.9658 -1.3161  1.2849
13852TIP3    H263048   2.576   3.337   6.485 -0.8138  2.4675  0.1373
13853TIP3   OH263049   6.771   6.588   5.966 -0.5719 -0.5708 -0.3115
13853TIP3    H163050   6.732   6.655   6.023 -0.2691  0.1584 -0.9432
13853TIP3    H263051   6.831   6.636   5.910  0.1845 -1.4846 -0.3070
13854TIP3   OH263052   0.753   0.649   1.765 -0.4055 -0.0345  0.3099
13854TIP3    H163053   0.806   0.582   1.809 -1.5743 -0.8987  0.4333
13854TIP3    H263054   0.782   0.646   1.674  1.0502  0.8018  0.7086
13855TIP3   OH263055   2.418   5.565  15.897 -0.7233 -0.4004 -0.1361
13855TIP3    H163056   2.327   5.555  15.924 -0.4546 -0.2689  0.8600
13855TIP3    H263057   2.423   5.654  15.861 -0.7742 -0.0164  0.7665
13856TIP3   OH263058   5.317   4.508   3.384 -0.4488 -0.1592 -0.4294
13856TIP3    H163059   5.251   4.568   3.418 -0.5147 -1.6588  2.3619
13856TIP3    H263060   5.272   4.424   3.377  1.1018 -1.2826  1.7802
13857TIP3   OH263061   1.600   1.892   6.028 -0.1233 -0.3902  0.2050
13857TIP3    H163062   1.644   1.907   6.111  2.1763 -0.4286 -0.9362
13857TIP3    H263063   1.589   1.979   5.990 -1.5779 -0.3302  0.7034
13858TIP3   OH263064   4.284   6.420  11.331  0.4193  0.2595  0.2137
13858TIP3    H163065   4.233   6.345  11.361  0.7399  0.5104  1.4326
13858TIP3    H263066   4.355   6.429  11.396 -0.2461  2.2770  0.7422
13859TIP3   OH263067   4.433   5.152   4.284 -0.5985  0.2690 -0.5121
13859TIP3    H163068   4.514   5.133   4.331 -0.3976 -0.5348 -1.1575
13859TIP3    H263069   4.427   5.247   4.284  0.0291  0.3130  0.0813
13860TIP3   OH263070   0.799   5.633   3.213 -0.3356  0.8946 -0.1359
13860TIP3    H163071   0.800   5.552   3.162  1.5500  1.2078 -0.6577
13860TIP3    H263072   0.783   5.605   3.303  1.3260 -0.1969 -0.1415
13861TIP3   OH263073   4.232   1.184  15.078  0.5700  0.0179  0.0122
13861TIP3    H163074   4.219   1.249  15.147  2.6457  0.2992  0.1937
13861TIP3    H263075   4.188   1.222  15.002 -3.0221 -0.9418  1.4074
13862TIP3   OH263076   1.009   4.764  13.713 -0.5339  0.1791 -0.1951
13862TIP3    H163077   1.032   4.733  13.625  0.6287  0.7397 -0.0929
13862TIP3    H263078   0.936   4.707  13.739 -1.3175  0.4152 -1.7681
13863TIP3   OH263079   4.731   6.350   6.546  0.4227 -0.2730  0.4463
13863TIP3    H163080   4.697   6.437   6.528  0.5178 -0.1191  0.9900
13863TIP3    H263081   4.826   6.360   6.539  0.3848 -0.5921 -0.5974
13864TIP3   OH263082   1.298   3.950   4.263 -0.0844 -0.4542  0.2273
13864TIP3    H163083   1.330   3.868   4.300 -1.3777 -0.9648  0.2636
13864TIP3    H263084   1.291   4.009   4.338  3.2997  0.6031 -0.1192
13865TIP3   OH263085   6.185   3.739   0.352  0.2175  0.3983  0.2537
13865TIP3    H163086   6.212   3.678   0.421 -0.3322  2.4393  2.3855
13865TIP3    H263087   6.091   3.726   0.344  0.5557 -1.4121 -1.8340
13866TIP3   OH263088   1.517   6.705   5.088  0.4379 -0.1247  0.2095
13866TIP3    H163089   1.472   6.641   5.142  1.3782 -0.6161  0.4322
13866TIP3    H263090   1.487   6.686   4.999 -0.5664  0.2251  0.4613
13867TIP3   OH263091   1.516   2.941   5.003 -0.1099  0.0085 -0.0699
13867TIP3    H163092   1.450   2.893   4.952  1.7049 -1.1789 -1.4563
13867TIP3    H263093   1.476   2.953   5.089 -2.4011  0.0066 -1.0646
13868TIP3   OH263094   0.799   6.286  14.544 -0.4030 -0.5009 -0.3725
13868TIP3    H163095   0.832   6.310  14.631 -1.8993 -0.3389  0.1817
13868TIP3    H263096   0.874   6.248  14.500  0.4229 -0.4992  0.9643
13869TIP3   OH263097   4.256   4.691  16.660 -0.1184 -0.3132  0.4510
13869TIP3    H163098   4.177   4.733  16.694  0.6993  2.0957 -0.3970
13869TIP3    H263099   4.325   4.715  16.722  0.2573 -1.0431  0.3344
13870TIP3   OH263100   2.484   6.400  12.335 -0.0535  0.2510  0.0145
13870TIP3    H163101   2.466   6.362  12.421  1.8081 -2.6195 -0.7219
13870TIP3    H263102   2.402   6.390  12.286 -0.5517  0.1045  0.8675
13871TIP3   OH263103   0.307   4.596   1.014  0.5148  0.2343  0.3008
13871TIP3    H163104   0.360   4.673   1.035 -0.2883  1.3688 -1.5976
13871TIP3    H263105   0.346   4.525   1.065  2.7418  1.4002  0.3194
13872TIP3   OH263106   3.057   3.455  16.897 -0.5311  0.0245  0.1853
13872TIP3    H163107   3.080   3.369  16.932  1.3841 -0.1856 -1.4055
13872TIP3    H263108   3.094   3.517  16.960  3.1427 -0.3365 -1.3578
13873TIP3   OH263109   2.124   0.959  13.433 -0.1723 -0.3428 -0.4231
13873TIP3    H163110   2.030   0.967  13.422 -0.5944 -2.6356  0.8129
13873TIP3    H263111   2.146   0.873  13.396  0.5891 -1.9060  3.1546
13874TIP3   OH263112   3.558   5.695  16.564 -0.1258 -0.1577  0.1007
13874TIP3    H163113   3.571   5.708  16.657  0.5634 -0.7132  0.0904
13874TIP3    H263114   3.516   5.609  16.557 -1.3836  0.4390 -0.0381
13875TIP3   OH263115   1.921   5.258  14.721 -0.2755 -0.1486  0.4324
13875TIP3    H163116   1.991   5.318  14.696  0.8162 -1.3651  0.4993
13875TIP3    H263117   1.963   5.194  14.778 -1.8000  0.0519  1.8643
13876TIP3   OH263118   4.687   4.966  15.001 -0.2052 -0.2579  0.2150
13876TIP3    H163119   4.639   4.905  14.944 -0.2352 -1.4742  1.4928
13876TIP3    H263120   4.752   4.912  15.045  0.7517  0.9284  0.3147
13877TIP3   OH263121   0.843   1.608  10.466 -0.2856  0.0259  0.1245
13877TIP3    H163122   0.935   1.628  10.484 -0.1478 -0.8673  0.4630
13877TIP3    H263123   0.833   1.515  10.490 -1.1764  0.0038 -0.2791
13878TIP3   OH263124   4.799   6.276  10.590  0.1369 -0.5015  0.2102
13878TIP3    H163125   4.860   6.340  10.626 -1.9273  0.6203  1.8758
13878TIP3    H263126   4.835   6.191  10.617  0.7858  0.1456  1.4517
13879TIP3   OH263127   1.590   6.514   2.147 -0.3209 -0.5449 -0.0028
13879TIP3    H163128   1.563   6.425   2.128 -1.1112 -0.5125  0.9101
13879TIP3    H263129   1.629   6.509   2.234  1.9042 -0.4343 -0.9169
13880TIP3   OH263130   1.182   3.113  14.010 -0.0514 -0.0918  0.8317
13880TIP3    H163131   1.145   3.192  13.970 -1.2509 -1.0442 -0.0222
13880TIP3    H263132   1.276   3.128  14.011 -0.2228  1.1262  0.1955
13881TIP3   OH263133   4.271   1.258   2.883  0.0000  0.0374  0.6568
13881TIP3    H163134   4.293   1.164   2.885 -0.7089 -0.1235  1.9667
13881TIP3    H263135   4.324   1.296   2.953 -1.2553  0.2358  1.5319
13882TIP3   OH263136   2.447   3.996   4.634 -0.1155 -0.0096  0.4033
13882TIP3    H163137   2.417   3.911   4.602  0.9309 -0.6146  0.9936
13882TIP3    H263138   2.367   4.040   4.665 -0.3158 -2.3330  3.7235
13883TIP3   OH263139   5.930   6.189  15.481 -0.2558  0.8419  0.0244
13883TIP3    H163140   5.956   6.148  15.399 -2.7943  0.1464 -0.5231
13883TIP3    H263141   5.957   6.126  15.549 -0.6903  0.0715 -0.5087
13884TIP3   OH263142   1.901   1.162   5.737  0.5204  0.4789 -0.1061
13884TIP3    H163143   1.983   1.131   5.774  1.3541  1.9628 -0.6376
13884TIP3    H263144   1.876   1.094   5.673  1.8126  0.4353 -0.5884
13885TIP3   OH263145   2.232   1.597   1.169  0.0740  0.2107  0.0740
13885TIP3    H163146   2.249   1.656   1.243 -1.6376  0.6295  0.1901
13885TIP3    H263147   2.319   1.568   1.140  0.7771 -0.5635  2.7007
13886TIP3   OH263148   4.042   0.582   5.903 -0.5510 -0.1003  0.0494
13886TIP3    H163149   4.033   0.549   5.814 -0.7600 -0.7618  0.3164
13886TIP3    H263150   3.955   0.615   5.925 -0.3830  0.5044 -0.1570
13887TIP3   OH263151   6.389   5.425  13.123  0.7935 -0.3041  0.0906
13887TIP3    H163152   6.295   5.418  13.106  0.8324 -0.4192 -0.0787
13887TIP3    H263153   6.395   5.456  13.213  0.5740  1.0128 -0.3273
13888TIP3   OH263154   1.083   2.593  12.528  0.1267  0.4451  0.1035
13888TIP3    H163155   1.124   2.678  12.541  3.6693 -1.2359  1.1505
13888TIP3    H263156   1.038   2.574  12.610  1.1947  0.4222  0.6977
13889TIP3   OH263157   3.412   5.085   1.930 -0.3490  0.4665  0.2082
13889TIP3    H163158   3.425   5.033   1.851  1.8173 -0.7369  1.2505
13889TIP3    H263159   3.319   5.076   1.951 -0.3434 -1.7950 -0.4898
13890TIP3   OH263160   5.397   0.606   6.738 -0.1148  0.8044 -0.6532
13890TIP3    H163161   5.343   0.672   6.695 -1.1090 -0.8121 -2.0338
13890TIP3    H263162   5.452   0.571   6.668  0.8878  0.6171  0.1950
13891TIP3   OH263163   6.277   5.816   4.562 -0.0589  0.1871  0.8632
13891TIP3    H163164   6.279   5.722   4.543  1.5818  0.4084 -0.3314
13891TIP3    H263165   6.222   5.853   4.493  0.2212  0.2201  0.6555
13892TIP3   OH263166   0.177   4.391   2.562 -0.0067  0.5006 -0.5675
13892TIP3    H163167   0.117   4.331   2.606  0.5339 -0.7173 -1.4181
13892TIP3    H263168   0.194   4.460   2.626  0.8406 -1.2395  1.1741
13893TIP3   OH263169   4.160   4.921   4.819  0.4945  0.8511 -0.0244
13893TIP3    H163170   4.235   4.938   4.762  1.6465 -4.0235 -0.3469
13893TIP3    H263171   4.197   4.922   4.908  1.2151 -1.9435 -0.2059
13894TIP3   OH263172   1.174   4.531   3.401  0.0550 -0.2821 -0.0924
13894TIP3    H163173   1.225   4.543   3.481  1.5994 -0.7494 -0.9592
13894TIP3    H263174   1.236   4.547   3.330 -0.9916 -0.9337 -1.2066
13895TIP3   OH263175   2.011   5.066  11.764 -0.0729  0.2252  0.0889
13895TIP3    H163176   1.987   5.063  11.856 -0.9999 -0.6744 -0.1702
13895TIP3    H263177   2.102   5.037  11.762 -0.9731 -2.9752  0.4397
13896TIP3   OH263178   2.242   6.250  14.554  0.3307  0.0493  0.4506
13896TIP3    H163179   2.195   6.252  14.470  0.9556 -2.1208 -0.0236
13896TIP3    H263180   2.275   6.339  14.565  1.3487  0.1147 -2.3159
13897TIP3   OH263181   2.753   2.291  16.184 -0.1452  0.0772 -0.4143
13897TIP3    H163182   2.701   2.241  16.247 -0.4870  1.3780  0.3728
13897TIP3    H263183   2.689   2.340  16.133  0.2433  0.9259 -0.1082
13898TIP3   OH263184   3.032   2.625  15.464 -0.0330  0.8515 -0.0311
13898TIP3    H163185   2.941   2.634  15.434  0.0942  1.1834 -0.3246
13898TIP3    H263186   3.069   2.713  15.453  0.5819  0.5030 -0.7586
13899TIP3   OH263187   5.956   0.698   0.257 -0.4306  0.1598  0.0718
13899TIP3    H163188   6.026   0.635   0.244 -1.0775 -0.6415  0.4123
13899TIP3    H263189   5.987   0.755   0.327  1.7605  2.6015 -2.6376
13900TIP3   OH263190   2.247   5.730  12.366  0.6459 -0.0573 -0.0752
13900TIP3    H163191   2.167   5.718  12.419  0.7799  0.6092  0.2820
13900TIP3    H263192   2.272   5.821  12.381  0.7735  0.0925 -1.1773
13901TIP3   OH263193   3.435   4.969  11.804 -0.0784 -0.2536  0.3234
13901TIP3    H163194   3.352   4.941  11.842  0.1013 -1.2477  0.0080
13901TIP3    H263195   3.475   4.889  11.772  1.3840  0.1054  1.1855
13902TIP3   OH263196   1.116   0.166  11.925  0.5986 -0.1981  0.2926
13902TIP3    H163197   1.141   0.231  11.859 -0.0280  1.6891  1.8004
13902TIP3    H263198   1.052   0.110  11.881  0.3515  0.8791 -0.7573
13903TIP3   OH263199   4.101   3.046   3.869  0.4765  0.1989 -0.6405
13903TIP3    H163200   4.053   3.112   3.820 -0.0161 -0.0619 -0.5117
13903TIP3    H263201   4.117   3.087   3.954  0.2973  0.2097 -0.6110
13904TIP3   OH263202   2.943   4.789  10.273  0.7305  0.3564  0.0546
13904TIP3    H163203   2.966   4.844  10.348  1.8382 -0.2021  0.1395
13904TIP3    H263204   2.895   4.715  10.311  0.7004  0.4156  0.1314
13905TIP3   OH263205   5.135   4.966  12.638  0.5655  0.3141 -0.0433
13905TIP3    H163206   5.105   4.895  12.582  1.0274  0.7966 -0.9170
13905TIP3    H263207   5.205   5.008  12.588  0.3059  1.3784  0.4671
13906TIP3   OH263208   0.658   2.838   1.837  0.0057  0.0911  0.5524
13906TIP3    H163209   0.569   2.801   1.835  0.4407 -1.0312  1.0630
13906TIP3    H263210   0.667   2.883   1.753 -0.8617 -0.2259  0.2764
13907TIP3   OH263211   4.761   4.230  10.969  0.4648 -0.6422 -0.1006
13907TIP3    H163212   4.855   4.241  10.960  0.4866 -0.9031 -0.1961
13907TIP3    H263213   4.728   4.318  10.986  0.7571 -0.5873  0.2095
13908TIP3   OH263214   5.316   3.922  10.771  0.2601  0.2420  0.4712
13908TIP3    H163215   5.294   4.000  10.822 -0.8232 -0.6493  1.4206
13908TIP3    H263216   5.253   3.923  10.698  0.1392  0.1720  0.5742
13909TIP3   OH263217   3.188   3.891  17.221 -0.2046 -0.4102 -0.4086
13909TIP3    H163218   3.192   3.979  17.183  0.0374 -0.6602 -0.9711
13909TIP3    H263219   3.116   3.896  17.285  0.9926  0.7068  0.9342
13910TIP3   OH263220   5.976   3.282  13.024  0.2626  0.5155 -0.3306
13910TIP3    H163221   5.979   3.369  13.063  1.0850  1.0179 -1.4676
13910TIP3    H263222   6.050   3.280  12.963 -0.1255 -0.7528 -0.7997
13911TIP3   OH263223   4.032   4.795  15.304  0.0036  0.1867 -0.6435
13911TIP3    H163224   3.994   4.755  15.382  0.6171 -1.7323 -1.2721
13911TIP3    H263225   4.124   4.767  15.306  0.1887  0.6875 -1.6935
13912TIP3   OH263226   2.330   5.211   1.203  0.2198  0.3280 -0.3336
13912TIP3    H163227   2.327   5.197   1.108  0.4534 -0.2199 -0.2640
13912TIP3    H263228   2.288   5.133   1.240 -1.0659  1.1274 -0.0214
13913TIP3   OH263229   2.032   6.321  16.856  0.4558  0.3582  0.2219
13913TIP3    H163230   1.961   6.380  16.831 -0.7002 -1.4257 -1.0307
13913TIP3    H263231   2.093   6.325  16.782  2.0910  2.3844  1.5841
13914TIP3   OH263232   6.517   4.552  11.076 -0.0353 -0.0405  0.0822
13914TIP3    H163233   6.485   4.611  11.007  0.6635 -0.5140 -0.6724
13914TIP3    H263234   6.466   4.471  11.063  0.1525 -0.1574  0.0672
13915TIP3   OH263235   0.092   6.603   4.772 -0.8756  0.1214 -0.0201
13915TIP3    H163236   0.131   6.518   4.752  2.9605  1.5454  0.5809
13915TIP3    H263237   0.074   6.643   4.687 -0.3017 -0.3197 -0.3502
13916TIP3   OH263238   6.743   1.567   3.431 -0.4865 -0.1518  0.0687
13916TIP3    H163239   6.693   1.642   3.398 -0.8028 -0.2335  0.3550
13916TIP3    H263240   6.803   1.545   3.360  0.9089  1.5149  0.6296
13917TIP3   OH263241   2.504   5.879  16.736  0.5046  0.0192  0.1639
13917TIP3    H163242   2.506   5.960  16.788  0.9962  0.7212 -0.9119
13917TIP3    H263243   2.455   5.817  16.790  1.1512  0.6630  1.5387
13918TIP3   OH263244   3.967   6.020   3.753  0.0844  0.1658 -0.1162
13918TIP3    H163245   3.981   6.001   3.846 -1.7979  0.8493  0.3581
13918TIP3    H263246   3.873   6.039   3.747  0.1103 -0.2139 -2.2339
13919TIP3   OH263247   0.267   2.855   4.557  0.2325 -0.1126 -0.2255
13919TIP3    H163248   0.226   2.895   4.481  1.4607  0.1127 -0.7879
13919TIP3    H263249   0.241   2.910   4.631 -0.3658  0.0915 -0.5904
13920TIP3   OH263250   6.701   5.511  14.869  0.3379 -0.5295 -0.2258
13920TIP3    H163251   6.691   5.499  14.774  2.2498  0.7245 -0.6526
13920TIP3    H263252   6.612   5.524  14.901 -0.4843 -2.2587 -1.6295
13921TIP3   OH263253   5.191   3.184  14.645 -0.4006 -0.1904 -0.7162
13921TIP3    H163254   5.269   3.144  14.605  0.2948  0.3843  0.0364
13921TIP3    H263255   5.150   3.233  14.574 -0.8563 -1.6013 -1.4696
13922TIP3   OH263256   4.269   5.327  13.923 -0.7845  0.0261 -0.3988
13922TIP3    H163257   4.257   5.360  14.012  0.9533 -0.0644 -0.0885
13922TIP3    H263258   4.196   5.364  13.874 -1.7096  0.1745  1.0281
13923TIP3   OH263259   1.777   1.894   5.329  0.4664 -0.0039 -0.4847
13923TIP3    H163260   1.738   1.822   5.280  0.8729 -1.0184  0.6413
13923TIP3    H263261   1.715   1.912   5.400  0.9525 -0.0697 -0.0408
13924TIP3   OH263262   5.234   0.911  15.678 -0.4312  0.3015  0.5854
13924TIP3    H163263   5.195   0.975  15.737 -0.3065 -0.1073  1.1241
13924TIP3    H263264   5.262   0.839  15.735 -1.5944 -0.7575 -0.1002
13925TIP3   OH263265   5.897   4.299  13.379 -0.5100 -0.7513  0.3957
13925TIP3    H163266   5.986   4.323  13.405 -0.6043 -1.5697  1.5240
13925TIP3    H263267   5.856   4.266  13.459 -1.4856 -1.3960 -0.3444
13926TIP3   OH263268   1.130   6.451   5.029  0.2420  0.5542 -0.4395
13926TIP3    H163269   1.036   6.432   5.029  0.1337  1.0367  0.2596
13926TIP3    H263270   1.167   6.385   5.088 -0.1865  2.5693  2.3142
13927TIP3   OH263271   3.149   3.827  16.689  0.5013 -0.6359  0.1601
13927TIP3    H163272   3.107   3.769  16.751 -1.7811  4.0590  3.6652
13927TIP3    H263273   3.241   3.830  16.717  0.0457 -0.5380  1.7049
13928TIP3   OH263274   3.582   0.243   4.094 -0.0891  0.1498  0.5286
13928TIP3    H163275   3.640   0.317   4.078 -0.2262  0.1543  0.0345
13928TIP3    H263276   3.496   0.283   4.109 -0.1234  0.1019  0.4602
13929TIP3   OH263277   1.259   1.589   0.506 -0.1340  0.1980 -0.5952
13929TIP3    H163278   1.190   1.525   0.523 -0.3958  0.6097 -0.0804
13929TIP3    H263279   1.295   1.564   0.421  0.8105 -1.5784  0.2726
13930TIP3   OH263280   1.159   6.307  13.423 -0.3176 -0.3444 -0.5290
13930TIP3    H163281   1.193   6.297  13.334 -0.7878  1.0238 -0.8943
13930TIP3    H263282   1.070   6.340  13.411 -0.2410  0.2644  0.4503
13931TIP3   OH263283   0.208   6.807   0.610 -0.1813 -0.2466 -0.2479
13931TIP3    H163284   0.158   6.835   0.686  1.8214  0.3193  0.9248
13931TIP3    H263285   0.218   6.887   0.557 -2.4960 -0.8525 -1.7496
13932TIP3   OH263286   6.583   6.616   4.684  0.2962  0.1025  0.2859
13932TIP3    H163287   6.511   6.637   4.625 -0.4089 -0.2833  0.9821
13932TIP3    H263288   6.609   6.701   4.721  1.2815  0.4577 -1.1404
13933TIP3   OH263289   2.072   0.673   5.428 -0.1743  0.3926  0.0959
13933TIP3    H163290   2.122   0.662   5.346  0.8311  0.5994  0.6602
13933TIP3    H263291   1.982   0.653   5.404 -0.1371  1.7739 -1.4043
13934TIP3   OH263292   1.461   3.816   4.922  0.0440  0.0825 -0.4039
13934TIP3    H163293   1.555   3.805   4.935 -0.3663 -1.4725  1.7206
13934TIP3    H263294   1.443   3.906   4.948  0.8419  0.1731 -0.1416
13935TIP3   OH263295   5.575   2.552  13.814 -0.2501 -0.4364 -0.5931
13935TIP3    H163296   5.557   2.482  13.751  1.5572 -0.9403 -0.6241
13935TIP3    H263297   5.603   2.626  13.759 -0.2628 -0.3391 -0.4674
13936TIP3   OH263298   4.452   1.339  16.080  0.2799  0.0731  0.3806
13936TIP3    H163299   4.446   1.381  15.995 -1.0911  0.8040  0.8048
13936TIP3    H263300   4.426   1.249  16.065 -0.8935  0.4331  0.1696
13937TIP3   OH263301   0.323   0.677   3.400  0.1466  0.4326 -0.0997
13937TIP3    H163302   0.228   0.669   3.394  0.0313 -0.1494  1.8349
13937TIP3    H263303   0.351   0.692   3.310 -1.6354 -0.7824 -0.9267
13938TIP3   OH263304   0.616   3.523  17.136 -0.3175 -0.2800 -0.5607
13938TIP3    H163305   0.601   3.584  17.065  0.9886 -1.1241 -1.6041
13938TIP3    H263306   0.711   3.516  17.142 -0.4302 -1.7064 -0.0431
13939TIP3   OH263307   4.323   2.966  13.304 -0.1291 -0.2840  0.5990
13939TIP3    H163308   4.268   2.985  13.380 -1.3232  1.8609 -0.7144
13939TIP3    H263309   4.273   2.999  13.229  2.4900  0.8435 -0.7819
13940TIP3   OH263310   5.971   0.573  11.462  0.1767 -0.4870 -0.1800
13940TIP3    H163311   5.942   0.619  11.383  1.5982 -0.3369 -0.6438
13940TIP3    H263312   5.992   0.643  11.524 -0.8206 -0.6025  0.3055
13941TIP3   OH263313   1.136   5.660  12.043 -0.9629  0.0147 -0.1575
13941TIP3    H163314   1.150   5.620  12.129 -1.1973  0.8476  0.2873
13941TIP3    H263315   1.065   5.609  12.004 -0.6626 -0.5471  0.0253
13942TIP3   OH263316   1.069   2.834  15.911  0.1785 -0.3921 -0.0496
13942TIP3    H163317   1.150   2.787  15.894  0.3228  0.4053 -1.7808
13942TIP3    H263318   1.004   2.765  15.925  1.5343 -1.1480  4.3410
13943TIP3   OH263319   5.270   4.907  12.902  0.4543 -0.4697 -0.7567
13943TIP3    H163320   5.224   4.924  12.820  0.1707 -2.0288 -0.9471
13943TIP3    H263321   5.203   4.874  12.962  0.3199  2.0708  0.6736
13944TIP3   OH263322   0.378   0.353   4.210 -0.6094  0.5927  0.2802
13944TIP3    H163323   0.462   0.308   4.220 -1.1036 -0.6250 -0.8323
13944TIP3    H263324   0.362   0.354   4.116 -2.3911 -0.2081  0.5393
13945TIP3   OH263325   1.003   6.326  12.707  0.3066 -0.3095  0.3824
13945TIP3    H163326   1.000   6.354  12.615 -0.2745  1.2077  0.8306
13945TIP3    H263327   0.990   6.407  12.757  1.4297 -0.9662  1.8271
13946TIP3   OH263328   2.535   5.302  17.079  0.1920  0.1467 -0.2180
13946TIP3    H163329   2.489   5.386  17.083 -1.6082 -0.7803 -0.4384
13946TIP3    H263330   2.556   5.282  17.170  0.1348  0.5658 -0.1100
13947TIP3   OH263331   4.296   6.088   4.869 -0.2089 -0.1259  0.7630
13947TIP3    H163332   4.343   6.063   4.949  0.0660  1.2504  1.0623
13947TIP3    H263333   4.219   6.136   4.901  0.3838  1.2382  0.1981
13948TIP3   OH263334   2.757   0.389  15.254  0.0243  0.7827 -0.4755
13948TIP3    H163335   2.733   0.443  15.330  0.0730  0.8603 -0.5154
13948TIP3    H263336   2.851   0.375  15.262  0.0774  1.0196 -0.6673
13949TIP3   OH263337   4.013   6.819   2.854  0.1196 -0.5548 -0.6986
13949TIP3    H163338   4.024   6.732   2.816  1.3426 -1.3585  1.3171
13949TIP3    H263339   3.939   6.811   2.914  0.5181 -0.3377 -0.1674
13950TIP3   OH263340   4.830   4.306   3.613  0.4420  0.4955  0.2811
13950TIP3    H163341   4.822   4.395   3.581  1.4688  0.3021 -0.5565
13950TIP3    H263342   4.874   4.258   3.543  0.3435 -0.5617  0.9076
13951TIP3   OH263343   5.932   0.599  15.438  0.0063  0.0613 -0.2571
13951TIP3    H163344   5.903   0.645  15.359 -0.5464  0.6031  0.2580
13951TIP3    H263345   6.014   0.557  15.412 -0.6592 -0.5862 -1.4155
13952TIP3   OH263346   6.552   1.621   4.817  0.0264  0.6121 -0.2540
13952TIP3    H163347   6.583   1.531   4.828 -1.8796  0.1147  1.8483
13952TIP3    H263348   6.458   1.613   4.807 -0.1078  2.3669 -0.7809
13953TIP3   OH263349   4.556   5.362   5.200  0.5918 -0.2692 -0.2439
13953TIP3    H163350   4.620   5.410   5.147  2.4149 -1.6024  0.6511
13953TIP3    H263351   4.592   5.365   5.289  0.5786 -2.8906 -0.0787
13954TIP3   OH263352   5.950   1.276  11.997 -0.0146  0.1116 -0.0263
13954TIP3    H163353   6.024   1.252  11.942 -1.9181  1.7443 -3.6013
13954TIP3    H263354   5.873   1.238  11.953 -1.8858  3.3432  0.1301
13955TIP3   OH263355   6.734   1.889   0.975  0.3350 -0.7332 -0.1163
13955TIP3    H163356   6.688   1.940   1.042  0.3672  0.1823 -0.7784
13955TIP3    H263357   6.826   1.914   0.986  0.3600 -0.7092 -0.3920
13956TIP3   OH263358   0.380   1.481   5.287 -0.2424  0.2617 -0.0477
13956TIP3    H163359   0.322   1.557   5.296 -0.7537 -0.2893  1.6027
13956TIP3    H263360   0.453   1.513   5.235 -1.1755  1.4569 -0.6792
13957TIP3   OH263361   4.519   5.352   2.808  0.3055 -0.1573  0.6167
13957TIP3    H163362   4.446   5.392   2.855 -0.5929 -1.0769  0.0404
13957TIP3    H263363   4.595   5.404   2.834 -0.8111  1.9924 -0.1866
13958TIP3   OH263364   5.795   3.817   2.538  0.2604 -0.5440  0.2537
13958TIP3    H163365   5.851   3.762   2.484  0.2387 -1.0936  0.7843
13958TIP3    H263366   5.848   3.835   2.616  0.4976  0.6761 -0.1658
13959TIP3   OH263367   2.128   6.019   0.650  0.5285  0.5233 -0.0536
13959TIP3    H163368   2.053   6.041   0.706  1.4220  0.8140  1.0895
13959TIP3    H263369   2.198   6.078   0.681  1.6841 -0.8343  0.0030
13960TIP3   OH263370   0.964   4.017   4.612  0.2922 -0.1416 -0.2338
13960TIP3    H163371   0.966   3.966   4.692 -0.3429 -0.7213 -0.5781
13960TIP3    H263372   0.914   3.964   4.550 -0.1116  0.7483 -0.6978
13961TIP3   OH263373   5.032   0.210   5.438  0.6564 -0.0065 -0.4026
13961TIP3    H163374   5.123   0.240   5.441  0.6664 -0.0843  0.1880
13961TIP3    H263375   5.027   0.142   5.505 -0.2265  1.1280  0.7501
13962TIP3   OH263376   5.093   0.752  16.735 -0.7788 -0.2546 -0.3356
13962TIP3    H163377   5.056   0.812  16.800  1.9572  0.9855  0.1933
13962TIP3    H263378   5.036   0.763  16.658 -1.0965  2.1194  0.1440
13963TIP3   OH263379   2.641   1.872   5.008  0.1377  0.2030 -0.1004
13963TIP3    H163380   2.636   1.783   4.975  0.8800 -0.0268  0.3768
13963TIP3    H263381   2.709   1.914   4.956 -1.6918  1.1819 -1.8255
13964TIP3   OH263382   5.741   4.977   0.116 -0.5280  0.6016 -0.2054
13964TIP3    H163383   5.790   5.057   0.133  0.6917 -0.3541  1.0133
13964TIP3    H263384   5.771   4.948   0.030  1.5506 -0.2485  0.7393
13965TIP3   OH263385   2.148   2.035  12.493  0.4963 -0.3138 -0.0058
13965TIP3    H163386   2.226   1.981  12.500  0.6132 -0.0919  0.4094
13965TIP3    H263387   2.181   2.125  12.486  0.3122 -0.3108 -0.9623
13966TIP3   OH263388   2.634   2.928   3.874 -0.0335 -0.0963  0.1870
13966TIP3    H163389   2.655   2.940   3.781 -1.5859 -0.2344 -0.2068
13966TIP3    H263390   2.693   2.988   3.919 -0.3609  1.2058 -1.0236
13967TIP3   OH263391   5.776   2.237  12.168 -0.3422 -0.4227  0.6614
13967TIP3    H163392   5.698   2.290  12.181 -0.6145 -0.0881 -1.8941
13967TIP3    H263393   5.779   2.220  12.074  2.3243 -0.9490  0.7518
13968TIP3   OH263394   5.885   6.186   1.439 -0.1516  0.0962  0.4162
13968TIP3    H163395   5.817   6.215   1.378  1.8363 -0.7467 -2.4651
13968TIP3    H263396   5.876   6.091   1.442  0.6782 -0.0064  0.1656
13969TIP3   OH263397   0.552   1.279  10.899  0.3127 -0.0863 -0.1913
13969TIP3    H163398   0.472   1.233  10.926 -0.5638  1.1271 -0.6219
13969TIP3    H263399   0.527   1.327  10.820  1.0657  1.4205  0.4388
13970TIP3   OH263400   1.358   2.309  12.589  0.2777 -0.3932 -0.2599
13970TIP3    H163401   1.274   2.263  12.585  0.0800 -0.0593 -0.0021
13970TIP3    H263402   1.388   2.298  12.679 -0.1209  0.5909  0.0054
13971TIP3   OH263403   0.172   4.213   3.322 -0.1383  0.2923  0.5911
13971TIP3    H163404   0.120   4.135   3.341  4.7894 -4.2821 -2.1114
13971TIP3    H263405   0.157   4.230   3.229  1.8319 -0.1745  0.1398
13972TIP3   OH263406   0.653   6.611  12.541  0.0696  0.0702 -0.3723
13972TIP3    H163407   0.622   6.666  12.613  0.5545  1.6492 -1.3168
13972TIP3    H263408   0.709   6.669  12.489 -1.0694 -0.7114 -2.5924
13973TIP3   OH263409   3.701   5.413  15.657 -0.0561  0.0880 -0.4298
13973TIP3    H163410   3.675   5.323  15.637  0.4373 -0.0693 -0.3698
13973TIP3    H263411   3.628   5.466  15.626 -0.7230 -0.3853  0.2649
13974TIP3   OH263412   1.681   4.101  12.210  0.3506  0.2698  0.2847
13974TIP3    H163413   1.750   4.132  12.268  1.2013 -0.1919 -0.4648
13974TIP3    H263414   1.631   4.039  12.263  0.1291  1.0587  1.0200
13975TIP3   OH263415   6.215   6.479  11.268 -0.4546  0.3932  0.0452
13975TIP3    H163416   6.265   6.397  11.275  1.1073  1.3696  1.1384
13975TIP3    H263417   6.227   6.521  11.354 -1.3711  1.6908 -0.4329
13976TIP3   OH263418   5.710   3.812  11.993 -0.1565  1.0289  0.1177
13976TIP3    H163419   5.656   3.740  12.023  1.7036  0.5298  2.5827
13976TIP3    H263420   5.746   3.781  11.909  0.5011 -0.8932  1.0545
13977TIP3   OH263421   0.127   1.496  13.390 -0.2177  0.3395 -0.0287
13977TIP3    H163422   0.092   1.575  13.430 -0.4225  0.3703 -0.2682
13977TIP3    H263423   0.058   1.431  13.399 -0.7020  0.6499 -1.2986
13978TIP3   OH263424   2.202   0.281  17.238  0.1439 -0.5010  0.2369
13978TIP3    H163425   2.177   0.216  17.303  0.1618 -0.1692  0.5810
13978TIP3    H263426   2.120   0.322  17.211  0.2210  0.0040  0.7425
13979TIP3   OH263427   0.091   6.675  15.226 -0.4290 -0.3559 -0.0906
13979TIP3    H163428   0.150   6.678  15.151  0.0989  1.8581  0.3225
13979TIP3    H263429   0.144   6.708  15.299 -1.2816 -1.2968  0.9915
13980TIP3   OH263430   1.062   5.894  11.715  0.7354 -0.2834  0.0576
13980TIP3    H163431   1.060   5.929  11.627 -1.0624 -0.4984 -0.0266
13980TIP3    H263432   1.112   5.812  11.707  1.9927  0.5105 -0.4083
13981TIP3   OH263433   0.611   2.690   2.534 -0.7715 -0.1153 -0.1615
13981TIP3    H163434   0.572   2.744   2.466 -0.8779  0.5521  0.4144
13981TIP3    H263435   0.702   2.721   2.540 -0.7988 -0.0820  0.0909
13982TIP3   OH263436   0.508   1.157  14.377  0.2813 -0.5941 -0.0159
13982TIP3    H163437   0.592   1.201  14.394 -1.2477  1.9187  1.7435
13982TIP3    H263438   0.475   1.199  14.297 -0.0282 -0.3715  0.2258
13983TIP3   OH263439   4.011   5.003  16.128 -0.3299 -0.6291 -0.5961
13983TIP3    H163440   4.015   5.003  16.032  0.8819  1.2179 -0.5854
13983TIP3    H263441   4.021   4.910  16.152 -0.2633 -1.0758 -2.2307
13984TIP3   OH263442   5.569   4.148   1.138  0.1188 -0.2669 -0.7017
13984TIP3    H163443   5.635   4.101   1.087  0.4836 -0.0557 -0.4359
13984TIP3    H263444   5.571   4.237   1.104 -0.8079 -0.5216 -1.4267
13985TIP3   OH263445   0.601   5.222   3.712 -0.2639  0.3753 -0.0155
13985TIP3    H163446   0.562   5.145   3.670 -2.6709  0.9312  1.0471
13985TIP3    H263447   0.615   5.284   3.640 -2.3849  0.5408 -0.3436
13986TIP3   OH263448   3.195   6.713  11.264 -0.5605  0.1519  0.7197
13986TIP3    H163449   3.250   6.681  11.335 -0.1598  0.7250  0.6752
13986TIP3    H263450   3.204   6.809  11.268  0.6527  0.1539 -1.0218
13987TIP3   OH263451   3.458   6.094   5.523  0.3161  0.2955  0.4322
13987TIP3    H163452   3.473   6.185   5.496 -0.5835  0.2662 -0.2340
13987TIP3    H263453   3.460   6.097   5.619  1.0666  0.8759  0.4045
13988TIP3   OH263454   0.930   2.788   0.970  0.6884  0.0755  0.4283
13988TIP3    H163455   0.872   2.833   1.032  2.7205 -0.4347  2.8870
13988TIP3    H263456   0.896   2.698   0.968 -0.2956  0.4566 -0.4194
13989TIP3   OH263457   2.602   4.039  12.842  0.4152 -0.5969  0.0026
13989TIP3    H163458   2.538   4.052  12.912  0.2907  0.4856 -0.2868
13989TIP3    H263459   2.636   3.951  12.856  2.3579  0.4862  3.0417
13990TIP3   OH263460   1.209   3.950  16.465 -0.0422 -0.9225  1.0256
13990TIP3    H163461   1.223   3.962  16.371  2.3608  0.6032  1.4811
13990TIP3    H263462   1.219   3.855  16.478  2.5598 -0.8873  0.0308
13991TIP3   OH263463   6.712   5.001   0.220  0.3747  0.3824 -0.6983
13991TIP3    H163464   6.678   5.050   0.145 -0.0587  0.3419 -0.5290
13991TIP3    H263465   6.646   4.933   0.236 -0.2433  1.2577  0.6119
13992TIP3   OH263466   6.420   4.099   3.687  0.4471  0.1634  0.1340
13992TIP3    H163467   6.345   4.112   3.745  1.4463  0.2353  1.4454
13992TIP3    H263468   6.404   4.158   3.613 -0.8753  0.0314  0.2920
13993TIP3   OH263469   5.234   2.695  14.447  0.3740 -0.3910  0.7337
13993TIP3    H163470   5.303   2.750  14.483  1.1777 -0.0154 -1.2648
13993TIP3    H263471   5.274   2.608  14.440  0.8439 -0.0862 -0.8075
13994TIP3   OH263472   0.299   3.473   5.127 -0.2754  0.0058 -0.9026
13994TIP3    H163473   0.356   3.405   5.161  0.5615  0.4743 -1.3207
13994TIP3    H263474   0.212   3.451   5.160  0.2539 -0.3665  0.2904
13995TIP3   OH263475   3.793   0.707   2.519  0.7803  0.2377  0.1576
13995TIP3    H163476   3.720   0.647   2.506 -0.6131  1.7694  0.6262
13995TIP3    H263477   3.799   0.757   2.437  0.3327  1.1051  0.6384
13996TIP3   OH263478   2.022   2.294   5.789  0.0236 -0.1225 -0.1708
13996TIP3    H163479   2.006   2.329   5.877  0.3647 -1.5187  0.4784
13996TIP3    H263480   2.051   2.204   5.804  0.1868 -0.3567 -1.7196
13997TIP3   OH263481   3.887   3.344   4.556 -0.0053 -0.4233  0.0314
13997TIP3    H163482   3.845   3.426   4.584  1.9331  0.3659  0.7795
13997TIP3    H263483   3.952   3.326   4.624  0.7222 -1.6985 -0.9731
13998TIP3   OH263484   4.985   1.663  16.023  0.2921 -1.1913  0.1509
13998TIP3    H163485   5.026   1.655  16.109  1.9819  0.2031 -0.4571
13998TIP3    H263486   5.014   1.585  15.975  2.7680 -0.0236 -0.4152
13999TIP3   OH263487   1.250   5.716   1.661  0.7092 -0.3141 -0.3729
13999TIP3    H163488   1.277   5.627   1.685  2.3088  0.6875  1.8503
13999TIP3    H263489   1.233   5.711   1.567  2.7861 -2.5105 -0.7284
14000TIP3   OH263490   6.315   3.526  11.085  0.1811  0.0576  0.1955
14000TIP3    H163491   6.255   3.512  11.012 -0.3287 -1.3511  0.8499
14000TIP3    H263492   6.398   3.552  11.044 -0.8200  1.9592 -0.7219
14001TIP3   OH263493   3.175   1.894  14.058  0.3681  0.1269 -0.2322
14001TIP3    H163494   3.211   1.829  13.998 -1.0900  0.7711 -1.8912
14001TIP3    H263495   3.110   1.846  14.110 -0.3064  0.1187 -1.0665
14002TIP3   OH263496   3.284   1.999  15.198 -0.2952  0.1520 -0.3105
14002TIP3    H163497   3.359   1.948  15.168  0.4954  1.6405 -0.9722
14002TIP3    H263498   3.273   1.974  15.290  1.2151  0.1378 -0.1069
14003TIP3   OH263499   5.823   4.927  15.632 -0.3458  0.0052 -0.3613
14003TIP3    H163500   5.891   4.860  15.641  0.7450  0.5598 -3.4183
14003TIP3    H263501   5.779   4.906  15.550  0.2086  3.1096 -1.5728
14004TIP3   OH263502   6.588   2.306   6.048  0.1627  0.5989 -0.0400
14004TIP3    H163503   6.520   2.256   6.093  0.1715  0.8326  0.2355
14004TIP3    H263504   6.648   2.239   6.015  1.0993  0.4820  1.7938
14005TIP3   OH263505   3.364   0.187  17.250  0.1898 -0.0532  0.1415
14005TIP3    H163506   3.351   0.104  17.295  0.1891  0.4096  1.0276
14005TIP3    H263507   3.277   0.213  17.221 -0.5562  1.5373  3.3499
14006TIP3   OH263508   4.979   0.848  15.934 -0.1537 -0.1875  0.3839
14006TIP3    H163509   5.001   0.927  15.885 -0.8989 -0.3516 -0.2259
14006TIP3    H263510   4.934   0.881  16.013  0.0524  0.0205  0.4167
14007TIP3   OH263511   4.955   1.594  13.581 -0.2372  0.0536  0.2904
14007TIP3    H163512   4.936   1.574  13.673 -2.9514  0.9868  0.0398
14007TIP3    H263513   4.944   1.510  13.536  1.4701 -0.4876  0.8058
14008TIP3   OH263514   5.959   3.210  15.451 -0.0051  0.0650  0.2153
14008TIP3    H163515   5.888   3.178  15.396  0.4724  0.1552 -0.4647
14008TIP3    H263516   5.929   3.296  15.481  0.4473  0.7959 -1.3218
14009TIP3   OH263517   0.081   5.228   1.799 -0.1849 -0.8163  0.4287
14009TIP3    H163518   0.168   5.196   1.777 -0.3600 -1.1313  0.1940
14009TIP3    H263519   0.089   5.323   1.795 -0.4003 -0.8409 -1.7572
14010TIP3   OH263520   2.710   3.386  11.613 -0.2692  0.0024  0.2465
14010TIP3    H163521   2.707   3.348  11.526 -0.7057 -0.4188  0.4391
14010TIP3    H263522   2.630   3.354  11.656  0.4664 -0.6738  1.1617
14011TIP3   OH263523   5.800   5.938  14.808 -0.3307 -0.1313 -0.5651
14011TIP3    H163524   5.878   5.986  14.836 -1.2383  1.0870 -0.0016
14011TIP3    H263525   5.788   5.962  14.716 -0.1903 -0.0901 -0.5725
14012TIP3   OH263526   0.009   2.484   0.334  0.0614  0.2446  0.5269
14012TIP3    H163527   0.060   2.439   0.401 -0.4238  0.8082  1.2857
14012TIP3    H263528  -0.023   2.563   0.377  0.4089  1.0271 -0.6067
14013TIP3   OH263529   6.202   6.319  13.004 -0.4005  0.4900 -0.4826
14013TIP3    H163530   6.170   6.334  13.093  2.0481  0.8959  0.3833
14013TIP3    H263531   6.199   6.224  12.993 -1.5338  0.4875 -0.3499
14014TIP3   OH263532   2.324   5.675  14.411  0.1532 -0.9952  0.2311
14014TIP3    H163533   2.385   5.639  14.347 -0.2901 -1.6161  0.1534
14014TIP3    H263534   2.373   5.676  14.493  0.4514 -0.9663  0.0539
14015TIP3   OH263535   1.330   5.190   4.420  0.0394 -0.0959  0.5514
14015TIP3    H163536   1.381   5.231   4.490  0.5326 -0.4002  0.3781
14015TIP3    H263537   1.382   5.205   4.341  0.1378 -0.8879  0.4580
14016TIP3   OH263538   6.346   1.480  15.224  0.1619  0.4246  0.4198
14016TIP3    H163539   6.431   1.468  15.267  0.7196  0.4411 -0.6416
14016TIP3    H263540   6.313   1.562  15.258  1.2876  1.2012 -0.2788
14017TIP3   OH263541   4.822   2.874  14.644  0.1770 -0.2732 -0.0279
14017TIP3    H163542   4.755   2.934  14.611  0.9775  0.9491  0.5090
14017TIP3    H263543   4.873   2.851  14.566  1.1914  1.4788  0.0885
14018TIP3   OH263544   4.344   1.909  12.140 -0.2686 -0.6165 -0.4193
14018TIP3    H163545   4.410   1.978  12.140  0.4861 -1.3070  0.1872
14018TIP3    H263546   4.260   1.955  12.138  0.2238  0.2897 -0.7741
14019TIP3   OH263547   0.323   4.030   4.412 -0.1099  0.2148 -0.6485
14019TIP3    H163548   0.240   4.051   4.454  0.5215  0.2233  0.6663
14019TIP3    H263549   0.314   4.062   4.323 -2.0140 -1.0741 -0.9539
14020TIP3   OH263550   1.493   4.543  16.510  0.0985  0.1726  0.4699
14020TIP3    H163551   1.405   4.512  16.487  0.7024 -0.9449 -0.4398
14020TIP3    H263552   1.478   4.611  16.575 -1.3392 -1.6559  2.1919
14021TIP3   OH263553   4.815   5.129  12.172 -0.1459 -0.1059  0.4839
14021TIP3    H163554   4.861   5.204  12.136  1.1210 -1.7797 -1.6272
14021TIP3    H263555   4.731   5.127  12.126 -0.3472  0.2206  0.8313
14022TIP3   OH263556   4.531   5.820   2.413 -0.0472 -0.4736 -0.0500
14022TIP3    H163557   4.446   5.796   2.448 -0.6424 -0.0997 -1.1976
14022TIP3    H263558   4.587   5.744   2.431 -0.3307 -0.3329  1.5913
14023TIP3   OH263559   6.359   6.575   5.336 -0.0353 -0.0155  0.6644
14023TIP3    H163560   6.366   6.480   5.321 -0.0137 -0.1698  1.5773
14023TIP3    H263561   6.449   6.604   5.347 -0.1126 -0.1258  1.6859
14024TIP3   OH263562   3.626   0.248   3.105 -0.3396 -0.2108 -0.0245
14024TIP3    H163563   3.709   0.288   3.131 -1.3920  2.5585 -0.6302
14024TIP3    H263564   3.594   0.204   3.184  1.1751 -0.4535  0.4862
14025TIP3   OH263565   2.614   4.354   0.914  0.3751  0.6402  0.5221
14025TIP3    H163566   2.536   4.337   0.968 -0.2990  0.0115 -0.6162
14025TIP3    H263567   2.672   4.280   0.933  0.8510  1.2666  1.6047
14026TIP3   OH263568   5.119   6.546   1.497  0.2139 -0.3769 -0.2374
14026TIP3    H163569   5.069   6.503   1.567  1.3553  0.3308  1.0544
14026TIP3    H263570   5.152   6.626   1.537  1.2550 -0.1658 -1.4744
14027TIP3   OH263571   3.842   2.523   2.991  0.1988 -0.0282 -0.7173
14027TIP3    H163572   3.815   2.431   2.991  0.6987 -0.2153  1.3049
14027TIP3    H263573   3.762   2.572   3.011  0.0998 -0.0726 -0.9975
14028TIP3   OH263574   5.396   2.635  11.662 -0.4788 -0.4658 -0.0285
14028TIP3    H163575   5.487   2.609  11.651 -0.5820 -0.3688 -1.3209
14028TIP3    H263576   5.397   2.697  11.735  0.6874  0.4876 -0.8102
14029TIP3   OH263577   1.398   6.391   3.762 -0.1861  0.3478 -0.3179
14029TIP3    H163578   1.448   6.324   3.809 -1.5892  0.5783  1.6615
14029TIP3    H263579   1.387   6.461   3.826  0.0268  1.8663 -1.8853
14030TIP3   OH263580   6.799   4.543   3.434 -0.2930  0.7862 -0.1704
14030TIP3    H163581   6.812   4.454   3.399  1.1173  0.8896  0.0113
14030TIP3    H263582   6.718   4.538   3.485 -0.4399 -0.2953 -0.4875
14031TIP3   OH263583   4.695   5.831   0.940 -0.0888  0.4614  0.0711
14031TIP3    H163584   4.779   5.859   0.975  1.5033  2.2032 -4.4059
14031TIP3    H263585   4.635   5.904   0.958 -0.2195  0.0152  1.6196
14032TIP3   OH263586   5.255   2.278   2.633 -0.1647  0.2826 -0.4448
14032TIP3    H163587   5.194   2.237   2.571 -0.9110  1.3691 -0.4621
14032TIP3    H263588   5.240   2.372   2.623 -0.4805  0.4980  1.5328
14033TIP3   OH263589   3.401   5.517  14.446 -0.3054  0.2486  0.2897
14033TIP3    H163590   3.445   5.583  14.499 -1.5600  0.2277  1.4182
14033TIP3    H263591   3.309   5.522  14.472 -0.4659 -1.8653  0.3296
14034TIP3   OH263592   1.379   0.124   4.774 -0.0888 -0.1050  0.4073
14034TIP3    H163593   1.309   0.121   4.708 -0.1727  0.2018  0.4837
14034TIP3    H263594   1.369   0.209   4.816 -0.7996 -0.7807  1.6485
14035TIP3   OH263595   3.241   2.314   2.420  0.2631 -0.3010 -0.4815
14035TIP3    H163596   3.181   2.296   2.492 -1.1876  1.0454 -1.3006
14035TIP3    H263597   3.266   2.405   2.431  1.2810 -0.5212 -0.8170
14036TIP3   OH263598   2.560   3.569  17.046  0.4863 -0.4339 -0.9557
14036TIP3    H163599   2.560   3.474  17.049 -1.2098 -0.4402  0.1002
14036TIP3    H263600   2.498   3.595  17.114  1.2144  1.4382 -0.9506
14037TIP3   OH263601   5.485   3.548   1.241 -0.2601  0.4995  0.6995
14037TIP3    H163602   5.466   3.464   1.283  1.3225  0.5604  1.6376
14037TIP3    H263603   5.512   3.525   1.152  0.4625 -0.0254  1.0482
14038TIP3   OH263604   0.382   1.773   1.021  0.6020  0.1783 -0.0151
14038TIP3    H163605   0.292   1.748   1.044  1.1536 -1.4504  0.4902
14038TIP3    H263606   0.432   1.760   1.101  1.9222 -2.3117 -1.1459
14039TIP3   OH263607   2.417   2.871  12.980 -0.1344  0.3466  0.1990
14039TIP3    H163608   2.348   2.816  12.944 -0.2117 -0.6778  1.8074
14039TIP3    H263609   2.414   2.855  13.075  0.5300  2.3514  0.6099
14040TIP3   OH263610   4.222   1.772   0.918  0.4320 -0.0823  0.2958
14040TIP3    H163611   4.190   1.695   0.965 -0.9520  0.2538 -0.0389
14040TIP3    H263612   4.307   1.746   0.883 -0.6601 -2.0229 -1.1138
14041TIP3   OH263613   4.713   2.356   1.998  0.3360 -0.1725  0.3564
14041TIP3    H163614   4.801   2.335   1.968 -0.4142 -1.8888 -0.7713
14041TIP3    H263615   4.685   2.278   2.046  0.1253  1.1138  2.4469
14042TIP3   OH263616   1.711   2.344   4.912 -0.2218 -0.8993 -0.2272
14042TIP3    H163617   1.778   2.401   4.874  1.1698 -2.7065 -0.6260
14042TIP3    H263618   1.643   2.404   4.944  1.0523  0.9363 -0.8265
14043TIP3   OH263619   3.969   2.500  13.357 -0.1425 -0.3812 -0.3808
14043TIP3    H163620   3.889   2.538  13.321  0.2638  0.9267  0.0396
14043TIP3    H263621   4.036   2.566  13.341  0.4329 -0.5702  1.0629
14044TIP3   OH263622   4.733   2.034  16.811 -0.0570  0.3009 -0.0869
14044TIP3    H163623   4.675   2.047  16.737 -0.7433 -1.6729  0.0327
14044TIP3    H263624   4.674   2.027  16.887  0.4595  0.0757  0.3019
14045TIP3   OH263625   0.943   2.990   3.082  0.6427  0.0081  0.5272
14045TIP3    H163626   0.870   2.956   3.031  1.2626 -0.5587 -0.0162
14045TIP3    H263627   0.959   2.925   3.149  0.8765 -0.0496  0.4175
14046TIP3   OH263628   5.773   6.621   2.690 -0.4097  0.5383  0.1452
14046TIP3    H163629   5.839   6.587   2.750  0.2262 -2.6821 -2.1175
14046TIP3    H263630   5.690   6.589   2.725 -0.0076 -1.6727 -0.7902
14047TIP3   OH263631   2.968   3.804  14.293 -0.7221 -0.5670  0.3737
14047TIP3    H163632   2.898   3.863  14.320 -0.1700 -0.5793  1.9496
14047TIP3    H263633   3.044   3.834  14.342 -0.1219 -1.7927  0.2202
14048TIP3   OH263634   6.802   0.266  14.781  0.8198 -0.1162  0.2528
14048TIP3    H163635   6.754   0.188  14.755 -1.7294  1.0035  1.2660
14048TIP3    H263636   6.839   0.244  14.867  1.4706 -0.7034 -0.1648
14049TIP3   OH263637   4.898   5.050   0.503 -0.5634 -0.9708  0.3586
14049TIP3    H163638   4.957   4.980   0.531 -0.7245 -0.5357  1.8881
14049TIP3    H263639   4.922   5.125   0.557 -0.8694 -0.0489 -0.7555
14050TIP3   OH263640   6.629   0.323   1.507  0.2451  0.4869  0.5249
14050TIP3    H163641   6.683   0.244   1.510 -2.0631 -1.3180 -1.2529
14050TIP3    H263642   6.607   0.340   1.599 -0.0478 -1.6437  0.9104
14051TIP3   OH263643   1.382   5.338  15.470  0.2407 -0.5716 -0.0068
14051TIP3    H163644   1.465   5.368  15.508 -0.4438  0.6760  0.5317
14051TIP3    H263645   1.391   5.243  15.466  1.1433 -0.5628  1.3705
14052TIP3   OH263646   1.652   5.500   5.117  0.5345  0.1962 -0.6397
14052TIP3    H163647   1.738   5.459   5.102  0.2158  0.1047 -2.4141
14052TIP3    H263648   1.609   5.498   5.031 -1.3935 -0.0628  0.2856
14053TIP3   OH263649   6.764   6.708   5.419  0.2071 -0.2165  0.1420
14053TIP3    H163650   6.737   6.781   5.364  0.0296 -0.3368  0.0696
14053TIP3    H263651   6.682   6.673   5.454  0.1232 -1.5657 -1.3044
14054TIP3   OH263652   0.483   4.071  16.846 -0.0127 -0.4448 -0.0343
14054TIP3    H163653   0.427   4.148  16.849  0.4689  0.0952 -2.7739
14054TIP3    H263654   0.572   4.106  16.845  0.2627 -1.1156  0.1882
14055TIP3   OH263655   5.492   4.024  14.669  0.2908 -0.0367  0.1424
14055TIP3    H163656   5.501   3.934  14.698  1.3929  0.1368  0.3947
14055TIP3    H263657   5.406   4.051  14.699  1.0809 -0.0942  2.6719
14056TIP3   OH263658   6.146   1.523  16.417 -0.3592 -0.6649 -0.0940
14056TIP3    H163659   6.056   1.528  16.449  0.2720  0.8123  1.6208
14056TIP3    H263660   6.152   1.594  16.353 -0.2014 -0.2286  0.3989
14057TIP3   OH263661   2.559   2.562   2.925  0.2347  0.4457 -0.1793
14057TIP3    H163662   2.577   2.498   2.856  0.2969  0.7115 -0.4083
14057TIP3    H263663   2.642   2.572   2.971  0.8979  2.1676 -1.6449
14058TIP3   OH263664   1.328   0.690   3.903 -0.0109  0.5029 -0.6455
14058TIP3    H163665   1.232   0.691   3.905 -0.0031  0.7164  0.3663
14058TIP3    H263666   1.350   0.647   3.820 -0.9812  0.3156 -0.8192
14059TIP3   OH263667   1.943   2.014   1.827 -0.0405  0.6317  0.4128
14059TIP3    H163668   1.849   2.013   1.844 -0.1237  1.0433 -0.0262
14059TIP3    H263669   1.978   2.081   1.886  0.0932 -0.0508  1.1350
14060TIP3   OH263670   5.954   6.381   4.261  0.0013 -0.4608 -0.0670
14060TIP3    H163671   5.908   6.461   4.287 -0.9953 -0.1552 -2.4350
14060TIP3    H263672   6.021   6.412   4.199  1.4494 -1.2326  1.0389
14061TIP3   OH263673   1.057   3.642   6.408 -0.4994 -0.5525 -0.0917
14061TIP3    H163674   1.030   3.719   6.458  0.3985 -0.2337 -0.0767
14061TIP3    H263675   1.152   3.646   6.408 -0.4663 -0.8683 -1.3270
14062TIP3   OH263676   2.093   4.995   5.517 -0.1721 -0.6602 -0.3042
14062TIP3    H163677   2.185   4.971   5.509 -0.1926 -0.6699 -0.5228
14062TIP3    H263678   2.080   5.064   5.451 -0.8976 -2.3474 -2.0292
14063TIP3   OH263679   0.711   4.205   2.125  0.2611 -0.0329  0.7802
14063TIP3    H163680   0.765   4.192   2.203 -2.7226  0.0805  3.0662
14063TIP3    H263681   0.759   4.269   2.073  2.0512  0.4735  2.8805
14064TIP3   OH263682   0.099   0.092   5.187 -0.0707 -0.6307  0.6511
14064TIP3    H163683   0.077   0.011   5.141 -0.2685 -0.3896  0.3113
14064TIP3    H263684   0.043   0.159   5.146  1.1834 -0.0182 -0.1527
14065TIP3   OH263685   3.981   6.444   2.982 -0.1520  0.2133  0.0526
14065TIP3    H163686   3.985   6.447   3.078  0.0967  0.9508  0.0250
14065TIP3    H263687   4.030   6.364   2.959  1.0711  0.8148  0.4808
14066TIP3   OH263688   5.442   5.558  16.936 -0.1526  0.2473  0.2217
14066TIP3    H163689   5.397   5.514  17.007  1.0125 -2.3005 -0.5028
14066TIP3    H263690   5.525   5.587  16.975 -0.3330  0.5654  0.3680
14067TIP3   OH263691   3.913   5.444  13.212 -0.4703  0.8458  0.2489
14067TIP3    H163692   3.825   5.472  13.185 -0.8764 -1.3822 -1.0137
14067TIP3    H263693   3.972   5.504  13.167 -1.3182  1.8521  0.4440
14068TIP3   OH263694   4.408   5.139   2.367 -0.0019 -0.8185 -0.2130
14068TIP3    H163695   4.345   5.125   2.438  0.1932  0.4706  0.2419
14068TIP3    H263696   4.482   5.182   2.409  0.5963 -1.0662 -0.9965
14069TIP3   OH263697   3.876   6.402  15.364  0.8945  0.1727  0.4184
14069TIP3    H163698   3.954   6.457  15.373  1.5545 -0.7995  0.8445
14069TIP3    H263699   3.899   6.340  15.295  0.2671  0.2461  0.1386
14070TIP3   OH263700   0.769   1.945   4.564 -0.2818 -0.0314 -0.1128
14070TIP3    H163701   0.704   1.933   4.496  2.0609  1.7767 -2.9514
14070TIP3    H263702   0.837   1.880   4.545  0.9007  1.1894 -0.2108
14071TIP3   OH263703   2.112   6.550   4.957 -0.0759  0.3907 -0.2947
14071TIP3    H163704   2.124   6.645   4.955  0.1896  0.3499 -0.5835
14071TIP3    H263705   2.022   6.538   4.987  0.6242  0.6936  2.1474
14072TIP3   OH263706   0.910   1.449  12.404  0.0959 -0.5441 -0.1233
14072TIP3    H163707   0.951   1.404  12.331  0.1683 -0.1325 -0.3403
14072TIP3    H263708   0.909   1.542  12.378 -1.3746 -0.5871 -0.3140
14073TIP3   OH263709   5.286   4.318   1.648 -0.5740  0.0815 -0.0223
14073TIP3    H163710   5.269   4.263   1.724 -0.3699  0.4321  0.2832
14073TIP3    H263711   5.211   4.378   1.645 -0.6352 -0.0022 -0.1601
14074TIP3   OH263712   6.643   6.342   5.341 -0.2622 -0.2716  0.0088
14074TIP3    H163713   6.705   6.388   5.285  0.3828 -1.0047  0.0943
14074TIP3    H263714   6.591   6.288   5.282 -0.3787 -0.1510  0.0014
14075TIP3   OH263715   0.964   4.840  11.103 -0.4467 -0.4988  0.9268
14075TIP3    H163716   1.003   4.832  11.191  0.3995  3.5943  1.1332
14075TIP3    H263717   1.027   4.796  11.045  0.2059 -1.1989  2.1261
14076TIP3   OH263718   1.508   4.187   3.588  0.5025  0.2162  0.0150
14076TIP3    H163719   1.433   4.177   3.647  1.9185 -0.2883  1.8280
14076TIP3    H263720   1.552   4.267   3.619  0.7049  0.5267 -1.0391
14077TIP3   OH263721   6.018   1.752   2.420  0.1511  0.0737 -0.1320
14077TIP3    H163722   6.030   1.817   2.490 -0.3087 -0.3325  0.3287
14077TIP3    H263723   5.985   1.802   2.346  1.4667  0.6607 -0.3568
14078TIP3   OH263724   6.666   4.186   2.066 -0.4352 -0.5065 -0.1016
14078TIP3    H163725   6.745   4.131   2.062  0.5913  0.7539  1.6973
14078TIP3    H263726   6.667   4.234   1.983  0.1467 -1.1827 -0.5059
14079TIP3   OH263727   2.564   2.141  13.031  0.0487 -0.9747 -0.0259
14079TIP3    H163728   2.512   2.221  13.039 -0.5263 -1.4369  1.1297
14079TIP3    H263729   2.638   2.166  12.976 -0.6487  0.0780 -0.5170
14080TIP3   OH263730   3.898   6.070   6.376  0.3238 -0.2399 -0.5530
14080TIP3    H163731   3.966   6.052   6.440 -0.0997 -1.0760 -0.3204
14080TIP3    H263732   3.939   6.128   6.312  0.1442  2.3858  1.5689
14081TIP3   OH263733   1.584   1.967   2.759  0.7357 -0.2142  0.0684
14081TIP3    H163734   1.537   1.940   2.680  0.1358  0.4403  0.1982
14081TIP3    H263735   1.646   1.896   2.775  1.1665 -0.1590 -1.2370
14082TIP3   OH263736   5.447   5.805  11.987  0.2632 -0.3643 -0.1706
14082TIP3    H163737   5.515   5.769  11.931  0.2046 -0.1491 -0.3833
14082TIP3    H263738   5.493   5.828  12.068  0.2897 -0.9527 -0.0168
14083TIP3   OH263739   4.415   5.748  14.893 -0.4600 -0.4512  0.1165
14083TIP3    H163740   4.428   5.840  14.919 -0.9816 -0.7462  1.5059
14083TIP3    H263741   4.331   5.724  14.931  0.0153 -1.7285  0.4132
14084TIP3   OH263742   2.070   3.728   2.862 -0.9439 -0.1876  0.2320
14084TIP3    H163743   1.985   3.762   2.835 -0.3773  1.0884 -0.0660
14084TIP3    H263744   2.070   3.735   2.957 -0.0520  2.8522  0.1112
14085TIP3   OH263745   3.212   0.996  13.320  0.5249  0.4160 -0.2966
14085TIP3    H163746   3.184   0.918  13.368 -0.4276  0.2560 -1.0825
14085TIP3    H263747   3.291   0.969  13.274 -1.4499 -1.1443 -3.0905
14086TIP3   OH263748   4.529   5.494   3.375  1.0969 -0.1346  0.2341
14086TIP3    H163749   4.503   5.429   3.440  2.7144 -0.9418  0.1235
14086TIP3    H263750   4.599   5.543   3.417  0.6802  0.7921 -0.1185
14087TIP3   OH263751   5.017   0.854   4.755 -0.1995  0.1152 -0.8771
14087TIP3    H163752   5.000   0.798   4.831 -0.0583  1.3657  0.1155
14087TIP3    H263753   5.071   0.801   4.698 -1.7949 -1.5208 -0.9671
14088TIP3   OH263754   0.302   6.478  14.739 -0.7754 -0.2411  0.7968
14088TIP3    H163755   0.324   6.541  14.670 -2.5346 -0.4798 -0.0446
14088TIP3    H263756   0.360   6.501  14.812 -0.5096  1.5541  0.0801
14089TIP3   OH263757   2.320   4.652  12.393 -0.2319 -0.4686 -0.3433
14089TIP3    H163758   2.390   4.668  12.329  1.5389 -1.4902  1.2284
14089TIP3    H263759   2.354   4.582  12.449 -1.4021  0.7806  2.1096
14090TIP3   OH263760   5.417   2.055  15.246 -0.2824 -0.1311  0.2133
14090TIP3    H163761   5.393   1.969  15.280  0.6857 -0.2138  0.7223
14090TIP3    H263762   5.333   2.097  15.226 -0.9034 -0.2172  2.3746
14091TIP3   OH263763   1.600   0.311   2.527 -0.2706 -0.1648 -0.3498
14091TIP3    H163764   1.588   0.304   2.622  0.1945 -1.0913 -0.3456
14091TIP3    H263765   1.571   0.399   2.506  0.7053  0.4833  0.8290
14092TIP3   OH263766   6.644   6.361   0.719  0.2808  0.3579 -0.0498
14092TIP3    H163767   6.683   6.412   0.648  1.3396  0.6132  0.6894
14092TIP3    H263768   6.634   6.424   0.791  0.0112 -0.0837  0.3071
14093TIP3   OH263769   2.267   1.557   4.914 -0.0330  0.6311 -0.4816
14093TIP3    H163770   2.277   1.643   4.953 -1.1680  0.8569 -0.6522
14093TIP3    H263771   2.277   1.571   4.820 -0.8482  0.7041 -0.5696
14094TIP3   OH263772   2.179   2.523  14.132  0.5633  0.9112  0.0816
14094TIP3    H163773   2.157   2.607  14.092 -1.5234  1.1263  1.5475
14094TIP3    H263774   2.234   2.546  14.207  0.0210  0.9721  0.4626
14095TIP3   OH263775   6.686   1.617   0.354  0.0888  0.4276 -0.0170
14095TIP3    H163776   6.754   1.611   0.421 -1.4581  0.1071  1.6161
14095TIP3    H263777   6.717   1.561   0.283  1.1071 -0.4423  1.0739
14096TIP3   OH263778   0.609   0.481  12.367  0.0370 -0.1781  0.0019
14096TIP3    H163779   0.647   0.555  12.415 -1.9097  1.9233 -1.4831
14096TIP3    H263780   0.670   0.466  12.295 -0.1730  0.8641 -0.4172
14097TIP3   OH263781   5.663   3.063  17.245  0.3725 -0.3946 -0.2445
14097TIP3    H163782   5.724   3.010  17.297 -0.5269  0.3905  1.7174
14097TIP3    H263783   5.718   3.123  17.196  1.2599 -1.0629 -0.0895
14098TIP3   OH263784   6.218   0.822   1.747  0.3188  0.4397  0.2324
14098TIP3    H163785   6.265   0.776   1.677 -0.6770 -1.5024  0.7699
14098TIP3    H263786   6.257   0.788   1.828 -1.2515 -0.4515  0.6658
14099TIP3   OH263787   2.247   3.838   3.230  0.0856  0.3106  0.1474
14099TIP3    H163788   2.164   3.863   3.191 -0.2756 -2.7809 -1.3576
14099TIP3    H263789   2.223   3.779   3.302  0.9459 -0.0731  0.1370
14100TIP3   OH263790   2.837   0.733  12.377 -0.0613  0.6694 -0.3360
14100TIP3    H163791   2.811   0.641  12.371  0.0656  0.5693  0.6059
14100TIP3    H263792   2.774   0.779  12.321  0.1473 -0.0288 -1.1798
14101TIP3   OH263793   4.489   0.484  15.717  0.2940 -0.5341 -0.1517
14101TIP3    H163794   4.446   0.433  15.649  0.3407 -0.8808  0.0742
14101TIP3    H263795   4.498   0.423  15.790 -0.2355 -0.0182  0.3588
14102TIP3   OH263796   4.265   3.885   5.579 -0.3673 -0.1108 -0.4935
14102TIP3    H163797   4.251   3.931   5.661 -0.6891  0.5194 -0.9010
14102TIP3    H263798   4.231   3.796   5.595 -0.8737  0.1496 -0.1021
14103TIP3   OH263799   5.004   0.488  12.832 -0.4899 -0.0695 -0.1014
14103TIP3    H163800   5.077   0.444  12.874 -0.7690 -0.5152 -0.0767
14103TIP3    H263801   4.926   0.442  12.863 -0.7898  0.4392 -0.0720
14104TIP3   OH263802   5.703   6.819  14.714 -0.0865  0.0835 -0.4853
14104TIP3    H163803   5.750   6.777  14.786  3.1626 -2.3356 -3.6553
14104TIP3    H263804   5.627   6.764  14.699 -1.3848  1.1743  1.5173
14105TIP3   OH263805   2.627   2.134  15.784 -0.0220 -0.0219 -0.8419
14105TIP3    H163806   2.699   2.075  15.806 -0.4992 -0.5708 -0.7228
14105TIP3    H263807   2.643   2.158  15.692  0.8399  0.6439 -0.5313
14106TIP3   OH263808   4.772   3.213  12.902 -0.5487 -0.6091  0.0088
14106TIP3    H163809   4.680   3.238  12.913 -0.3569  0.1217  0.0226
14106TIP3    H263810   4.779   3.189  12.810 -0.4676  0.6423 -0.3331
14107TIP3   OH263811   3.009   6.783  12.169 -0.0212 -0.4790  0.2897
14107TIP3    H163812   2.985   6.872  12.143  1.1902 -0.6906 -1.7537
14107TIP3    H263813   2.963   6.726  12.107  0.2130 -1.2231  0.7782
14108TIP3   OH263814   6.333   5.299   5.855 -0.2326  0.2487  0.2958
14108TIP3    H163815   6.261   5.354   5.823  0.2768  2.0605  2.0289
14108TIP3    H263816   6.293   5.214   5.873 -1.4319  0.5415 -0.8825
14109TIP3   OH263817   0.040   4.028  14.152 -0.2564 -0.2757  0.4623
14109TIP3    H163818  -0.006   4.066  14.077 -0.1785 -2.0773 -0.5574
14109TIP3    H263819   0.113   4.087  14.167  0.7032 -0.6943 -1.9834
14110TIP3   OH263820   5.485   1.424   1.393 -0.6195  0.5623 -0.3204
14110TIP3    H163821   5.412   1.458   1.446  0.5117  1.7917  0.5139
14110TIP3    H263822   5.558   1.482   1.414  0.6739 -0.8018 -0.9335
14111TIP3   OH263823   3.628   1.620  15.710 -0.0873  0.1345 -0.8884
14111TIP3    H163824   3.555   1.681  15.723  0.2120  0.2642  0.2924
14111TIP3    H263825   3.704   1.677  15.696 -0.0867  0.0089 -1.4011
14112TIP3   OH263826   6.039   1.767   0.829 -0.2722 -0.3086 -0.6160
14112TIP3    H163827   6.099   1.728   0.765  0.2614  0.2831 -0.4751
14112TIP3    H263828   5.953   1.761   0.786 -0.0943 -0.9639 -0.9034
14113TIP3   OH263829   4.730   3.550  13.238  0.5384  0.3579  0.0760
14113TIP3    H163830   4.727   3.608  13.162  0.7005  0.1731 -0.0719
14113TIP3    H263831   4.686   3.470  13.208  1.6560 -0.1639 -0.2061
14114TIP3   OH263832   1.063   3.800  15.153  0.4270 -0.1481 -0.3013
14114TIP3    H163833   1.029   3.781  15.240  0.6560  0.1576 -0.1416
14114TIP3    H263834   0.986   3.803  15.097  0.2841 -0.3917 -0.1154
14115TIP3   OH263835   0.609   5.488  16.822 -0.0929  0.5423  0.3870
14115TIP3    H163836   0.648   5.567  16.860  1.2806  0.0023  0.1761
14115TIP3    H263837   0.681   5.447  16.773 -1.1978 -0.0135 -0.8187
14116TIP3   OH263838   3.282   6.672   1.619 -0.1808 -0.1989 -0.5310
14116TIP3    H163839   3.325   6.642   1.539  0.7411  0.4059 -0.2849
14116TIP3    H263840   3.354   6.683   1.681 -0.8955 -0.7533  0.4126
14117TIP3   OH263841   3.797   4.068   2.192  0.4155  0.3025  0.4876
14117TIP3    H163842   3.745   4.147   2.178  0.2501  0.4518  1.7660
14117TIP3    H263843   3.853   4.062   2.115 -2.0436 -0.3215 -1.3368
14118TIP3   OH263844   4.478   6.573   3.762  0.2649 -0.7546  0.8254
14118TIP3    H163845   4.542   6.515   3.803  2.4030  0.7776 -0.1471
14118TIP3    H263846   4.527   6.653   3.743 -1.4951 -0.1275 -1.5801
14119TIP3   OH263847   0.492   0.064  14.429  0.0469  0.7748 -0.5056
14119TIP3    H163848   0.406   0.104  14.417 -0.1918  0.8300  1.1567
14119TIP3    H263849   0.504   0.011  14.350 -1.0674  1.5318 -1.2262
14120TIP3   OH263850   0.808   5.868   5.793  0.0870 -0.8977  0.3916
14120TIP3    H163851   0.845   5.783   5.770  1.7030 -0.2056  0.2655
14120TIP3    H263852   0.845   5.888   5.879  0.1680 -0.0912  0.1790
14121TIP3   OH263853   2.039   2.916   0.411  0.4897 -0.4840 -0.0541
14121TIP3    H163854   1.974   2.978   0.376 -0.5374 -0.1972  2.1765
14121TIP3    H263855   2.025   2.836   0.361 -1.0367 -0.1638 -0.1983
14122TIP3   OH263856   3.054   1.948   1.652 -0.1614 -0.0124  0.3574
14122TIP3    H163857   3.131   1.992   1.687  0.6749 -1.4432  0.4128
14122TIP3    H263858   2.983   1.973   1.710  0.3170  1.1221  0.4660
14123TIP3   OH263859   1.039   5.919   2.557 -0.0368 -0.3878 -0.3119
14123TIP3    H163860   0.983   5.951   2.627  1.6825  2.1573  0.0410
14123TIP3    H263861   1.129   5.932   2.589  0.8035 -2.1924 -1.7237
14124TIP3   OH263862   3.475   1.841   1.109  0.5892 -1.0619  0.0122
14124TIP3    H163863   3.550   1.799   1.152  1.2837  1.9762  2.0719
14124TIP3    H263864   3.401   1.823   1.167  0.9069  0.4899  0.9495
14125TIP3   OH263865   5.731   2.798   2.936 -0.3712 -0.7517 -0.4919
14125TIP3    H163866   5.736   2.714   2.890  0.5893 -1.3809  0.7019
14125TIP3    H263867   5.768   2.780   3.023  0.6573  1.1007 -0.4963
14126TIP3   OH263868   5.541   4.879   4.118 -0.4001  0.6928  0.2054
14126TIP3    H163869   5.569   4.970   4.130  0.0061  0.4716  0.9504
14126TIP3    H263870   5.619   4.827   4.134 -0.7697  0.1747  0.3692
14127TIP3   OH263871   6.178   0.962  13.830  0.0934  0.2647  0.2054
14127TIP3    H163872   6.205   1.043  13.786  2.6821  0.5252  2.0199
14127TIP3    H263873   6.108   0.990  13.889  0.3955  1.0161  0.2233
14128TIP3   OH263874   5.482   2.797  14.531 -0.2397  0.1951  0.0637
14128TIP3    H163875   5.493   2.862  14.462 -0.6874 -0.2177 -0.4118
14128TIP3    H263876   5.530   2.720  14.498  0.3577  0.3089  0.6573
14129TIP3   OH263877   3.264   1.926  13.571 -0.4809 -0.3071  0.0201
14129TIP3    H163878   3.327   1.950  13.639 -1.3729 -1.2481  1.2348
14129TIP3    H263879   3.287   1.981  13.496 -0.6636  2.1829  1.6780
14130TIP3   OH263880   4.189   1.473   2.501  0.5169 -0.5577 -0.2157
14130TIP3    H163881   4.146   1.540   2.448 -1.2989 -0.7155  0.9933
14130TIP3    H263882   4.137   1.467   2.581  2.5419 -1.1057  1.1388
14131TIP3   OH263883   2.410   4.592   2.856  0.1570 -0.2435 -0.1782
14131TIP3    H163884   2.400   4.600   2.761  0.9921  0.0016 -0.2552
14131TIP3    H263885   2.346   4.654   2.892  1.1301  1.0979 -0.6410
14132TIP3   OH263886   2.848   4.948  16.012 -0.1670 -0.0937  0.3673
14132TIP3    H163887   2.812   5.034  15.993 -0.2972 -0.6547 -2.2496
14132TIP3    H263888   2.810   4.890  15.946 -0.3504 -2.2728  2.2313
14133TIP3   OH263889   5.297   3.759  15.156 -0.2023 -0.0355  0.0833
14133TIP3    H163890   5.288   3.738  15.249  0.7372  0.0686  0.2087
14133TIP3    H263891   5.232   3.704  15.112 -1.7538  1.0337  0.9198
14134TIP3   OH263892   0.759   6.156  12.485  0.2444  0.0017 -0.1014
14134TIP3    H163893   0.731   6.071  12.517  0.2137  0.0199 -0.0788
14134TIP3    H263894   0.821   6.188  12.550 -0.0984  0.2013  0.1332
14135TIP3   OH263895   2.291   0.006  12.249 -0.2158  0.4466 -0.1853
14135TIP3    H163896   2.236   0.078  12.280  0.2812  0.1152  1.5659
14135TIP3    H263897   2.239  -0.072  12.263  0.5515  0.1594  1.1905
14136TIP3   OH263898   1.889   5.608  16.885 -0.4700  0.4161 -0.4493
14136TIP3    H163899   1.952   5.674  16.858 -0.5916  0.2411 -1.1722
14136TIP3    H263900   1.815   5.657  16.922 -0.2087  0.6435 -0.2290
14137TIP3   OH263901   0.397   0.768  13.239 -1.0901 -0.1932 -0.1008
14137TIP3    H163902   0.428   0.727  13.319 -0.5442  1.0589  0.3500
14137TIP3    H263903   0.474   0.775  13.183 -1.2552 -0.1282 -0.3240
14138TIP3   OH263904   5.649   0.852   4.765  0.0035 -0.2843 -0.2666
14138TIP3    H163905   5.630   0.903   4.686  0.4864  0.3198 -0.0041
14138TIP3    H263906   5.689   0.915   4.825 -0.2994 -0.7494  0.4391
14139TIP3   OH263907   4.078   3.136   1.935 -0.9055  0.5613 -0.0491
14139TIP3    H163908   4.072   3.104   1.845 -1.3588 -0.7617  0.4343
14139TIP3    H263909   3.987   3.156   1.959 -0.6222  2.5079 -0.4088
14140TIP3   OH263910   3.828   2.906   2.152  0.1200 -0.5330  0.1788
14140TIP3    H163911   3.882   2.928   2.076  0.1603  0.7641  0.5621
14140TIP3    H263912   3.739   2.930   2.127  0.2668  0.8076  0.8623
14141TIP3   OH263913   0.719   0.129  11.849 -0.4033  0.1036  0.5253
14141TIP3    H163914   0.727   0.189  11.775  1.8237 -0.4734  0.2377
14141TIP3    H263915   0.705   0.186  11.925 -2.1267  0.7310 -0.2147
14142TIP3   OH263916   6.261   0.862   3.196  0.1961  0.2695 -0.7592
14142TIP3    H163917   6.320   0.801   3.151  2.0907  1.5391 -0.1220
14142TIP3    H263918   6.295   0.867   3.285 -2.3472 -0.7228  0.3618
14143TIP3   OH263919   0.953   5.845   4.830 -0.5275  0.0487 -0.7655
14143TIP3    H163920   0.992   5.909   4.770  1.0683 -1.0333 -0.9260
14143TIP3    H263921   0.858   5.858   4.820 -0.3157  0.1349 -3.3155
14144TIP3   OH263922   1.305   1.538   0.786 -0.3057 -0.6373 -0.2594
14144TIP3    H163923   1.288   1.631   0.805  0.7287 -0.7192  1.1848
14144TIP3    H263924   1.308   1.534   0.690  0.4086  0.9716 -0.3383
14145TIP3   OH263925   3.600   1.903   6.429 -0.0350 -0.2552  0.0216
14145TIP3    H163926   3.645   1.819   6.421  0.4953  0.1417 -1.4923
14145TIP3    H263927   3.657   1.965   6.384 -0.5753  0.8707  0.8416
14146TIP3   OH263928   6.564   6.772  15.789 -0.3176  0.4079 -0.2873
14146TIP3    H163929   6.486   6.803  15.835 -0.4259 -1.3074  0.7705
14146TIP3    H263930   6.530   6.732  15.709 -0.2267  2.3017 -1.3361
14147TIP3   OH263931   2.215   4.758   0.241 -0.0394 -0.1592 -0.4487
14147TIP3    H163932   2.305   4.783   0.264  0.0215 -0.8641  0.1074
14147TIP3    H263933   2.202   4.673   0.282 -0.4210 -0.8231 -1.8823
14148TIP3   OH263934   1.470   1.664  11.361 -1.0309 -0.1870  0.2343
14148TIP3    H163935   1.539   1.711  11.407 -2.2715  1.2070  0.7586
14148TIP3    H263936   1.512   1.628  11.283  0.4188  0.0113  0.8961
14149TIP3   OH263937   0.947   1.959  15.967 -0.2859  0.1971  0.0228
14149TIP3    H163938   0.877   1.972  16.030  0.0741 -0.1475  0.5115
14149TIP3    H263939   0.904   1.922  15.889 -0.4050 -2.0262  1.0543
14150TIP3   OH263940   0.091   5.014   4.017 -0.4974 -0.1355  0.1140
14150TIP3    H163941   0.023   5.009   3.950 -3.8102  1.9342  2.9605
14150TIP3    H263942   0.135   5.098   4.001  0.5688 -0.8435 -0.8945
14151TIP3   OH263943   5.706   3.075  12.096 -0.3823  0.3460  0.8150
14151TIP3    H163944   5.767   3.141  12.128  0.5253 -0.3335  0.5222
14151TIP3    H263945   5.620   3.116  12.103  0.3189  2.4852 -1.5951
14152TIP3   OH263946   0.254   5.719  11.500  0.2982 -0.4866  0.2991
14152TIP3    H163947   0.341   5.723  11.460  0.6206 -1.0699  0.9170
14152TIP3    H263948   0.198   5.771  11.442  1.0507 -0.1323 -0.1216
14153TIP3   OH263949   0.518   2.105  12.703  0.3737 -0.1608  0.3890
14153TIP3    H163950   0.517   2.041  12.774 -2.2715 -0.3959  0.2408
14153TIP3    H263951   0.519   2.052  12.623 -0.9077 -0.0646  0.2770
14154TIP3   OH263952   4.954   2.389  16.148  0.5135  0.1139  0.3671
14154TIP3    H163953   4.910   2.459  16.101  0.9684  0.8046  0.9507
14154TIP3    H263954   4.950   2.314  16.089  0.1851  0.6825 -0.3401
14155TIP3   OH263955   0.060   6.231   6.006  0.2227 -0.6997 -0.2261
14155TIP3    H163956   0.093   6.217   6.095 -0.4178  0.8077  0.2762
14155TIP3    H263957  -0.034   6.215   6.012  0.0665  0.0921 -0.4672
14156TIP3   OH263958   3.707   0.483  12.103  0.0272  0.1045  0.3317
14156TIP3    H163959   3.616   0.514  12.102 -0.2706 -0.7175  0.8019
14156TIP3    H263960   3.712   0.423  12.028  0.6111  1.2679 -0.5992
14157TIP3   OH263961   4.498   1.830   5.256 -0.8355  0.3942  0.4496
14157TIP3    H163962   4.490   1.753   5.311 -1.7677  1.1975  1.4971
14157TIP3    H263963   4.412   1.873   5.262 -0.5089  1.2289 -0.5258
14158TIP3   OH263964   4.226   3.269   5.268  0.0850  0.7029 -0.5124
14158TIP3    H163965   4.131   3.279   5.279  0.2530  3.1183 -0.8397
14158TIP3    H263966   4.235   3.230   5.181 -0.5900 -0.3773 -0.1313
14159TIP3   OH263967   0.081   3.742   0.276 -0.1469  0.3399  0.4309
14159TIP3    H163968   0.174   3.733   0.295  0.4740  1.6070 -1.6375
14159TIP3    H263969   0.059   3.830   0.307  0.1664  1.2703 -1.8334
14160TIP3   OH263970   2.758   0.868   1.689  0.4564  0.1970 -0.3485
14160TIP3    H163971   2.823   0.919   1.641  0.5073 -1.2548 -1.9100
14160TIP3    H263972   2.805   0.790   1.717 -0.3547 -0.4257 -0.6723
14161TIP3   OH263973   1.461   1.217  11.534  0.2570  0.1631 -0.1709
14161TIP3    H163974   1.412   1.284  11.582 -0.8313  0.8583 -2.1475
14161TIP3    H263975   1.413   1.136  11.550 -0.5661  0.5358 -0.7210
14162TIP3   OH263976   0.339   6.349  10.449 -0.3232 -0.0127 -0.4473
14162TIP3    H163977   0.387   6.391  10.378  2.1997 -1.9145  0.0028
14162TIP3    H263978   0.390   6.370  10.528 -1.7516  0.0988  0.4895
14163TIP3   OH263979   1.949   4.199   5.662 -0.8271 -0.0233  0.5482
14163TIP3    H163980   2.045   4.202   5.667 -0.7525 -0.5173 -0.4300
14163TIP3    H263981   1.923   4.291   5.666 -0.2442  0.1889 -0.2185
14164TIP3   OH263982   3.298   1.392  15.629  0.7537  1.2018 -0.1263
14164TIP3    H163983   3.208   1.397  15.663  0.2278  0.4055 -1.3568
14164TIP3    H263984   3.345   1.337  15.692 -0.2326 -0.3306 -0.6771
14165TIP3   OH263985   6.338   4.797  14.556 -0.0002 -0.3950 -0.6934
14165TIP3    H163986   6.295   4.711  14.558  2.7677 -1.9349 -1.5289
14165TIP3    H263987   6.353   4.819  14.648  0.0219 -1.2687 -0.4724
14166TIP3   OH263988   4.558   6.721   5.599  0.8546 -0.0131  0.2607
14166TIP3    H163989   4.633   6.668   5.625 -0.0905 -1.7292 -0.2801
14166TIP3    H263990   4.516   6.668   5.530 -2.1500 -0.2933  2.1529
14167TIP3   OH263991   0.702   3.815  14.998  0.1193  0.3955 -0.6733
14167TIP3    H163992   0.713   3.756  15.072 -2.0493 -0.3524 -0.8692
14167TIP3    H263993   0.677   3.898  15.037 -0.5227  0.1388 -0.5174
14168TIP3   OH263994   4.408   4.852   3.124  0.5423  0.7213  0.3827
14168TIP3    H163995   4.350   4.874   3.051  0.1148 -1.2027  0.0910
14168TIP3    H263996   4.494   4.883   3.096  0.1398  1.2019 -0.3562
14169TIP3   OH263997   0.666   0.945  13.795  0.0915  1.1725  0.4895
14169TIP3    H163998   0.732   0.878  13.778  1.7607  2.2988  2.1919
14169TIP3    H263999   0.589   0.895  13.824 -0.2114 -0.2138 -2.3698
14170TIP3   OH264000   2.471   3.430  13.402 -0.4572 -0.0000  0.0735
14170TIP3    H164001   2.408   3.438  13.330 -0.1873  0.0142 -0.1627
14170TIP3    H264002   2.489   3.336  13.409  1.4282  0.1832 -1.5487
14171TIP3   OH264003   4.531   1.502   6.379 -0.4609 -0.2758 -0.4972
14171TIP3    H164004   4.531   1.415   6.418  1.7977 -0.7981 -1.5175
14171TIP3    H264005   4.527   1.562   6.454  1.4339 -1.2594  0.4503
14172TIP3   OH264006   5.090   1.069  15.469 -0.0279 -0.7454 -0.2617
14172TIP3    H164007   5.141   1.091  15.391  1.0341  0.4385  0.7211
14172TIP3    H264008   5.156   1.053  15.537 -0.9361 -0.0559  0.8188
14173TIP3   OH264009   5.722   6.404  12.563 -0.1677  0.0634  0.1263
14173TIP3    H164010   5.805   6.427  12.520  0.5832 -1.0135  0.9443
14173TIP3    H264011   5.655   6.440  12.506  0.7630 -1.6815 -2.2546
14174TIP3   OH264012   4.106   6.513  13.122  0.4238 -0.3464  0.3492
14174TIP3    H164013   4.019   6.490  13.156 -1.0138  1.0527 -2.1251
14174TIP3    H264014   4.140   6.578  13.184 -0.8164 -0.0413  0.7313
14175TIP3   OH264015   0.317   0.645  15.743  0.0470  0.3249 -0.2926
14175TIP3    H164016   0.287   0.556  15.761  0.3341  0.3161  0.1428
14175TIP3    H264017   0.378   0.665  15.813 -0.3529  1.0298 -0.1309
14176TIP3   OH264018   6.362   0.528  13.790 -0.3655 -0.2835 -0.0115
14176TIP3    H164019   6.304   0.503  13.718  1.1473 -0.4964 -1.2010
14176TIP3    H264020   6.381   0.620  13.775 -0.7105 -0.0987  0.6300
14177TIP3   OH264021   4.148   5.428   5.980  0.3068 -0.1118 -0.1809
14177TIP3    H164022   4.065   5.394   5.946  0.8550  0.9611 -2.8710
14177TIP3    H264023   4.123   5.506   6.028 -0.3933 -0.8610  0.7060
14178TIP3   OH264024   5.771   5.711  16.512 -0.1450 -0.3154 -0.4488
14178TIP3    H164025   5.794   5.675  16.426  1.3927 -2.3524  0.7113
14178TIP3    H264026   5.727   5.793  16.493  0.1343 -0.7096 -3.1825
14179TIP3   OH264027   0.222   1.693  10.911 -0.1633  0.1004 -0.3290
14179TIP3    H164028   0.168   1.656  10.841  0.1975 -0.2454 -0.4293
14179TIP3    H264029   0.184   1.779  10.928 -0.1818  0.2410 -1.0449
14180TIP3   OH264030   2.446   1.061  10.792 -0.4500 -0.6060 -0.6008
14180TIP3    H164031   2.484   1.148  10.779 -0.7180 -0.6871 -2.1360
14180TIP3    H264032   2.422   1.032  10.703 -2.6146 -1.2148  0.1125
14181TIP3   OH264033   4.001   4.562   3.886  0.5890  0.0342 -0.2967
14181TIP3    H164034   3.957   4.611   3.954  2.1069  1.6156 -0.3820
14181TIP3    H264035   3.934   4.547   3.819 -0.5093 -0.1862  0.8280
14182TIP3   OH264036   0.348   6.377  16.857  0.1782  0.4069  0.1567
14182TIP3    H164037   0.256   6.354  16.845 -0.7313  1.0126  4.3220
14182TIP3    H264038   0.396   6.314  16.803 -2.6151 -1.2006 -0.6427
14183TIP3   OH264039   3.417   4.576   1.362 -0.0607  0.3055  0.0937
14183TIP3    H164040   3.511   4.563   1.376  0.2043  0.9268 -1.0300
14183TIP3    H264041   3.393   4.510   1.297  0.1160  1.6600 -1.3993
14184TIP3   OH264042   3.085   5.300  11.679  0.1268 -0.5819  0.0313
14184TIP3    H164043   3.087   5.369  11.613 -0.6219  0.2609  0.8665
14184TIP3    H264044   3.178   5.283  11.699  0.3183  0.1755 -0.1836
14185TIP3   OH264045   2.682   0.792  12.140  0.2146 -0.3188 -0.4205
14185TIP3    H164046   2.661   0.868  12.086 -1.9045 -0.8500 -0.4234
14185TIP3    H264047   2.739   0.739  12.085 -0.5998 -0.0825 -1.5283
14186TIP3   OH264048   4.550   4.436  12.214  0.1404  0.3831  0.1716
14186TIP3    H164049   4.543   4.343  12.236  1.4013 -0.2032 -1.7066
14186TIP3    H264050   4.559   4.438  12.119  1.4299  2.3344  0.2733
14187TIP3   OH264051   3.334   1.879  11.948  0.3729  0.1548  0.1649
14187TIP3    H164052   3.425   1.895  11.972  0.4085 -0.1050  0.2066
14187TIP3    H264053   3.289   1.869  12.032  0.2763  0.4401  0.1485
14188TIP3   OH264054   0.570   4.314   3.166  0.1489 -0.9518  0.9793
14188TIP3    H164055   0.641   4.258   3.196 -0.6031 -1.4865  1.7935
14188TIP3    H264056   0.497   4.254   3.148 -0.3440 -0.3436  0.8958
14189TIP3   OH264057   1.365   0.748  12.066  0.0694  0.5731  0.4098
14189TIP3    H164058   1.344   0.671  12.119  1.1739  0.2446  0.4060
14189TIP3    H264059   1.281   0.789  12.048 -0.4910 -0.3583  0.8358
14190TIP3   OH264060   2.980   2.669   1.250 -0.3566 -0.4492  0.2896
14190TIP3    H164061   3.074   2.649   1.248 -0.6854 -2.1160  0.1144
14190TIP3    H264062   2.976   2.764   1.266  1.3549 -0.1561 -0.7886
14191TIP3   OH264063   4.201   4.403  10.855 -0.1353  0.0146 -0.0734
14191TIP3    H164064   4.190   4.495  10.829 -1.2071 -0.4244 -1.2391
14191TIP3    H264065   4.249   4.363  10.783 -2.8439 -1.1342 -1.3748
14192TIP3   OH264066   4.697   4.590  16.861  0.3895 -0.3546  0.6700
14192TIP3    H164067   4.740   4.633  16.935  0.4643  1.3711 -0.3372
14192TIP3    H264068   4.768   4.568  16.801  0.1257  0.1356  0.1776
14193TIP3   OH264069   2.363   5.400   3.843 -0.2399  0.3801  0.2232
14193TIP3    H164070   2.273   5.424   3.863  0.4838  2.9729  0.8869
14193TIP3    H264071   2.403   5.482   3.813  1.1378 -1.3300 -3.1064
14194TIP3   OH264072   6.108   4.968  13.457  0.1676 -0.2994 -0.4704
14194TIP3    H164073   6.167   4.927  13.521  1.0110  2.8308  0.9640
14194TIP3    H264074   6.140   4.937  13.372  2.7728 -0.1723  0.3619
14195TIP3   OH264075   1.607   5.005   0.380 -0.1463 -0.1004 -0.2834
14195TIP3    H164076   1.672   4.939   0.405  1.0117  0.4809 -1.6037
14195TIP3    H264077   1.523   4.965   0.402  0.6144 -1.1773  0.8006
14196TIP3   OH264078   6.806   0.238   2.996 -0.4201 -0.3093  0.3779
14196TIP3    H164079   6.834   0.321   2.958 -0.2479 -0.7434 -0.4756
14196TIP3    H264080   6.861   0.226   3.073 -0.0426  0.0858  0.1715
14197TIP3   OH264081   0.130   2.950   4.359 -0.2625 -0.4833 -0.1093
14197TIP3    H164082   0.082   2.885   4.307 -0.5962 -0.5763  0.3138
14197TIP3    H264083   0.083   3.032   4.343  0.5218 -0.2083 -1.1329
14198TIP3   OH264084   1.782   4.178   2.078 -0.5866  0.2449  0.2511
14198TIP3    H164085   1.867   4.218   2.097 -0.1650  0.0162 -1.0817
14198TIP3    H264086   1.724   4.212   2.147  0.4064  0.9718  0.7526
14199TIP3   OH264087   6.047   3.778   4.472  0.4344 -1.3380  0.0075
14199TIP3    H164088   5.991   3.812   4.403 -1.7719 -1.8528  1.4355
14199TIP3    H264089   5.998   3.703   4.508  2.0972 -1.8743  1.2712
14200TIP3   OH264090   0.403   4.500  14.708 -0.1365 -0.4362  0.4569
14200TIP3    H164091   0.317   4.517  14.670  0.7855  0.9993 -1.1362
14200TIP3    H264092   0.408   4.560  14.783 -0.5682 -0.6204  0.6370
14201TIP3   OH264093   4.065   2.393  11.201  0.9093  0.0698  0.0592
14201TIP3    H164094   4.099   2.457  11.264 -0.5204 -0.2569  1.1974
14201TIP3    H264095   4.035   2.446  11.127  0.3811  0.6701  0.6929
14202TIP3   OH264096   2.538   0.966  15.568 -0.0661  0.2375 -0.4150
14202TIP3    H164097   2.626   1.004  15.577 -1.0171  2.6362 -0.5079
14202TIP3    H264098   2.482   1.024  15.620 -1.6481 -1.0492 -0.6323
14203TIP3   OH264099   1.549   3.380   4.329  1.0311  0.4611  0.9489
14203TIP3    H164100   1.591   3.294   4.318 -1.7445 -0.9868  0.6403
14203TIP3    H264101   1.496   3.371   4.408 -1.1259  1.0011 -0.3354
14204TIP3   OH264102   2.189   5.867  10.128 -0.0940 -0.1245 -0.4695
14204TIP3    H164103   2.128   5.882  10.200 -0.6590 -0.3240 -0.9020
14204TIP3    H264104   2.134   5.840  10.054  0.7525 -5.2388  0.3545
14205TIP3   OH264105   4.782   0.525  13.439 -0.2317 -0.0946 -0.1196
14205TIP3    H164106   4.776   0.432  13.461  2.0146 -0.3657 -0.4330
14205TIP3    H264107   4.744   0.531  13.351 -1.3455 -0.5026  0.3141
14206TIP3   OH264108   0.136   6.738   5.789 -0.5695  0.3689 -0.4010
14206TIP3    H164109   0.138   6.702   5.701  0.5999 -0.7679  0.0504
14206TIP3    H264110   0.190   6.817   5.784  0.5139 -0.3507 -0.4660
14207TIP3   OH264111   5.323   2.892   0.879 -0.2342 -0.6530  0.0384
14207TIP3    H164112   5.320   2.838   0.958 -2.2028  0.4574  0.7996
14207TIP3    H264113   5.243   2.869   0.832 -0.4449  0.6534 -0.2611
14208TIP3   OH264114   6.267   5.384   1.728 -0.2268  0.2384 -0.1044
14208TIP3    H164115   6.190   5.403   1.675 -0.5518 -2.8921 -0.9641
14208TIP3    H264116   6.235   5.385   1.818 -1.0655 -0.0692 -0.3857
14209TIP3   OH264117   3.154   0.248  11.876 -0.6319  0.1346 -0.1006
14209TIP3    H164118   3.090   0.255  11.947  0.1361  3.2528  0.4286
14209TIP3    H264119   3.207   0.172  11.898 -2.5483 -0.9950  0.7995
14210TIP3   OH264120   0.601   4.374  16.810  0.1939  0.1636  0.4383
14210TIP3    H164121   0.533   4.372  16.742 -0.7647  0.3958  1.3521
14210TIP3    H264122   0.577   4.449  16.864 -0.1259 -1.0448  2.0566
14211TIP3   OH264123   1.692   4.971  14.208 -0.0992  0.1746 -0.4204
14211TIP3    H164124   1.661   4.983  14.119  0.7353  1.1357 -0.6007
14211TIP3    H264125   1.706   4.877  14.217 -0.5851  0.0262 -1.1564
14212TIP3   OH264126   5.811   0.710  14.404  0.1874 -0.0055  0.0106
14212TIP3    H164127   5.764   0.652  14.464  0.9262 -0.0974  0.5148
14212TIP3    H264128   5.756   0.715  14.326 -2.7479  3.0624  1.9928
14213TIP3   OH264129   1.790   0.078   0.156  0.5484 -0.3567  0.2159
14213TIP3    H164130   1.863   0.025   0.187  0.6934  1.1031  2.5985
14213TIP3    H264131   1.826   0.166   0.145 -0.4913  0.0455 -0.1521
14214TIP3   OH264132   4.129   4.090   4.378  0.1916 -0.2957 -0.1216
14214TIP3    H164133   4.081   4.060   4.300 -0.6167  0.9821 -0.1430
14214TIP3    H264134   4.195   4.151   4.343 -0.1418  0.2437  0.1760
14215TIP3   OH264135   6.790   0.217  13.818 -0.7201 -0.1584  0.3290
14215TIP3    H164136   6.838   0.223  13.900 -0.2188 -1.5760  0.1696
14215TIP3    H264137   6.788   0.306  13.784  0.1350  0.2360  1.2851
14216TIP3   OH264138   1.668   6.335  12.779  0.3566  0.1661 -0.1699
14216TIP3    H164139   1.636   6.319  12.690 -0.8271 -1.2097  0.4715
14216TIP3    H264140   1.622   6.414  12.807  0.3261  0.2988 -0.5793
14217TIP3   OH264141   5.716   1.610  13.110 -0.3204 -0.0685  0.0970
14217TIP3    H164142   5.715   1.706  13.108 -0.2363 -0.0515  0.6333
14217TIP3    H264143   5.710   1.584  13.019  0.6482  0.4631 -0.1289
14218TIP3   OH264144   3.353   1.355   3.342  0.3893 -0.3350 -0.7317
14218TIP3    H164145   3.356   1.264   3.311 -0.8757 -0.2134 -1.2953
14218TIP3    H264146   3.260   1.377   3.342  0.3305 -0.1273  2.7105
14219TIP3   OH264147   3.918   1.308   4.202  0.7930  0.2382  0.0537
14219TIP3    H164148   3.835   1.269   4.176 -0.6978  2.4717  1.1397
14219TIP3    H264149   3.945   1.360   4.127 -0.0195  1.3427  0.5089
14220TIP3   OH264150   0.758   5.919  15.462 -0.7381 -0.0510 -0.2641
14220TIP3    H164151   0.841   5.880  15.492 -1.2231 -0.7784  0.1469
14220TIP3    H264152   0.785   5.997  15.414  0.1050  0.7006  1.3660
14221TIP3   OH264153   1.663   5.809   3.039  0.1220  0.0477  0.1535
14221TIP3    H164154   1.665   5.756   2.960  1.0029 -0.3596  0.4443
14221TIP3    H264155   1.666   5.900   3.008 -2.3448  0.0244 -0.4010
14222TIP3   OH264156   0.545   5.748  13.116 -0.6414  0.0584  0.3747
14222TIP3    H164157   0.581   5.717  13.033 -0.8595  0.4984  0.1127
14222TIP3    H264158   0.565   5.678  13.179  0.5611  0.2464  0.2151
14223TIP3   OH264159   5.197   2.052  14.989 -0.0671  0.4141 -0.0137
14223TIP3    H164160   5.247   2.074  14.910  1.1259 -1.0522  0.2792
14223TIP3    H264161   5.230   1.966  15.014 -0.5257  0.7994  2.0231
14224TIP3   OH264162   4.268   1.920  12.969 -0.6363 -0.0603  0.0517
14224TIP3    H164163   4.176   1.903  12.950 -0.5566  0.4661 -0.8775
14224TIP3    H264164   4.274   2.016  12.974 -0.2955 -0.1240  0.9497
14225TIP3   OH264165   3.631   0.855  16.123 -0.6268  0.3308  0.4119
14225TIP3    H164166   3.661   0.782  16.178  0.1255  1.3212  1.3399
14225TIP3    H264167   3.646   0.933  16.176 -0.6174  1.2487 -0.9128
14226TIP3   OH264168   3.693   6.271   2.804 -0.3141  0.0657 -0.1691
14226TIP3    H164169   3.721   6.348   2.753  0.8010  0.0399  0.3619
14226TIP3    H264170   3.601   6.259   2.781 -0.2666  1.0229 -0.9439
14227TIP3   OH264171   0.700   1.102   6.588  0.3145  0.5494 -0.2868
14227TIP3    H164172   0.642   1.073   6.659 -1.4121 -1.8052 -2.4601
14227TIP3    H264173   0.693   1.197   6.589 -0.5306  0.5228  1.9801
14228TIP3   OH264174   4.153   5.953   4.288  0.0964 -0.2761 -0.3898
14228TIP3    H164175   4.211   5.878   4.302 -1.6241 -1.3790  1.2894
14228TIP3    H264176   4.208   6.017   4.243  2.1765 -1.8071 -0.1900
14229TIP3   OH264177   3.448   5.946  16.687 -0.3720  0.0282  0.0150
14229TIP3    H164178   3.418   6.019  16.633 -0.2197  1.4196  1.7487
14229TIP3    H264179   3.371   5.889  16.694 -0.7009  0.3591 -0.7683
14230TIP3   OH264180   2.239   0.451   2.043 -0.0307 -0.1757 -0.1731
14230TIP3    H164181   2.185   0.388   2.091 -0.7534  0.7423  0.2554
14230TIP3    H264182   2.316   0.464   2.098  0.5066 -1.2531 -0.6343
14231TIP3   OH264183   5.300   4.269  16.696 -0.1151 -0.2710 -0.6641
14231TIP3    H164184   5.276   4.178  16.679  1.4894 -0.5811 -1.5506
14231TIP3    H264185   5.396   4.269  16.695 -0.0744  1.3711 -0.3566
14232TIP3   OH264186   5.809   0.167   5.953 -0.3147 -0.5180  0.0519
14232TIP3    H164187   5.901   0.174   5.926 -0.3639  0.0260  0.0216
14232TIP3    H264188   5.770   0.108   5.888  0.1220 -1.1539  0.3562
14233TIP3   OH264189   4.431   3.395   5.021  0.1932  0.0793 -0.1993
14233TIP3    H164190   4.388   3.311   5.005 -1.5430  1.0484 -0.9722
14233TIP3    H264191   4.480   3.412   4.941  0.4851 -0.1573 -0.0721
14234TIP3   OH264192   5.852   3.041  14.003  0.1471  0.2628 -0.1522
14234TIP3    H164193   5.939   3.027  14.041  0.3072  0.0629 -0.5774
14234TIP3    H264194   5.836   3.135  14.014  0.0559  0.1515  0.6755
14235TIP3   OH264195   5.431   2.998  15.305  0.0562 -0.3541 -0.4709
14235TIP3    H164196   5.394   3.053  15.236  0.1347 -0.5509 -0.6706
14235TIP3    H264197   5.361   2.990  15.370 -0.8924 -2.1450 -1.6373
14236TIP3   OH264198   3.860   2.336  13.055  0.0437  0.1828  0.0402
14236TIP3    H164199   3.812   2.413  13.024 -0.5634 -1.1392 -2.6116
14236TIP3    H264200   3.942   2.339  13.006  0.6160 -0.1197  0.9758
14237TIP3   OH264201   3.729   0.956   3.389  0.3472 -0.2319  0.1366
14237TIP3    H164202   3.746   1.002   3.307  3.3635  1.2144  1.3919
14237TIP3    H264203   3.753   0.865   3.372 -1.8951 -0.6168 -1.3033
14238TIP3   OH264204   4.446   2.797  14.731  0.1765 -0.0484 -0.1507
14238TIP3    H164205   4.449   2.841  14.816  0.8462  0.4260 -0.4055
14238TIP3    H264206   4.361   2.821  14.694  0.3622  0.7098 -0.1090
14239TIP3   OH264207   6.330   2.095  11.299 -0.1790 -0.0317  0.2842
14239TIP3    H164208   6.310   2.081  11.392  2.6575  0.2678  1.0591
14239TIP3    H264209   6.321   2.189  11.286  1.2729  0.2106  0.8293
14240TIP3   OH264210   6.561   1.133   1.348  0.4935  0.8149  0.0069
14240TIP3    H164211   6.494   1.178   1.397 -2.0895 -0.9180 -1.6871
14240TIP3    H264212   6.543   1.154   1.256  2.0425 -0.0096 -0.5424
14241TIP3   OH264213   1.763   4.750  16.297  0.5183 -0.0845  0.0997
14241TIP3    H164214   1.738   4.781  16.384 -0.1872  0.8635 -0.4113
14241TIP3    H264215   1.693   4.691  16.271 -0.1572  0.9210 -0.4698
14242TIP3   OH264216   5.316   2.938  12.394  0.2590  0.0685  0.6655
14242TIP3    H164217   5.288   2.931  12.485  2.8249  1.6253  1.6609
14242TIP3    H264218   5.405   2.973  12.398  1.0687 -1.2613 -2.3979
14243TIP3   OH264219   2.219   1.235  12.404 -0.6800 -0.2646 -0.7551
14243TIP3    H164220   2.151   1.199  12.461  1.4294  0.2375  2.3692
14243TIP3    H264221   2.282   1.163  12.395 -0.1233  0.2451 -0.9643
14244TIP3   OH264222   3.774   4.707   2.788 -0.3890 -0.4389 -0.0358
14244TIP3    H164223   3.813   4.626   2.821  0.3822  0.3520  1.0518
14244TIP3    H264224   3.697   4.722   2.843 -2.3616 -1.9892 -2.1701
14245TIP3   OH264225   4.579   2.693   3.771  0.3876 -0.1191  0.5418
14245TIP3    H164226   4.540   2.612   3.802 -2.5803  0.8673 -0.2928
14245TIP3    H264227   4.550   2.701   3.680  3.6354  0.1684 -0.6195
14246TIP3   OH264228   5.076   4.229   3.087 -0.0463  0.4535  0.3358
14246TIP3    H164229   5.125   4.262   3.012  0.2215 -0.8201 -0.0855
14246TIP3    H264230   5.006   4.292   3.101 -0.6194  0.2997 -1.5311
14247TIP3   OH264231   6.202   1.696  13.053 -0.5346 -0.6462 -0.2187
14247TIP3    H164232   6.267   1.629  13.074 -1.2657 -0.9309  1.2169
14247TIP3    H264233   6.134   1.649  13.003 -0.2282 -0.6007 -0.6847
14248TIP3   OH264234   1.459   5.346   4.590 -0.7784 -0.0062  0.6888
14248TIP3    H164235   1.385   5.406   4.601 -1.9653 -1.0486 -1.1869
14248TIP3    H264236   1.528   5.400   4.552 -1.4366  0.4328  0.1034
14249TIP3   OH264237   1.087   4.114   5.299  0.5731  0.0499 -0.6282
14249TIP3    H164238   1.095   4.085   5.390 -0.2020 -2.1939 -1.2178
14249TIP3    H264239   1.177   4.129   5.271  1.2606 -3.3026 -0.6526
14250TIP3   OH264240   4.165   2.900   0.480  0.4803  0.8614 -0.1507
14250TIP3    H164241   4.107   2.972   0.455 -0.1074 -0.2116 -2.0471
14250TIP3    H264242   4.157   2.837   0.409  0.3941 -1.4434  1.7750
14251TIP3   OH264243   1.914   4.998   4.249  0.0262 -0.1186 -0.1097
14251TIP3    H164244   1.902   4.995   4.344  1.1807  1.4352  0.1179
14251TIP3    H264245   1.962   5.078   4.234 -1.3111  0.3661 -2.1581
14252TIP3   OH264246   4.772   0.714   3.411 -0.4195 -0.2488  0.0112
14252TIP3    H164247   4.790   0.785   3.350  0.7404  0.9314  1.6452
14252TIP3    H264248   4.775   0.755   3.497  0.7590 -2.3475  1.0551
14253TIP3   OH264249   6.544   1.212   0.007  0.0714  0.0697 -0.3084
14253TIP3    H164250   6.552   1.307   0.015 -0.1544  0.1067 -0.5331
14253TIP3    H264251   6.468   1.199  -0.049  1.4618 -0.1967 -2.2412
14254TIP3   OH264252   4.982   2.421  15.352  0.4755 -0.2028 -0.2356
14254TIP3    H164253   5.018   2.502  15.387 -0.7859  0.7911 -1.1466
14254TIP3    H264254   5.058   2.365  15.339  1.3532  0.7573  0.5811
14255TIP3   OH264255   1.826   5.503   2.602 -0.1444  0.2491  0.0472
14255TIP3    H164256   1.843   5.453   2.522 -0.3269 -0.2456  0.3131
14255TIP3    H264257   1.748   5.462   2.640  1.3751 -1.1559  1.8026
14256TIP3   OH264258   0.614   3.044  14.612 -0.0787  0.3758  0.4763
14256TIP3    H164259   0.624   3.002  14.698 -0.8729  1.7244  1.2679
14256TIP3    H264260   0.569   2.980  14.559  0.5227 -0.5300  1.0226
14257TIP3   OH264261   4.982   0.713   6.024 -0.1916  0.2403  0.1962
14257TIP3    H164262   4.913   0.684   6.084  1.9342 -1.4269  2.0115
14257TIP3    H264263   4.947   0.694   5.937 -1.1469 -2.9720  1.1089
14258TIP3   OH264264   1.185   2.501   3.809 -0.3984  0.6562  0.1452
14258TIP3    H164265   1.260   2.491   3.751 -1.8972  1.0996 -1.9519
14258TIP3    H264266   1.223   2.496   3.897  2.0714  0.8726 -0.8227
14259TIP3   OH264267   3.789   6.766  16.285  0.8169 -0.9906 -0.8358
14259TIP3    H164268   3.833   6.851  16.287 -0.2762 -0.3111 -3.0099
14259TIP3    H264269   3.804   6.729  16.372  1.2417  1.4706  0.2069
14260TIP3   OH264270   5.451   4.237  14.099  0.0073 -0.1159  0.0308
14260TIP3    H164271   5.396   4.315  14.103 -0.8788 -0.7676  1.6122
14260TIP3    H264272   5.514   4.248  14.171  0.2460 -0.5779 -0.1019
14261TIP3   OH264273   1.030   5.494  13.483  0.2686  0.1421  0.2117
14261TIP3    H164274   1.087   5.566  13.455 -0.2153  0.6246  0.4489
14261TIP3    H264275   0.966   5.535  13.541  0.8790 -0.7356  1.5538
14262TIP3   OH264276   0.794   0.183  17.112  0.0038  0.1354 -0.4213
14262TIP3    H164277   0.818   0.244  17.182  1.2243 -0.7301 -0.0473
14262TIP3    H264278   0.717   0.137  17.147 -0.5901  1.0652 -0.4819
14263TIP3   OH264279   0.082   2.978  12.017  0.6184 -0.0442 -0.4817
14263TIP3    H164280   0.060   2.908  12.078  3.2765  0.1958  0.8993
14263TIP3    H264281   0.002   3.030  12.009 -0.4036 -1.2809  1.1652
14264TIP3   OH264282   1.936   4.011  15.795 -0.6255 -0.1108 -0.2209
14264TIP3    H164283   1.864   3.963  15.754 -0.0007  1.7306 -3.8051
14264TIP3    H264284   1.947   3.968  15.880 -3.0307 -3.2920 -1.3014
14265TIP3   OH264285   0.706   0.343   2.452  0.0685 -0.7978 -0.3385
14265TIP3    H164286   0.619   0.338   2.412 -0.1581  0.2728 -0.0129
14265TIP3    H264287   0.722   0.436   2.464  1.1582 -0.9946 -0.1454
14266TIP3   OH264288   2.452   6.761  17.118  0.2569 -0.2006 -0.3247
14266TIP3    H164289   2.525   6.768  17.179 -0.8623 -0.4090  1.1160
14266TIP3    H264290   2.475   6.687  17.061  0.6951 -0.9517  0.7916
14267TIP3   OH264291   1.750   3.540  11.307  0.2457 -0.1571 -0.2734
14267TIP3    H164292   1.803   3.616  11.285  0.1179  0.4667  1.4170
14267TIP3    H264293   1.665   3.576  11.333 -0.0271 -0.9139 -0.0588
14268TIP3   OH264294   0.068   6.786  12.593 -0.0208 -0.0857  1.0939
14268TIP3    H164295   0.097   6.874  12.571 -1.1635 -0.1390 -0.9034
14268TIP3    H264296  -0.013   6.799  12.642 -0.6029 -0.0112  0.1315
14269TIP3   OH264297   4.144   6.813  10.897 -0.4531  0.9760  0.3043
14269TIP3    H164298   4.100   6.730  10.877 -1.0785  1.5290 -0.6509
14269TIP3    H264299   4.208   6.790  10.965  1.2715 -0.8569 -1.7717
14270TIP3   OH264300   1.909   5.726  16.620 -0.4647 -0.1476 -0.2765
14270TIP3    H164301   1.827   5.711  16.668 -0.8275 -1.3694 -1.2296
14270TIP3    H264302   1.882   5.771  16.540 -0.1414 -0.0938 -0.3570
14271TIP3   OH264303   0.227   6.097  12.671  0.0009  0.3527  0.1237
14271TIP3    H164304   0.180   6.045  12.737 -0.9324 -1.3594 -1.7588
14271TIP3    H264305   0.157   6.144  12.624  0.0362 -1.9544 -2.4907
14272TIP3   OH264306   2.552   3.988  11.567 -0.6030 -0.3081  0.2958
14272TIP3    H164307   2.574   4.038  11.645  0.5786 -3.0696  1.8702
14272TIP3    H264308   2.490   3.923  11.596  0.4416 -1.8974 -0.8448
14273TIP3   OH264309   2.999   0.066   5.060 -0.1203 -0.6945  0.1590
14273TIP3    H164310   2.973   0.014   4.983 -0.2863  0.0523 -0.3062
14273TIP3    H264311   2.945   0.145   5.054 -2.8388 -2.0901  3.0009
14274TIP3   OH264312   0.220   0.404  15.779 -0.2901  0.4020 -0.0048
14274TIP3    H164313   0.127   0.401  15.760  0.0203  0.8084 -1.7373
14274TIP3    H264314   0.252   0.317  15.753  0.0603  0.7804 -0.8458
14275TIP3   OH264315   2.939   1.065   3.016  0.0383 -0.6201  0.4655
14275TIP3    H164316   2.998   1.040   2.946 -0.4449 -0.8233  0.1252
14275TIP3    H264317   2.987   1.045   3.097 -0.3222 -2.7132  0.2180
14276TIP3   OH264318   6.360   6.483  16.257  0.6581  0.4157 -0.7621
14276TIP3    H164319   6.341   6.446  16.171 -2.0918 -0.9809  0.3191
14276TIP3    H264320   6.277   6.519  16.287  1.3439  0.1772  1.6345
14277TIP3   OH264321   5.174   2.142  11.611  0.5089 -0.0472 -0.1053
14277TIP3    H164322   5.079   2.141  11.598  0.4539 -1.5659  0.2580
14277TIP3    H264323   5.203   2.223  11.568 -0.9008  0.2645 -0.5198
14278TIP3   OH264324   1.078   4.966  12.758  0.0053  0.4218  0.1172
14278TIP3    H164325   1.035   5.050  12.771  0.7390  0.8592 -0.2338
14278TIP3    H264326   1.171   4.986  12.757  0.1488 -0.1263 -1.7094
14279TIP3   OH264327   2.120   4.779  13.536  0.0327 -0.2174  0.1609
14279TIP3    H164328   2.039   4.801  13.490  0.3904  0.5983 -0.1144
14279TIP3    H264329   2.102   4.697  13.580 -1.4033  0.6320  1.2510
14280TIP3   OH264330   6.079   1.967  15.452  0.0853  0.1885 -0.1971
14280TIP3    H164331   6.014   2.002  15.391 -0.9230  0.3077  0.9138
14280TIP3    H264332   6.102   2.041  15.508  0.1645 -0.1944  0.2789
14281TIP3   OH264333   2.678   1.757  11.316 -0.4494  0.0821  0.1203
14281TIP3    H164334   2.749   1.770  11.253 -1.7822 -2.7011 -2.2152
14281TIP3    H264335   2.710   1.686  11.373 -0.6520  0.1314  0.2953
14282TIP3   OH264336   3.851   1.814  13.978 -0.1462 -0.3076  0.6656
14282TIP3    H164337   3.773   1.838  14.028  0.2264 -0.7840  1.5033
14282TIP3    H264338   3.853   1.718  13.981  1.1697 -0.2731  1.7936
14283TIP3   OH264339   1.243   4.177  15.275 -0.9587 -0.2800 -0.1063
14283TIP3    H164340   1.151   4.175  15.249 -0.7282  0.1459 -0.9863
14283TIP3    H264341   1.265   4.085  15.290 -1.5059 -0.3894  0.0439
14284TIP3   OH264342   5.110   0.924  11.078 -0.0368  0.2767 -0.0462
14284TIP3    H164343   5.051   0.858  11.042  0.3633 -0.1336  0.0376
14284TIP3    H264344   5.195   0.903  11.040  0.4367 -0.2827  1.2670
14285TIP3   OH264345   4.028   2.000  16.851 -0.5657 -0.1749  0.2225
14285TIP3    H164346   3.995   2.080  16.891 -0.8435  0.3144 -0.9438
14285TIP3    H264347   3.958   1.936  16.866  0.3614 -0.7337  2.6515
14286TIP3   OH264348   5.749   3.010  16.566 -0.4237 -0.1366 -0.1212
14286TIP3    H164349   5.821   2.950  16.584 -0.5984 -0.6520 -1.0498
14286TIP3    H264350   5.791   3.090  16.537 -0.2035 -0.1372  0.1995
14287TIP3   OH264351   3.005   5.227   0.372  0.2365 -0.1603 -0.3889
14287TIP3    H164352   3.096   5.200   0.361  0.5807  1.6638 -2.7883
14287TIP3    H264353   2.965   5.217   0.286 -0.8930  2.2013 -0.2223
14288TIP3   OH264354   1.919   6.182   0.749  0.4528  0.2219 -0.1867
14288TIP3    H164355   1.933   6.265   0.703  0.0649 -0.1433 -0.9790
14288TIP3    H264356   1.846   6.141   0.704  0.9104 -0.7486 -0.0814
14289TIP3   OH264357   4.004   6.527   5.682 -0.2202  0.1437 -0.0876
14289TIP3    H164358   4.085   6.498   5.723 -0.5347  0.0789  0.5050
14289TIP3    H264359   3.997   6.620   5.705 -1.1237 -0.2232  1.2762
14290TIP3   OH264360   5.810   4.668  14.419  0.5176 -0.0717  0.0378
14290TIP3    H164361   5.805   4.633  14.508  1.7645  0.4214  0.3322
14290TIP3    H264362   5.874   4.612  14.375  1.1050  0.6656 -0.0563
14291TIP3   OH264363   0.235   0.015   3.392 -0.7562  0.1663 -0.0422
14291TIP3    H164364   0.272  -0.040   3.461 -0.0842  1.5214  0.7142
14291TIP3    H264365   0.305   0.076   3.370 -0.7884 -0.5039 -2.2697
14292TIP3   OH264366   2.288   6.814  11.948  0.2520 -0.8603 -0.3496
14292TIP3    H164367   2.227   6.780  11.883 -0.4591 -2.1891  0.9366
14292TIP3    H264368   2.232   6.835  12.023  1.2866 -1.5805  0.6572
14293TIP3   OH264369   4.151   4.002  13.810 -0.0983 -0.0075 -0.3449
14293TIP3    H164370   4.176   3.917  13.772 -1.2088  0.3464 -1.9578
14293TIP3    H264371   4.184   3.998  13.900  1.0497 -1.6128 -0.7829
14294TIP3   OH264372   6.782   6.819  11.244  0.0702  0.3561  0.2464
14294TIP3    H164373   6.736   6.779  11.171 -0.0702 -2.8014  1.9014
14294TIP3    H264374   6.721   6.886  11.277 -0.4058  0.9087 -1.6214
14295TIP3   OH264375   1.094   5.171  11.704 -0.1535 -0.8648  0.4756
14295TIP3    H164376   1.036   5.227  11.652  2.5268  0.3231 -1.4676
14295TIP3    H264377   1.109   5.220  11.785 -0.9485 -0.6662  0.5060
14296TIP3   OH264378   6.125   4.405  13.491 -0.7857 -0.3509  0.2656
14296TIP3    H164379   6.124   4.417  13.586 -0.6484  0.9470  0.1200
14296TIP3    H264380   6.218   4.404  13.468 -0.8257  0.8602 -0.0130
14297TIP3   OH264381   3.129   3.046  14.365  0.1591 -0.5552 -0.2513
14297TIP3    H164382   3.086   3.127  14.338  0.5340 -0.4721 -0.6182
14297TIP3    H264383   3.221   3.059  14.340  0.1415 -1.2689 -0.7211
14298TIP3   OH264384   5.705   0.436   1.723  0.0037 -0.0088  0.3956
14298TIP3    H164385   5.642   0.364   1.711 -1.9061  1.8979 -1.9916
14298TIP3    H264386   5.652   0.515   1.720  2.3626  1.6555 -0.1310
14299TIP3   OH264387   2.854   4.993   4.220 -0.5429 -0.4574 -0.0707
14299TIP3    H164388   2.911   4.987   4.143  0.0113 -1.6563  0.4148
14299TIP3    H264389   2.897   5.058   4.276 -0.5600 -0.1179 -0.4450
14300TIP3   OH264390   2.623   2.475   5.306  0.2466  0.3451 -0.1188
14300TIP3    H164391   2.645   2.464   5.214  0.7298 -3.6106  0.2950
14300TIP3    H264392   2.529   2.494   5.306 -0.6332 -3.1922 -1.5012
14301TIP3   OH264393   4.774   0.420   0.999 -0.5206 -0.2894  0.0909
14301TIP3    H164394   4.795   0.512   0.982 -0.7831 -0.1367  0.5807
14301TIP3    H264395   4.808   0.373   0.922 -0.0220  0.1657  0.0237
14302TIP3   OH264396   0.328   3.969  14.300 -0.1239 -0.0281  0.0194
14302TIP3    H164397   0.302   4.041  14.242 -1.1632 -1.1707 -0.9886
14302TIP3    H264398   0.246   3.931  14.331  0.1651 -3.0595 -2.3919
14303TIP3   OH264399   5.322   2.227  13.523  0.3908 -0.0099  0.6227
14303TIP3    H164400   5.284   2.143  13.499 -0.4864  0.5022  0.1768
14303TIP3    H264401   5.347   2.217  13.615  0.6294 -0.8684  0.4708
14304TIP3   OH264402   4.458   1.512  10.747  0.4431  0.6400 -0.0259
14304TIP3    H164403   4.491   1.427  10.775 -0.2413  0.0857 -0.8425
14304TIP3    H264404   4.381   1.528  10.803  0.5316  0.6899  0.0814
14305TIP3   OH264405   0.469   4.359  11.775  0.1111 -0.5958  0.6409
14305TIP3    H164406   0.442   4.440  11.731 -0.1066 -1.1036 -0.1743
14305TIP3    H264407   0.517   4.310  11.708 -0.6126 -1.5875  0.8257
14306TIP3   OH264408   3.109   2.563   4.137 -0.1294  0.4545 -0.8588
14306TIP3    H164409   3.068   2.649   4.131 -1.2425 -0.1124 -1.7917
14306TIP3    H264410   3.077   2.527   4.220  0.2326  0.8792 -0.5314
14307TIP3   OH264411   6.508   2.079  14.727  0.3043  0.0384  0.1205
14307TIP3    H164412   6.541   1.995  14.758 -1.2313 -0.4741  0.4258
14307TIP3    H264413   6.539   2.086  14.637  0.1947 -0.9911 -0.0039
14308TIP3   OH264414   5.536   3.990   5.209  0.3412  0.1798  0.1727
14308TIP3    H164415   5.581   4.023   5.288  0.4365  2.0816 -0.6254
14308TIP3    H264416   5.607   3.963   5.151  0.3133 -0.1922  0.3116
14309TIP3   OH264417   0.407   6.061   1.524 -0.2527  0.1501 -0.0064
14309TIP3    H164418   0.471   6.100   1.465 -0.4784  1.9788  0.8873
14309TIP3    H264419   0.322   6.078   1.481 -0.2755 -0.6230 -0.2842
14310TIP3   OH264420   4.065   5.644   2.142  0.1469 -0.1439  0.6677
14310TIP3    H164421   4.020   5.637   2.226  1.1550 -1.5502  1.1264
14310TIP3    H264422   4.045   5.562   2.097 -0.2359  0.5158 -0.4238
14311TIP3   OH264423   5.824   3.232  17.109 -0.1476 -0.3213  0.2559
14311TIP3    H164424   5.843   3.177  17.033 -1.6622  0.3067 -0.6090
14311TIP3    H264425   5.909   3.244  17.151  0.4944 -1.8759 -0.5041
14312TIP3   OH264426   1.984   4.968   2.257  0.5307  0.3342 -0.1308
14312TIP3    H164427   1.903   4.998   2.300  0.6192  0.7873 -0.2719
14312TIP3    H264428   2.020   4.903   2.317 -2.2867 -3.4458 -2.1021
14313TIP3   OH264429   2.036   5.270   5.757  0.4882  0.4167 -0.5508
14313TIP3    H164430   2.089   5.190   5.756  0.2889  0.2685 -2.0380
14313TIP3    H264431   1.991   5.268   5.841  3.4151  0.9706  1.1838
14314TIP3   OH264432   4.631   5.558  12.339  0.1488 -0.3219  0.0337
14314TIP3    H164433   4.542   5.535  12.367 -0.9758 -0.7849 -3.5017
14314TIP3    H264434   4.678   5.474  12.342 -0.2172 -0.5455 -0.3278
14315TIP3   OH264435   3.796   1.403   5.887 -0.1426 -0.0296 -0.8281
14315TIP3    H164436   3.785   1.491   5.923 -0.0188 -0.7802  1.1827
14315TIP3    H264437   3.760   1.409   5.798 -1.3218  1.7306 -0.2948
14316TIP3   OH264438   2.912   5.630  13.324 -0.4426  0.2682 -0.0755
14316TIP3    H164439   2.829   5.673  13.305 -0.0440  0.2738 -2.0116
14316TIP3    H264440   2.893   5.537  13.319 -0.2947  0.2707 -0.7768
14317TIP3   OH264441   2.472   4.885   3.740 -0.0570  0.0305  0.1686
14317TIP3    H164442   2.546   4.833   3.710  0.3422  1.0541 -0.6882
14317TIP3    H264443   2.454   4.852   3.828  0.8804 -0.7952  0.0722
14318TIP3   OH264444   0.438   0.991   3.400 -0.4673 -0.6182  0.0940
14318TIP3    H164445   0.472   0.916   3.350  0.4836 -0.3275  0.2706
14318TIP3    H264446   0.514   1.049   3.409 -1.2686  0.5189 -0.3207
14319TIP3   OH264447   3.069   6.799   1.506  0.6039  0.4568  0.7871
14319TIP3    H164448   3.117   6.878   1.480  0.3147 -0.1345 -1.8916
14319TIP3    H264449   3.133   6.747   1.555  1.5320  1.3428  0.5493
14320TIP3   OH264450   0.183   6.014  16.188 -0.0652  0.1641 -0.7432
14320TIP3    H164451   0.275   6.025  16.212 -0.1139  0.4206 -0.6778
14320TIP3    H264452   0.181   5.930  16.142  0.1324 -0.0442 -0.3789
14321TIP3   OH264453   1.097   1.763   5.837  0.1260  0.0944 -0.5692
14321TIP3    H164454   1.121   1.684   5.787 -0.5305  0.8656 -2.1775
14321TIP3    H264455   1.018   1.737   5.885  2.0385 -1.3722  2.0098
14322TIP3   OH264456   3.922   5.319  15.847  0.3836  0.4078  0.9105
14322TIP3    H164457   3.828   5.302  15.854  0.1087  2.1677  2.3099
14322TIP3    H264458   3.935   5.340  15.754 -0.3500 -1.0232  0.4520
14323TIP3   OH264459   4.044   4.821   4.201 -0.5202  0.2805  0.1013
14323TIP3    H164460   4.093   4.869   4.134 -2.6223  0.7367 -1.1984
14323TIP3    H264461   4.083   4.848   4.284  1.8663  0.0414 -0.8762
14324TIP3   OH264462   6.132   2.951  14.291  0.0332  0.2010 -0.3686
14324TIP3    H164463   6.053   2.950  14.345  0.9466 -0.4160  1.0381
14324TIP3    H264464   6.113   3.013  14.221 -1.0027  1.5122  1.0118
14325TIP3   OH264465   0.840   4.637  15.718 -0.2441  0.2927 -0.1107
14325TIP3    H164466   0.933   4.616  15.718 -0.5372 -1.1889  1.0807
14325TIP3    H264467   0.810   4.612  15.631  0.4028  0.5598 -0.4201
14326TIP3   OH264468   2.183   3.403  12.145  0.3558 -0.2366  0.1389
14326TIP3    H164469   2.123   3.476  12.130  0.9777  0.3396  0.4197
14326TIP3    H264470   2.128   3.334  12.183 -0.4153 -0.2454 -0.9235
14327TIP3   OH264471   6.266   5.460   0.126 -0.2252  0.1721 -0.0039
14327TIP3    H164472   6.184   5.499   0.156 -0.3290 -0.0381 -0.0176
14327TIP3    H264473   6.298   5.411   0.201 -1.0703 -1.3293 -0.5737
14328TIP3   OH264474   3.894   2.313   5.840  0.1686 -0.5370  0.4146
14328TIP3    H164475   3.929   2.285   5.924  1.7813  1.8713  0.6366
14328TIP3    H264476   3.892   2.408   5.845 -5.9073 -0.2930  0.0989
14329TIP3   OH264477   3.940   6.087   3.153  0.7235  0.5017  0.3776
14329TIP3    H164478   3.994   6.131   3.087 -0.0458  0.5713 -0.2162
14329TIP3    H264479   3.968   6.126   3.236  0.2276  1.9694 -0.1116
14330TIP3   OH264480   2.327   2.475   3.180  0.6090 -0.5798  0.1002
14330TIP3    H164481   2.370   2.520   3.252  0.2319 -0.0977  0.0257
14330TIP3    H264482   2.308   2.544   3.116 -0.7225 -0.6845  0.3438
14331TIP3   OH264483   1.670   2.052   0.703 -0.2009 -0.3824 -0.0071
14331TIP3    H164484   1.585   2.096   0.709  0.4539  0.8511  0.4949
14331TIP3    H264485   1.649   1.960   0.718 -1.1840  0.1744  2.6458
14332TIP3   OH264486   5.715   6.742  12.494 -0.3913  0.3059  0.6761
14332TIP3    H164487   5.661   6.821  12.490  0.0325  0.5492 -1.1506
14332TIP3    H264488   5.800   6.770  12.462 -0.4868 -1.0586 -0.9131
14333TIP3   OH264489   2.290   4.038  11.016  0.4790  0.0390  0.1178
14333TIP3    H164490   2.362   4.100  11.031  0.2485  0.8060 -1.6113
14333TIP3    H264491   2.333   3.961  10.980  0.5746 -0.0548  0.4311
14334TIP3   OH264492   5.771   3.076  11.560 -0.3859  0.3512  0.4277
14334TIP3    H164493   5.795   3.109  11.647  0.4432 -0.5189  0.5476
14334TIP3    H264494   5.798   3.146  11.500 -0.1370  0.5796  0.8001
14335TIP3   OH264495   0.570   3.700   2.904 -0.7264 -0.3716  0.3523
14335TIP3    H164496   0.585   3.747   2.987 -0.8444 -0.3484  0.3605
14335TIP3    H264497   0.583   3.608   2.926 -1.5216 -0.4382  0.5761
14336TIP3   OH264498   4.130   3.977  12.275 -0.0707  0.2685 -0.1309
14336TIP3    H164499   4.190   3.910  12.308 -0.3815 -0.2819 -0.6569
14336TIP3    H264500   4.072   3.929  12.216 -0.0029  1.0923 -0.8754
14337TIP3   OH264501   5.006   6.367  16.090 -0.0425 -0.3749 -0.1663
14337TIP3    H164502   4.936   6.310  16.121 -0.6450  0.1794 -0.4842
14337TIP3    H264503   4.993   6.371  15.995  1.0808 -1.1301 -0.3721
14338TIP3   OH264504   3.484   3.785   5.026 -0.0871 -0.5493  0.3167
14338TIP3    H164505   3.546   3.805   4.956  1.4205 -0.8764  1.5214
14338TIP3    H264506   3.482   3.864   5.080 -1.8832  0.0220 -0.4945
14339TIP3   OH264507   3.629   5.348   1.465 -0.0011 -0.0159  0.1071
14339TIP3    H164508   3.554   5.361   1.407 -0.4778 -2.0392  0.2140
14339TIP3    H264509   3.704   5.347   1.406 -0.3197 -0.4752 -0.2987
14340TIP3   OH264510   6.336   0.936   3.453  0.1139 -0.1557  0.3832
14340TIP3    H164511   6.382   0.925   3.536 -0.3363 -0.8058  0.5561
14340TIP3    H264512   6.353   1.027   3.428 -1.0221  0.5341  1.9743
14341TIP3   OH264513   0.520   3.596   5.298  0.6280  0.0520 -0.0815
14341TIP3    H164514   0.431   3.571   5.321  0.8019 -2.0826 -1.4122
14341TIP3    H264515   0.510   3.653   5.221  0.3882  0.7812  0.4787
14342TIP3   OH264516   6.497   3.911  13.358 -0.4056 -1.0878 -0.6609
14342TIP3    H164517   6.564   3.853  13.321 -0.1144 -0.2063 -1.5397
14342TIP3    H264518   6.451   3.947  13.282  0.1860  0.7286 -0.2017
14343TIP3   OH264519   6.321   4.978  13.867  0.7434 -0.0806  0.0602
14343TIP3    H164520   6.339   4.889  13.898 -0.1559 -0.6441 -0.9775
14343TIP3    H264521   6.396   4.999  13.811  0.7740 -0.3429 -0.0011
14344TIP3   OH264522   1.676   2.861  15.989  0.1719  0.2785 -0.2686
14344TIP3    H164523   1.676   2.857  16.084  0.1238  0.5862 -0.2563
14344TIP3    H264524   1.617   2.790  15.962  0.5664 -0.1201 -0.0849
14345TIP3   OH264525   1.602   6.124  13.650 -0.3399 -0.2246  0.0631
14345TIP3    H164526   1.525   6.082  13.612 -1.4602  0.4909  1.4504
14345TIP3    H264527   1.591   6.217  13.630  1.2383 -0.3247 -1.4859
14346TIP3   OH264528   6.222   1.701  16.232 -0.0977  0.1317 -0.1222
14346TIP3    H164529   6.158   1.678  16.164 -0.6007  0.8165  0.1032
14346TIP3    H264530   6.304   1.712  16.185  0.1664 -2.0299 -0.2475
14347TIP3   OH264531   0.507   5.809   0.735  0.6234  0.0329 -0.2943
14347TIP3    H164532   0.504   5.751   0.659 -1.4683 -1.1926  0.6352
14347TIP3    H264533   0.416   5.814   0.766  1.3698  0.5556  2.0598
14348TIP3   OH264534   1.584   1.419   0.498 -0.3255  0.1354  0.1167
14348TIP3    H164535   1.530   1.436   0.420  0.4414  0.9219 -0.2600
14348TIP3    H264536   1.672   1.447   0.473 -0.1869  1.0095  1.4797
14349TIP3   OH264537   0.470   4.895   1.087  0.3764 -0.1268 -0.2386
14349TIP3    H164538   0.526   4.966   1.054 -2.3797  1.6646 -1.4353
14349TIP3    H264539   0.493   4.888   1.179  0.8435  2.2858 -0.0958
14350TIP3   OH264540   2.105   2.650   2.637  0.4289 -0.6277 -0.4454
14350TIP3    H164541   2.163   2.615   2.705  1.7413 -0.8528 -1.6354
14350TIP3    H264542   2.037   2.583   2.628  1.7777 -1.9659 -1.2488
14351TIP3   OH264543   2.923   1.653   2.407  0.0147 -0.1434  0.7014
14351TIP3    H164544   2.841   1.629   2.449 -0.0379  0.3234  0.8703
14351TIP3    H264545   2.899   1.676   2.317 -0.3215  1.7796  1.2536
14352TIP3   OH264546   6.382   4.420  13.370  0.3675  0.0723 -0.2725
14352TIP3    H164547   6.456   4.399  13.427  1.8612 -0.2393 -2.2230
14352TIP3    H264548   6.420   4.477  13.303 -1.4052  0.7097 -0.7652
14353TIP3   OH264549   1.741   4.937  12.200  0.4237 -0.0764  0.2638
14353TIP3    H164550   1.673   4.874  12.173  0.2811  0.7157 -1.3335
14353TIP3    H264551   1.696   4.994  12.263  0.6280 -1.6740  1.9535
14354TIP3   OH264552   0.816   4.969  14.948  0.0678  0.4972 -0.1091
14354TIP3    H164553   0.814   4.889  14.895 -0.0676  1.5512 -1.7596
14354TIP3    H264554   0.743   5.022  14.915 -0.5716  0.8451  1.7504
14355TIP3   OH264555   2.078   1.702  15.846 -0.1174  0.1794  0.4256
14355TIP3    H164556   2.045   1.719  15.758  2.4226 -0.5169 -0.7735
14355TIP3    H264557   2.030   1.762  15.902  0.7228  3.3988 -1.9873
14356TIP3   OH264558   3.702   2.570  12.982 -0.2445  0.4729 -0.7282
14356TIP3    H164559   3.715   2.636  12.914 -1.3047  0.4257 -1.0018
14356TIP3    H264560   3.616   2.533  12.962  0.5419 -1.3497 -0.8702
14357TIP3   OH264561   0.286   1.486  15.887 -0.4148  0.3761  0.8291
14357TIP3    H164562   0.360   1.507  15.943  0.6895  0.1373 -0.4815
14357TIP3    H264563   0.244   1.411  15.929  0.9332 -0.3770  0.8813
14358TIP3   OH264564   3.394   4.920   2.206 -0.3915  0.4271 -0.6971
14358TIP3    H164565   3.308   4.883   2.189 -0.4910  0.3356 -0.0232
14358TIP3    H264566   3.451   4.879   2.141 -1.1684  1.8199 -2.3514
14359TIP3   OH264567   3.820   0.669  16.914 -0.1414 -0.0981 -0.1795
14359TIP3    H164568   3.894   0.727  16.934 -0.3244  0.1890 -0.3139
14359TIP3    H264569   3.803   0.684  16.821  0.2399 -0.8748 -0.3812
14360TIP3   OH264570   6.712   5.515  13.325  0.4666 -0.1145 -0.2506
14360TIP3    H164571   6.669   5.496  13.242 -0.3736 -1.9691  0.5494
14360TIP3    H264572   6.804   5.494  13.310  0.3391 -0.3307 -0.7505
14361TIP3   OH264573   3.256   5.552   0.195 -0.7025  0.3438  0.1846
14361TIP3    H164574   3.283   5.615   0.129 -1.3889 -0.1666 -0.5997
14361TIP3    H264575   3.160   5.557   0.196 -0.9582 -2.2916 -1.5683
14362TIP3   OH264576   4.741   2.644  14.313  0.4222 -0.1690  0.4652
14362TIP3    H164577   4.828   2.617  14.342  0.2297 -0.7293  0.5279
14362TIP3    H264578   4.691   2.656  14.394  1.0717  2.4383  0.5745
14363TIP3   OH264579   0.634   3.827   3.991  0.2037 -0.0497  0.4395
14363TIP3    H164580   0.685   3.890   4.041 -0.7543  0.6569  0.5700
14363TIP3    H264581   0.696   3.786   3.931  0.6554  1.8074 -0.4023
14364TIP3   OH264582   2.084   4.443  16.104 -0.3317  0.3064  0.1123
14364TIP3    H164583   2.062   4.351  16.117  0.3584 -0.2622 -2.2310
14364TIP3    H264584   2.003   4.483  16.072 -0.3430  0.2712  0.0973
14365TIP3   OH264585   1.733   2.137   2.162  0.6414 -0.4081  0.1979
14365TIP3    H164586   1.765   2.088   2.237  0.2249  0.7777  1.1900
14365TIP3    H264587   1.662   2.191   2.197  1.1556  0.9804 -0.7932
14366TIP3   OH264588   0.503   6.588   3.276  0.0861  0.0664  0.1529
14366TIP3    H164589   0.494   6.610   3.183  0.6797  0.2764  0.1370
14366TIP3    H264590   0.417   6.556   3.302  0.4085 -1.8665 -0.9614
14367TIP3   OH264591   6.187   4.042   0.817  0.3701 -0.0230 -0.1909
14367TIP3    H164592   6.191   4.015   0.725  2.4753 -1.2414  0.1893
14367TIP3    H264593   6.158   4.133   0.813 -1.4045 -0.5806 -1.9121
14368TIP3   OH264594   2.165   4.959  10.673  0.0926  0.2175  0.1256
14368TIP3    H164595   2.171   4.868  10.645  0.2979 -0.5145  2.3853
14368TIP3    H264596   2.072   4.973  10.689  0.0760  0.3853 -0.1047
14369TIP3   OH264597   3.518   5.596  12.202  0.3977 -0.4068  0.5370
14369TIP3    H164598   3.448   5.539  12.236 -0.2743 -0.9618 -1.5947
14369TIP3    H264599   3.556   5.546  12.131  2.1770  0.4275  0.8593
14370TIP3   OH264600   5.930   5.334  11.594  0.0437 -0.4583 -0.8285
14370TIP3    H164601   5.970   5.314  11.509  0.8695  0.8451 -0.7727
14370TIP3    H264602   5.865   5.402  11.574 -0.7911 -1.1752 -0.6193
14371TIP3   OH264603   4.716   2.219   4.517  0.5115 -0.0518 -0.0409
14371TIP3    H164604   4.650   2.223   4.586  0.2395  1.3781 -0.3479
14371TIP3    H264605   4.668   2.189   4.440  0.5934 -0.6444  0.1345
14372TIP3   OH264606   0.719   0.329  13.778  0.1895 -0.3097 -0.0305
14372TIP3    H164607   0.775   0.291  13.845  0.3006  1.0723  0.6827
14372TIP3    H264608   0.760   0.304  13.695  2.5084  1.5634  0.4668
14373TIP3   OH264609   5.925   6.151   4.119 -0.7353 -0.5487 -0.4334
14373TIP3    H164610   5.910   6.191   4.205 -2.6451 -3.2220  0.5870
14373TIP3    H264611   6.020   6.145   4.113 -0.5157 -2.5028  2.6780
14374TIP3   OH264612   5.376   5.306  16.803 -0.5990 -0.0290 -0.1312
14374TIP3    H164613   5.391   5.354  16.884 -1.7040  1.0650 -0.5270
14374TIP3    H264614   5.433   5.230  16.808  0.9811  1.1540  0.6795
14375TIP3   OH264615   1.621   2.432   1.226  0.7137 -0.2234  0.5531
14375TIP3    H164616   1.618   2.474   1.312 -4.2637  0.3738  0.3654
14375TIP3    H264617   1.650   2.502   1.166 -0.3303  0.7906  1.1907
14376TIP3   OH264618   5.108   6.499   2.701  0.2904  0.8951 -0.0961
14376TIP3    H164619   5.013   6.486   2.702  0.4712 -0.9910  2.1854
14376TIP3    H264620   5.122   6.573   2.760  0.2046  2.0535 -1.4783
14377TIP3   OH264621   4.730   3.961   0.706 -1.1480 -1.1371 -0.3730
14377TIP3    H164622   4.779   3.898   0.758 -0.1208 -0.8004 -0.9105
14377TIP3    H264623   4.736   3.927   0.616 -1.8201 -1.0329 -0.4641
14378TIP3   OH264624   4.878   1.965  12.253  0.0086 -0.2419 -0.0220
14378TIP3    H164625   4.888   1.916  12.334 -1.5547  0.7907  0.8577
14378TIP3    H264626   4.810   2.030  12.273  1.2072  1.5632 -1.4495
14379TIP3   OH264627   6.717   3.624   3.876  0.6337  0.1195 -0.4725
14379TIP3    H164628   6.706   3.648   3.968  0.8653  0.5913 -0.5632
14379TIP3    H264629   6.631   3.591   3.849  0.6713 -0.3860  0.0151
14380TIP3   OH264630   5.045   0.043  11.941  0.0791  0.0467  0.0683
14380TIP3    H164631   5.042  -0.012  11.862 -2.1398 -0.4590  0.4398
14380TIP3    H264632   4.983   0.114  11.923 -0.2667  0.0552  1.2508
14381TIP3   OH264633   4.269   5.944   3.122 -0.1159 -0.4827 -0.7425
14381TIP3    H164634   4.283   6.038   3.127  0.3572 -0.5234 -1.1354
14381TIP3    H264635   4.339   5.907   3.177 -0.5380 -0.5940 -0.2722
14382TIP3   OH264636   1.557   3.207   4.908  0.7093 -0.5033  0.2062
14382TIP3    H164637   1.496   3.252   4.968  0.0079  1.5787 -1.9374
14382TIP3    H264638   1.562   3.118   4.943 -1.2327  0.0559  2.1827
14383TIP3   OH264639   1.546   2.350  12.092  0.8040  0.1087  0.3004
14383TIP3    H164640   1.518   2.272  12.045  1.8029  0.3488 -0.7261
14383TIP3    H264641   1.468   2.378  12.141 -0.1954 -0.3035 -1.0134
14384TIP3   OH264642   4.379   4.769   1.740 -0.0358 -0.3847 -0.1633
14384TIP3    H164643   4.381   4.710   1.664 -1.0898 -1.3422  0.5329
14384TIP3    H264644   4.337   4.718   1.809 -0.2024  0.9073  0.7121
14385TIP3   OH264645   5.143   2.635   5.388  0.3551  0.4621 -0.1428
14385TIP3    H164646   5.201   2.687   5.443 -0.5579  0.2716  1.0255
14385TIP3    H264647   5.167   2.545   5.406  0.7658  0.4120 -0.8760
14386TIP3   OH264648   3.535   3.469  12.174  0.7344 -0.1352  0.0846
14386TIP3    H164649   3.487   3.471  12.092 -2.2747  0.0194  1.6805
14386TIP3    H264650   3.569   3.558  12.184  0.6923 -0.0237 -0.7638
14387TIP3   OH264651   3.030   5.279   2.547  0.1651 -0.1458  0.0148
14387TIP3    H164652   3.057   5.363   2.510 -0.9963  0.8165  1.2154
14387TIP3    H264653   3.074   5.214   2.493  1.6909  1.2301 -0.5087
14388TIP3   OH264654   2.925   4.831   5.580 -0.7277  0.5086 -0.6152
14388TIP3    H164655   2.900   4.764   5.516  1.1991  0.2527 -1.1866
14388TIP3    H264656   2.992   4.789   5.634  1.3105  2.1944 -1.6429
14389TIP3   OH264657   3.596   2.790  14.161  0.4285 -0.1171 -0.2199
14389TIP3    H164658   3.683   2.766  14.131  0.7281  0.9941 -0.3029
14389TIP3    H264659   3.543   2.792  14.082 -0.1265 -2.4737  0.0295
14390TIP3   OH264660   3.447   4.394   3.622 -0.1627  0.1285  0.4929
14390TIP3    H164661   3.489   4.312   3.597 -1.2338 -0.5947  1.0027
14390TIP3    H264662   3.508   4.435   3.683  1.8231  1.2349 -2.0230
14391TIP3   OH264663   0.076   2.857   1.160  0.0001 -0.4512 -0.0816
14391TIP3    H164664   0.121   2.934   1.126  0.5312 -1.0453 -0.7416
14391TIP3    H264665   0.002   2.843   1.100  1.4749 -2.0582 -1.6344
14392TIP3   OH264666   6.362   3.464   3.296  0.2128  0.2225  0.2297
14392TIP3    H164667   6.390   3.390   3.242  1.7144 -0.7910  2.2757
14392TIP3    H264668   6.345   3.534   3.233  2.2143 -0.7716 -1.5518
14393TIP3   OH264669   2.972   1.360   0.302  0.4953  0.3888 -0.7307
14393TIP3    H164670   2.993   1.293   0.367 -1.4568 -0.4070 -0.8354
14393TIP3    H264671   2.895   1.325   0.256 -0.4954  2.6199 -0.8979
14394TIP3   OH264672   0.509   2.635   5.089 -0.2224  0.3019 -0.0043
14394TIP3    H164673   0.433   2.681   5.054  0.1234  0.4945 -0.5093
14394TIP3    H264674   0.573   2.636   5.018  0.2607  0.1641  0.4210
14395TIP3   OH264675   2.849   2.032  15.872  0.1140  0.2685  0.3107
14395TIP3    H164676   2.879   2.063  15.957 -0.9969 -0.9742  1.1977
14395TIP3    H264677   2.828   1.939  15.886  1.1862 -0.3250 -1.6588
14396TIP3   OH264678   1.489   5.855   3.308 -0.1277  0.6161 -0.3572
14396TIP3    H164679   1.568   5.887   3.351 -1.0915  0.2388  1.8128
14396TIP3    H264680   1.471   5.920   3.240  1.8129  0.8989 -0.6533
14397TIP3   OH264681   2.898   6.043   4.252  0.2426 -0.5498 -0.8897
14397TIP3    H164682   2.965   6.096   4.208  1.7520 -0.6595  1.1314
14397TIP3    H264683   2.815   6.086   4.231  1.3095  2.0999 -0.1283
14398TIP3   OH264684   6.779   0.175   2.009 -0.1171 -0.6537 -0.4074
14398TIP3    H164685   6.873   0.190   2.006  0.0394 -1.0802  1.3114
14398TIP3    H264686   6.768   0.087   1.973  0.2617 -1.0055  0.3275
14399TIP3   OH264687   5.216   3.299   1.455 -0.6983  0.4531  0.0399
14399TIP3    H164688   5.123   3.295   1.479 -0.9498  1.1016 -0.7828
14399TIP3    H264689   5.261   3.311   1.539 -1.3385  0.0080  0.4604
14400TIP3   OH264690   1.387   1.497   4.822 -0.1645 -0.1570 -0.1961
14400TIP3    H164691   1.477   1.530   4.831 -0.9870  2.6571 -1.2788
14400TIP3    H264692   1.362   1.472   4.911  0.6286  2.1880  0.7782
14401TIP3   OH264693   5.789   4.565  13.829  0.5202 -0.1761  0.8007
14401TIP3    H164694   5.793   4.608  13.744  2.9536 -1.2686  0.2649
14401TIP3    H264695   5.700   4.580  13.860 -0.9675 -1.0953 -2.6265
14402TIP3   OH264696   1.876   3.389   3.649 -0.3718 -0.3768 -0.1910
14402TIP3    H164697   1.912   3.457   3.707  0.6105 -0.9232 -0.1235
14402TIP3    H264698   1.954   3.344   3.615 -0.9298 -0.2243 -1.7632
14403TIP3   OH264699   0.716   4.750  14.789 -0.0703 -0.2500 -0.3573
14403TIP3    H164700   0.628   4.752  14.826  0.1335 -1.0576  0.1945
14403TIP3    H264701   0.731   4.659  14.765  0.5245 -0.0765 -0.6836
14404TIP3   OH264702   6.015   3.326   5.868  0.0580 -0.4636  0.1437
14404TIP3    H164703   5.923   3.312   5.844  0.6061  0.0123 -2.6391
14404TIP3    H264704   6.056   3.241   5.857 -0.1418 -0.8610  2.1639
14405TIP3   OH264705   6.150   0.676   6.616  0.1331 -0.1537 -0.2732
14405TIP3    H164706   6.096   0.640   6.686  0.9423 -2.5210 -0.7661
14405TIP3    H264707   6.146   0.771   6.628 -1.1905 -0.4259  1.8579
14406TIP3   OH264708   0.827   2.069   5.452 -0.3541 -0.0013  0.2433
14406TIP3    H164709   0.852   2.011   5.525  0.3505  0.3889  0.3242
14406TIP3    H264710   0.805   2.152   5.495  1.5729  0.7163 -0.0804
14407TIP3   OH264711   2.064   4.702   5.983  0.2378  1.2868 -0.2838
14407TIP3    H164712   2.075   4.609   5.963  3.1507  0.9248  2.2311
14407TIP3    H264713   1.973   4.720   5.962 -0.7322 -2.3822  0.0294
14408TIP3   OH264714   5.393   6.084   5.830 -0.1796  0.2316 -0.2640
14408TIP3    H164715   5.442   6.026   5.889 -0.2597  0.5017  0.0745
14408TIP3    H264716   5.329   6.027   5.788  1.6619 -0.5386 -2.1789
14409TIP3   OH264717   4.864   4.403  17.007  0.1898  0.1127  0.2308
14409TIP3    H164718   4.950   4.434  16.980  0.8789 -1.8981 -0.0523
14409TIP3    H264719   4.829   4.357  16.930 -1.8511  2.1939 -0.1868
14410TIP3   OH264720   0.031   4.286  10.835  0.3175  0.1021  0.3936
14410TIP3    H164721  -0.013   4.271  10.919 -2.1104 -1.1374 -0.9899
14410TIP3    H264722  -0.009   4.367  10.802 -0.5038 -0.6767 -0.5839
14411TIP3   OH264723   3.428   1.177  15.734 -0.0508  0.1148 -0.0120
14411TIP3    H164724   3.394   1.090  15.754 -0.3185  0.6162  1.8863
14411TIP3    H264725   3.523   1.166  15.734 -0.0679 -0.0738  0.7990
14412TIP3   OH264726   0.236   1.548  14.490  0.0284  0.1310  0.3316
14412TIP3    H164727   0.146   1.578  14.486 -0.0922 -0.1759  0.6446
14412TIP3    H264728   0.280   1.611  14.548 -0.7316 -1.4607  2.8296
14413TIP3   OH264729   5.312   3.743   0.125 -0.3541 -0.0381 -0.8945
14413TIP3    H164730   5.228   3.697   0.123 -1.0072  0.9927  0.6377
14413TIP3    H264731   5.377   3.674   0.111 -1.3362 -1.3161  0.4349
14414TIP3   OH264732   6.475   3.981  14.772 -0.2594  0.1259 -0.4443
14414TIP3    H164733   6.500   3.976  14.680 -0.5750  0.0647 -0.5270
14414TIP3    H264734   6.413   4.054  14.777  1.1212  1.3055  0.0408
14415TIP3   OH264735   6.359   1.177  16.698 -0.2433  0.0295  0.0331
14415TIP3    H164736   6.317   1.244  16.752 -0.1790  1.1406 -1.2471
14415TIP3    H264737   6.292   1.153  16.634 -0.7087 -2.0981  1.2333
14416TIP3   OH264738   6.412   2.229  12.946  0.0960 -0.2941 -0.0338
14416TIP3    H164739   6.394   2.184  13.028  2.2217 -0.7170  0.2613
14416TIP3    H264740   6.502   2.206  12.925 -0.8829 -1.6423 -3.4415
14417TIP3   OH264741   1.636   5.048   6.382  0.1903  0.2107 -0.9502
14417TIP3    H164742   1.682   4.974   6.344 -0.3020  0.5427 -2.2401
14417TIP3    H264743   1.669   5.124   6.334 -0.3688  0.6671 -0.6285
14418TIP3   OH264744   2.137   1.141  11.830  0.4427 -0.6109 -0.3721
14418TIP3    H164745   2.077   1.068  11.845 -0.9583  0.9929  2.5834
14418TIP3    H264746   2.217   1.116  11.876  0.7380 -1.1065 -1.1197
14419TIP3   OH264747   2.935   3.928  12.178 -0.0381  0.0818 -0.1434
14419TIP3    H164748   2.925   3.842  12.137  0.1718  0.1448 -0.3298
14419TIP3    H264749   2.874   3.984  12.130  0.7553  0.3296 -0.8857
14420TIP3   OH264750   2.724   2.237  13.866  0.5946  0.4886 -0.5913
14420TIP3    H164751   2.745   2.302  13.798  1.6834 -1.1581 -1.8942
14420TIP3    H264752   2.782   2.163  13.848  0.6131 -0.1895  1.9172
14421TIP3   OH264753   0.121   5.110   3.620 -0.4686  0.0573  0.1809
14421TIP3    H164754   0.035   5.131   3.582 -0.1529 -0.3797 -0.7933
14421TIP3    H264755   0.109   5.023   3.660 -0.3024 -0.3051 -0.5475
14422TIP3   OH264756   4.874   0.414   1.492 -0.6278  0.6637  0.0189
14422TIP3    H164757   4.811   0.379   1.428 -3.1040  1.4866  1.8421
14422TIP3    H264758   4.925   0.338   1.519 -1.6457 -0.2960 -0.6624
14423TIP3   OH264759   4.086   5.085  12.386 -0.2190 -1.0353  0.0917
14423TIP3    H164760   4.026   5.016  12.412  1.4583 -2.6096 -0.0416
14423TIP3    H264761   4.170   5.061  12.425  0.9372 -0.2714 -1.7885
14424TIP3   OH264762   2.876   1.309  13.700  0.2178 -0.4260 -0.1693
14424TIP3    H164763   2.849   1.293  13.790 -0.3101  0.8853 -0.0873
14424TIP3    H264764   2.968   1.336  13.707  0.0146  0.2229  0.0342
14425TIP3   OH264765   2.551   4.860  15.835  0.6519 -0.4084 -0.3669
14425TIP3    H164766   2.563   4.953  15.853  2.8298 -0.3558 -1.6335
14425TIP3    H264767   2.510   4.825  15.915  1.0143  1.3931  0.6722
14426TIP3   OH264768   6.595   5.223  13.889 -0.4079 -0.2484 -0.0658
14426TIP3    H164769   6.566   5.181  13.970 -1.1873 -1.0380 -0.7301
14426TIP3    H264770   6.678   5.179  13.869  0.5502  0.9786  1.0558
14427TIP3   OH264771   2.174   0.438   0.307  0.2856  0.1474  0.2606
14427TIP3    H164772   2.245   0.474   0.254  0.9558  0.0127  1.0517
14427TIP3    H264773   2.112   0.403   0.243  0.5462  0.9660 -0.4608
14428TIP3   OH264774   5.017   5.174   2.613 -0.1317  0.1475  0.4061
14428TIP3    H164775   4.983   5.085   2.623 -1.4077  0.4097 -1.1584
14428TIP3    H264776   4.954   5.218   2.557  0.7858  1.8860  0.6507
14429TIP3   OH264777   3.353   3.110   1.423  0.5217 -0.1313  0.6876
14429TIP3    H164778   3.393   3.044   1.480  0.1654  1.5675  3.0677
14429TIP3    H264779   3.262   3.081   1.413  0.7163 -0.7088  0.5354
14430TIP3   OH264780   3.969   2.742  14.327 -0.2687 -0.2707 -0.0482
14430TIP3    H164781   3.955   2.751  14.233  1.0859 -1.6893 -0.4237
14430TIP3    H264782   3.885   2.711  14.361 -0.3732 -1.0715 -1.0049
14431TIP3   OH264783   3.471   6.445   4.053 -0.0304  0.1762  0.0950
14431TIP3    H164784   3.552   6.475   4.094 -0.1654 -0.9516  1.2377
14431TIP3    H264785   3.402   6.485   4.106 -0.2123 -0.5087  0.3769
14432TIP3   OH264786   4.641   1.317  15.814  0.0197 -0.3561 -0.0613
14432TIP3    H164787   4.683   1.366  15.884  0.6938  1.5104 -1.6812
14432TIP3    H264788   4.710   1.261  15.779 -0.1850 -0.9182  0.4180
14433TIP3   OH264789   1.712   5.203  10.837  0.2768  0.4806 -0.0983
14433TIP3    H164790   1.680   5.287  10.870  3.8994  1.9695  0.0285
14433TIP3    H264791   1.796   5.190  10.880  0.7287 -2.3293 -1.5573
14434TIP3   OH264792   0.462   6.027   0.159  0.4349  1.0460 -0.2586
14434TIP3    H164793   0.423   6.069   0.235  1.6633  1.7315  0.0182
14434TIP3    H264794   0.495   5.943   0.192 -0.0180  0.8493 -0.2979
14435TIP3   OH264795   5.799   0.943  14.922  0.3318  0.2724 -0.1331
14435TIP3    H164796   5.715   0.987  14.915  0.0716  0.0736  1.5158
14435TIP3    H264797   5.790   0.883  14.996  1.8219  0.0259 -0.1083
14436TIP3   OH264798   2.120   6.327  14.800 -0.1745 -0.5532 -0.4151
14436TIP3    H164799   2.154   6.416  14.807  0.6087 -0.9744  2.9595
14436TIP3    H264800   2.136   6.302  14.709  2.3131  1.7147 -0.7224
14437TIP3   OH264801   5.024   4.328   5.217 -0.1580  0.3915  0.4801
14437TIP3    H164802   4.970   4.339   5.296 -0.3199 -0.3767  0.4829
14437TIP3    H264803   5.007   4.407   5.166 -2.3924 -0.4088 -0.1663
14438TIP3   OH264804   3.291   5.454   5.676 -0.1178  0.1448 -0.2827
14438TIP3    H164805   3.361   5.508   5.714 -0.4046 -0.3932  1.0366
14438TIP3    H264806   3.244   5.418   5.751 -1.2385 -0.2688 -1.1508
14439TIP3   OH264807   0.270   4.429  15.686 -0.3302  0.1069 -0.3365
14439TIP3    H164808   0.344   4.451  15.743 -1.0020 -0.2252  0.6906
14439TIP3    H264809   0.195   4.422  15.745 -0.9539 -0.7536 -1.2011
14440TIP3   OH264810   2.740   4.523  12.286 -0.1342  0.1369  0.3008
14440TIP3    H164811   2.734   4.460  12.214  0.6338 -0.0169  0.3549
14440TIP3    H264812   2.829   4.559  12.278 -0.3578  0.7763  0.6317
14441TIP3   OH264813   1.222   0.089   1.251 -0.3566  0.3778 -0.2997
14441TIP3    H164814   1.308   0.131   1.260 -0.0273 -0.0935 -1.1200
14441TIP3    H264815   1.192   0.115   1.163 -0.3673 -0.6798 -0.6200
14442TIP3   OH264816   3.871   4.643  11.240  0.9396 -0.1732 -0.4744
14442TIP3    H164817   3.955   4.625  11.197  2.0109 -0.2071  1.4831
14442TIP3    H264818   3.886   4.618  11.331 -1.5265 -1.0802 -0.2456
14443TIP3   OH264819   4.874   2.992   3.614 -0.0046 -0.0736 -0.9248
14443TIP3    H164820   4.787   3.007   3.651 -0.1106 -1.3956 -0.5841
14443TIP3    H264821   4.864   3.011   3.521 -0.9202 -1.0692 -1.0629
14444TIP3   OH264822   4.295   6.443  16.179  0.1205 -0.4121  0.1375
14444TIP3    H164823   4.292   6.484  16.266  1.0731  0.2406 -0.1254
14444TIP3    H264824   4.302   6.349  16.197 -0.7089 -0.3725  0.7545
14445TIP3   OH264825   3.056   1.172   2.718 -0.5875  0.2432  0.1304
14445TIP3    H164826   3.001   1.221   2.658 -1.7357  0.0874  1.0279
14445TIP3    H264827   3.035   1.080   2.700  3.6999 -0.3694 -3.6862
14446TIP3   OH264828   2.629   3.883  14.497  0.1382 -0.0081  0.7304
14446TIP3    H164829   2.577   3.922  14.427  0.6651 -0.9914 -0.2349
14446TIP3    H264830   2.582   3.804  14.522  2.0154 -1.9585 -1.4677
14447TIP3   OH264831   1.396   2.801  15.555 -0.2677  0.3034  0.3050
14447TIP3    H164832   1.353   2.798  15.640 -0.6218 -3.5233  0.1873
14447TIP3    H264833   1.479   2.754  15.568  0.4369  1.0825 -1.1079
14448TIP3   OH264834   2.334   1.259   1.126  0.2717 -0.5541 -0.6536
14448TIP3    H164835   2.366   1.334   1.077  1.4777 -1.4246 -1.2363
14448TIP3    H264836   2.244   1.247   1.095 -0.1585  0.9862 -0.1095
14449TIP3   OH264837   4.947   5.069   2.090  0.3162 -0.2467  0.1621
14449TIP3    H164838   4.902   5.017   2.024 -0.5699  0.1967  0.4076
14449TIP3    H264839   4.884   5.135   2.117  1.7157  1.5669 -0.7861
14450TIP3   OH264840   4.382   4.121  13.043 -0.3250  0.2209 -0.4838
14450TIP3    H164841   4.418   4.203  13.078 -1.0344  0.3661 -0.0758
14450TIP3    H264842   4.294   4.145  13.013 -0.6087 -0.4311 -0.1887
14451TIP3   OH264843   5.889   1.514   5.503 -0.3493 -0.2390 -0.3578
14451TIP3    H164844   5.927   1.450   5.563 -1.8079 -0.2763  0.5603
14451TIP3    H264845   5.958   1.580   5.492  0.0135 -0.3271  1.2147
14452TIP3   OH264846   5.128   2.667  16.313 -0.1412 -0.8054  0.6650
14452TIP3    H164847   5.209   2.683  16.265 -0.6528 -0.7608 -0.2038
14452TIP3    H264848   5.089   2.590  16.270 -0.8542 -0.4564  0.6612
14453TIP3   OH264849   3.051   3.743  12.965 -0.2665 -0.8298 -0.0012
14453TIP3    H164850   3.062   3.677  12.896 -0.8648 -2.7307  1.6068
14453TIP3    H264851   2.962   3.775  12.953  0.4473  0.7256 -1.5845
14454TIP3   OH264852   0.225   3.222   1.976  0.1871 -0.1938 -0.2891
14454TIP3    H164853   0.315   3.208   1.947  0.0764 -0.5544 -0.4654
14454TIP3    H264854   0.224   3.311   2.011  0.4006  0.1177 -1.0732
14455TIP3   OH264855   2.674   4.998   3.246 -0.0530  0.0550 -0.5148
14455TIP3    H164856   2.654   5.089   3.267 -0.9059 -0.0231 -0.9554
14455TIP3    H264857   2.611   4.947   3.298  0.4679 -0.2902 -0.2134
14456TIP3   OH264858   6.082   2.390   3.055 -0.7896  0.2284 -0.0316
14456TIP3    H164859   6.076   2.461   3.120 -1.7947  1.7081 -1.6488
14456TIP3    H264860   6.176   2.372   3.050 -0.0106  3.7443 -1.7752
14457TIP3   OH264861   3.937   6.045  13.676 -0.3047  0.2019  0.0122
14457TIP3    H164862   3.844   6.024  13.667 -0.3916 -1.3102  3.1027
14457TIP3    H264863   3.942   6.098  13.756  1.4549  0.4863 -0.2527
14458TIP3   OH264864   2.978   2.957  11.405  0.5799  0.0013 -0.1276
14458TIP3    H164865   2.978   3.023  11.473  0.5304 -0.2287  0.0985
14458TIP3    H264866   2.942   2.879  11.447 -0.8312  0.2550 -0.8176
14459TIP3   OH264867   2.984   3.079   2.747  0.5604  0.2963  0.5143
14459TIP3    H164868   2.912   3.096   2.687  0.0593 -0.1807  0.9769
14459TIP3    H264869   3.042   3.020   2.698  1.8731  2.5140 -0.7668
14460TIP3   OH264870   5.900   3.790  12.784 -0.0598  0.5566  0.0609
14460TIP3    H164871   5.936   3.879  12.778 -0.0482  0.6435  1.1564
14460TIP3    H264872   5.957   3.737  12.729  2.1744  0.5667  2.1898
14461TIP3   OH264873   5.151   0.465   5.525 -0.4398  0.2650 -0.0696
14461TIP3    H164874   5.195   0.547   5.504  0.4189 -0.5405 -1.5625
14461TIP3    H264875   5.221   0.404   5.547 -0.9358 -0.5006 -0.5512
14462TIP3   OH264876   0.758   5.973  12.113 -0.1462 -0.2548  0.9740
14462TIP3    H164877   0.805   5.938  12.188 -0.8261  0.6526  1.8534
14462TIP3    H264878   0.765   5.905  12.046  0.6127 -1.0107  1.7958
14463TIP3   OH264879   5.322   6.343   5.457  0.3016 -0.6406  0.0329
14463TIP3    H164880   5.337   6.333   5.363  0.3386 -0.2977  0.0010
14463TIP3    H264881   5.253   6.280   5.477  2.5473 -3.1137  0.4078
14464TIP3   OH264882   5.379   5.867  13.784  0.0532 -0.4990 -0.1130
14464TIP3    H164883   5.364   5.946  13.836  2.0789  0.0066 -0.1925
14464TIP3    H264884   5.370   5.795  13.846  0.3295 -0.0383  0.4812
14465TIP3   OH264885   0.165   6.158   3.546  0.3739  0.6364  0.2441
14465TIP3    H164886   0.203   6.078   3.582 -1.7062 -0.6276 -0.2302
14465TIP3    H264887   0.196   6.227   3.604  1.6218 -0.5944  1.1086
14466TIP3   OH264888   6.685   3.408   6.275 -0.4769 -0.4586 -0.4451
14466TIP3    H164889   6.676   3.468   6.202 -1.3672 -1.9294 -1.6112
14466TIP3    H264890   6.731   3.458   6.343 -0.5650  1.2671 -1.6100
14467TIP3   OH264891   3.635   2.635   5.289 -0.3445 -0.7277  0.1499
14467TIP3    H164892   3.624   2.728   5.304 -0.3045 -0.6605 -0.2196
14467TIP3    H264893   3.710   2.610   5.343  0.7773 -0.1816 -1.0963
14468TIP3   OH264894   3.050   3.275  16.078 -0.1656 -0.8019  0.4176
14468TIP3    H164895   3.139   3.242  16.071 -0.1030 -1.2395  2.5646
14468TIP3    H264896   2.998   3.216  16.023  0.5942 -1.7721  0.7040
14469TIP3   OH264897   4.294   2.052  16.972 -0.0362 -0.7944  0.0819
14469TIP3    H164898   4.254   2.017  17.051 -0.4786  0.5267  0.4658
14469TIP3    H264899   4.233   2.027  16.902 -1.2768  0.6578  0.5798
14470TIP3   OH264900   6.155   3.248   4.915 -0.0226 -0.7852 -0.4334
14470TIP3    H164901   6.195   3.307   4.978  1.5161 -1.0463 -1.1171
14470TIP3    H264902   6.075   3.293   4.887  0.4007  0.3235  0.0824
14471TIP3   OH264903   0.551   1.644  16.907 -0.3833  0.1234 -0.4080
14471TIP3    H164904   0.561   1.557  16.867  1.1022  1.5263 -3.4259
14471TIP3    H264905   0.639   1.680  16.907 -1.1739  2.1567 -0.4720
14472TIP3   OH264906   3.688   4.817  13.340 -0.3388  0.1008  0.1642
14472TIP3    H164907   3.652   4.737  13.378  0.2877 -0.1976  0.1361
14472TIP3    H264908   3.677   4.806  13.246  1.6722 -0.9193  0.0021
14473TIP3   OH264909   5.676   5.010  14.952 -0.3998 -0.5701 -0.3056
14473TIP3    H164910   5.668   4.919  14.924 -1.8048 -0.3677 -0.6558
14473TIP3    H264911   5.586   5.044  14.947  0.3131  1.2746 -1.7270
14474TIP3   OH264912   4.815   2.471   4.197  0.0036  0.0548  0.7638
14474TIP3    H164913   4.750   2.532   4.160 -1.3111 -0.5841  1.9147
14474TIP3    H264914   4.836   2.412   4.125 -1.6486 -0.4857  0.6829
14475TIP3   OH264915   5.480   6.033  14.004  0.1708  0.4084  0.3003
14475TIP3    H164916   5.572   6.042  14.029  0.6100 -0.3922 -0.9050
14475TIP3    H264917   5.441   5.981  14.075  0.0657  2.6040  1.9532
14476TIP3   OH264918   5.582   3.013  12.385 -0.0030  0.2742  0.0733
14476TIP3    H164919   5.562   3.064  12.464 -0.8078  0.7701 -0.4310
14476TIP3    H264920   5.677   3.019  12.376 -0.0446  1.4562  0.2086
14477TIP3   OH264921   4.967   2.258   5.771 -0.0783  0.1493 -0.3494
14477TIP3    H164922   4.916   2.272   5.851  1.1619  0.3192  0.4452
14477TIP3    H264923   4.954   2.166   5.750 -1.2430  0.3415 -0.5684
14478TIP3   OH264924   3.849   5.437   4.934  0.4437  0.0831  0.3383
14478TIP3    H164925   3.848   5.387   5.016  1.0457 -0.4611  0.0277
14478TIP3    H264926   3.758   5.464   4.921  0.1811 -0.5912  0.7197
14479TIP3   OH264927   2.148   4.625  12.122 -0.2297  1.1501 -0.0971
14479TIP3    H164928   2.074   4.671  12.160 -0.9634  0.4768 -0.6942
14479TIP3    H264929   2.207   4.608  12.197 -1.0041  1.0662  0.5025
14480TIP3   OH264930   0.009   0.857   1.980  0.3732  0.0954 -0.3723
14480TIP3    H164931  -0.069   0.882   2.028  2.5892  0.0719  3.7414
14480TIP3    H264932   0.020   0.763   1.998  1.7209  0.2645 -0.1503
14481TIP3   OH264933   5.499   6.367   4.255 -0.2094 -0.2525  0.4839
14481TIP3    H164934   5.476   6.389   4.164  1.2445  0.2981  0.2298
14481TIP3    H264935   5.559   6.293   4.248  0.3631  0.1621  0.9610
14482TIP3   OH264936   6.057   2.607   3.852  0.4330  0.1937  0.1568
14482TIP3    H164937   6.051   2.599   3.757  0.2075 -0.7129  0.2355
14482TIP3    H264938   5.995   2.541   3.885  0.2042  0.7839  0.9263
14483TIP3   OH264939   4.000   3.107  13.302  0.0859  0.9605  0.3217
14483TIP3    H164940   3.915   3.100  13.258  0.6783 -2.5907 -0.5529
14483TIP3    H264941   4.064   3.116  13.231  0.7126 -0.4180  0.6787
14484TIP3   OH264942   3.012   1.895   4.558  0.0539 -0.0286 -0.7688
14484TIP3    H164943   3.001   1.801   4.552  0.9303 -0.2395  0.5124
14484TIP3    H264944   3.053   1.920   4.475  0.4771 -0.8795 -0.8242
14485TIP3   OH264945   1.699   6.321  10.517 -0.7092 -0.2048 -0.4071
14485TIP3    H164946   1.725   6.413  10.524 -2.2124  0.1697  0.7545
14485TIP3    H264947   1.616   6.323  10.469 -1.9318 -0.6902  1.5691
14486TIP3   OH264948   6.810   3.418   2.528  0.1510  0.1085  0.4728
14486TIP3    H164949   6.870   3.397   2.600 -0.0048 -1.5608  0.1435
14486TIP3    H264950   6.792   3.334   2.486 -1.8607  0.6803  0.1076
14487TIP3   OH264951   1.669   4.153  11.530 -0.1901  0.5065 -0.3206
14487TIP3    H164952   1.726   4.193  11.595 -0.3949 -0.3542  0.4238
14487TIP3    H264953   1.582   4.187  11.550 -0.4100 -0.4788  0.4903
14488TIP3   OH264954   6.660   5.404  12.557 -0.4308  0.0870  0.3000
14488TIP3    H164955   6.682   5.467  12.489  0.3941 -2.0399 -1.5106
14488TIP3    H264956   6.681   5.449  12.639  1.1293  1.7866 -0.9641
14489TIP3   OH264957   5.701   4.891  14.261  0.1849 -0.1786  0.6277
14489TIP3    H164958   5.714   4.875  14.168 -0.9386  0.1476  0.3974
14489TIP3    H264959   5.752   4.823  14.305  0.6837 -0.3612 -0.2255
14490TIP3   OH264960   1.392   6.307  11.613  0.4228  0.2169  0.0092
14490TIP3    H164961   1.340   6.358  11.674 -0.1230 -0.8481  0.4706
14490TIP3    H264962   1.327   6.264  11.557  0.7574 -1.2168  0.6638
14491TIP3   OH264963   0.311   5.360   1.504  0.1853 -0.4168 -0.3143
14491TIP3    H164964   0.248   5.316   1.447 -0.3384  0.7731 -0.6762
14491TIP3    H264965   0.259   5.393   1.577  0.7419 -1.2952  0.5037
14492TIP3   OH264966   4.417   1.072  11.886  0.1069  0.4189  0.4588
14492TIP3    H164967   4.405   1.052  11.979  0.2578 -1.3861  0.1410
14492TIP3    H264968   4.383   1.161  11.876 -4.7957 -1.0297  1.3130
14493TIP3   OH264969   1.983   2.742  13.043 -0.2091  0.5707  0.3363
14493TIP3    H164970   1.961   2.681  12.974 -0.2781  0.8983  0.0677
14493TIP3    H264971   2.035   2.810  13.000 -0.4644  0.9074  0.5544
14494TIP3   OH264972   0.637   2.829   0.848  0.5743  0.2287 -0.1337
14494TIP3    H164973   0.670   2.888   0.917 -1.7345  0.6202  0.7124
14494TIP3    H264974   0.715   2.805   0.799  2.1644  0.8571  1.9178
14495TIP3   OH264975   2.395   5.269   5.937  0.5400 -0.5200 -0.1059
14495TIP3    H164976   2.441   5.262   5.853  1.6560  1.1062  0.3448
14495TIP3    H264977   2.462   5.253   6.003  0.2093  0.6365  0.5274
14496TIP3   OH264978   5.242   0.877   1.085  0.1762  0.2521  0.5124
14496TIP3    H164979   5.193   0.796   1.095  0.2909  0.0894 -0.1635
14496TIP3    H264980   5.180   0.937   1.041  0.4827  0.1278 -0.1072
14497TIP3   OH264981   2.803   3.059  12.110 -0.3661 -0.1047  0.5347
14497TIP3    H164982   2.765   2.976  12.081  1.0075 -0.3873 -0.5306
14497TIP3    H264983   2.858   3.087  12.037 -0.5305  1.5751  1.0208
14498TIP3   OH264984   2.753   4.044  16.880  0.0789  0.4525  0.0125
14498TIP3    H164985   2.843   4.020  16.900  0.1486  1.0451  0.4514
14498TIP3    H264986   2.715   4.066  16.964 -0.7652 -0.6955 -0.0530
14499TIP3   OH264987   4.162   3.562   4.069  0.0178 -0.2760  0.2188
14499TIP3    H164988   4.245   3.608   4.074 -0.7123  1.1918 -0.6743
14499TIP3    H264989   4.133   3.555   4.160  1.1778 -0.9594  0.5538
14500TIP3   OH264990   1.473   5.155  15.747 -0.6852 -0.0909  0.5148
14500TIP3    H164991   1.464   5.118  15.659  0.0835  0.9562 -0.0395
14500TIP3    H264992   1.486   5.080  15.804 -0.6583 -0.7550 -0.3439
14501TIP3   OH264993   1.151   4.288  11.671 -0.4600  0.4931 -0.5705
14501TIP3    H164994   1.056   4.293  11.668 -0.4369  0.5326 -1.3183
14501TIP3    H264995   1.178   4.279  11.580  0.2124 -0.3710 -0.3009
14502TIP3   OH264996   4.756   5.690   3.251  0.0146 -0.1195 -0.4119
14502TIP3    H164997   4.796   5.610   3.286  4.2104  1.6654 -0.4470
14502TIP3    H264998   4.706   5.726   3.324  0.3621 -1.4112  0.4933
14503TIP3   OH264999   0.090   3.600  15.806  0.9809  0.1951  0.4132
14503TIP3    H165000   0.167   3.653  15.783  0.5078  0.4257 -0.6714
14503TIP3    H265001   0.116   3.510  15.786  1.0261  0.2501  0.2291
14504TIP3   OH265002   1.617   3.218  17.034 -0.6375  0.2758  0.1038
14504TIP3    H165003   1.531   3.183  17.057 -0.5015 -0.3839 -0.3378
14504TIP3    H265004   1.636   3.179  16.948  0.3107  0.0137  0.4154
14505TIP3   OH265005   5.789   6.668  11.637 -0.3298  0.0599  0.3467
14505TIP3    H165006   5.694   6.678  11.641 -0.7173 -2.8938  0.9283
14505TIP3    H265007   5.819   6.676  11.727 -0.0936  0.3861  0.2433
14506TIP3   OH265008   6.796   1.784  11.869  0.2722  0.2600 -0.3730
14506TIP3    H165009   6.749   1.846  11.925 -0.2869  0.8115 -1.4329
14506TIP3    H265010   6.733   1.713  11.855  0.1547  0.4619 -0.8763
14507TIP3   OH265011   0.253   2.232   6.406 -0.3705 -0.0963  0.7602
14507TIP3    H165012   0.273   2.139   6.395 -0.5331 -0.0125 -0.3533
14507TIP3    H265013   0.168   2.244   6.363 -0.1434  0.6545  0.5032
14508TIP3   OH265014   5.880   5.187   5.502  0.1672  0.2789 -0.3089
14508TIP3    H165015   5.960   5.152   5.462  0.2716  1.5788 -1.3042
14508TIP3    H265016   5.875   5.143   5.587  1.6587 -0.2109 -0.4337
14509TIP3   OH265017   0.835   1.323  10.926  0.2058  0.5543 -0.0295
14509TIP3    H165018   0.745   1.313  10.895  0.0700  0.6876  0.3207
14509TIP3    H265019   0.888   1.320  10.846 -0.0830  0.1583 -0.2088
14510TIP3   OH265020   3.322   6.542  12.021  0.2759  0.4941  0.3719
14510TIP3    H165021   3.258   6.474  11.998 -0.5879  1.7506 -1.0479
14510TIP3    H265022   3.407   6.499  12.011 -0.2343 -0.2454 -1.0635
14511TIP3   OH265023   5.700   5.374   1.238  0.5927  0.4685  0.1467
14511TIP3    H165024   5.677   5.364   1.330  1.8872 -0.0491  0.4380
14511TIP3    H265025   5.795   5.368   1.236  0.5227 -0.8399 -1.3778
14512TIP3   OH265026   6.162   3.919   1.552  0.1497 -0.4652  0.0834
14512TIP3    H165027   6.078   3.888   1.517  0.9136 -2.0418 -0.4613
14512TIP3    H265028   6.224   3.849   1.531  1.8567  1.1585 -0.5760
14513TIP3   OH265029   5.134   4.006  14.433 -0.1011  0.6971 -0.0762
14513TIP3    H165030   5.132   3.952  14.512  0.7510  0.1655 -0.3991
14513TIP3    H265031   5.043   4.024  14.413 -0.3379  0.5951  0.8678
14514TIP3   OH265032   4.907   2.566  15.118 -0.2047  0.4700  0.2165
14514TIP3    H165033   4.915   2.500  15.186 -0.3338  1.4652  1.2207
14514TIP3    H265034   4.908   2.649  15.165  0.6272  1.2153 -1.0643
14515TIP3   OH265035   1.737   2.884   6.219  0.2564  0.2855 -0.2095
14515TIP3    H165036   1.731   2.835   6.301  1.1319  1.1674  0.4052
14515TIP3    H265037   1.812   2.845   6.174  1.8140  1.8912  0.8934
14516TIP3   OH265038   6.731   2.327   2.553  0.4574  0.1832 -0.3902
14516TIP3    H165039   6.771   2.341   2.468  0.0078 -0.2417 -0.6804
14516TIP3    H265040   6.777   2.386   2.612  1.8653 -0.6666 -0.6099
14517TIP3   OH265041   6.176   3.209   4.410 -0.4741 -0.0047 -0.4161
14517TIP3    H165042   6.233   3.279   4.441 -1.1225 -0.1962  1.3292
14517TIP3    H265043   6.227   3.129   4.424 -1.8617 -0.4635  3.5314
14518TIP3   OH265044   4.088   2.848   2.508  0.4053 -0.2877  0.0394
14518TIP3    H165045   3.992   2.853   2.499  0.4459 -0.0183 -0.2776
14518TIP3    H265046   4.106   2.754   2.518  0.0182 -0.2452  1.2295
14519TIP3   OH265047   4.535   3.716  14.683 -0.0500 -0.0424 -0.4786
14519TIP3    H165048   4.445   3.716  14.650 -0.2726 -0.3876  0.1164
14519TIP3    H265049   4.556   3.624  14.696  0.4814  0.0225 -0.8465
14520TIP3   OH265050   6.483   0.585  17.054  0.2992 -0.3787  0.0367
14520TIP3    H165051   6.413   0.559  17.113  0.3770 -0.3080  0.1600
14520TIP3    H265052   6.491   0.679  17.066  0.4629 -0.3972  0.0730
14521TIP3   OH265053   2.243   5.309  15.997 -0.3436  0.4885  0.3103
14521TIP3    H165054   2.244   5.221  15.959  2.4235  0.6083 -0.0542
14521TIP3    H265055   2.211   5.365  15.926  0.8301  0.1612 -0.4978
14522TIP3   OH265056   4.354   2.021   2.817 -0.1739 -0.0338  0.3353
14522TIP3    H165057   4.344   2.078   2.741 -1.4288 -1.1360 -0.3817
14522TIP3    H265058   4.419   2.064   2.872 -2.4475  3.1070  0.8062
14523TIP3   OH265059   2.179   0.782   0.363  0.0072 -0.2032 -0.3013
14523TIP3    H165060   2.247   0.763   0.299  0.4089 -0.8556  0.3120
14523TIP3    H265061   2.186   0.876   0.378  0.8405 -0.2802 -0.1763
14524TIP3   OH265062   5.696   0.039  11.192  0.2513 -0.5020 -0.3066
14524TIP3    H165063   5.750  -0.030  11.153  0.9126 -0.2929  0.2232
14524TIP3    H265064   5.752   0.078  11.259 -0.2880  0.2336 -0.2736
14525TIP3   OH265065   6.076   6.194   3.802 -0.5655  0.7558  0.3373
14525TIP3    H165066   5.980   6.200   3.799 -0.7296 -0.8838  1.2565
14525TIP3    H265067   6.103   6.204   3.710 -1.6626  0.5819 -0.0193
14526TIP3   OH265068   1.383   4.057   3.376  0.3667 -0.0973  0.2701
14526TIP3    H165069   1.366   3.971   3.414 -1.3342 -0.1052 -0.3862
14526TIP3    H265070   1.443   4.099   3.437 -1.0674 -0.6530  2.1735
14527TIP3   OH265071   5.065   0.489  16.733 -0.2195  0.4364  0.1383
14527TIP3    H165072   5.147   0.463  16.691  0.6609 -0.9301  2.5166
14527TIP3    H265073   5.077   0.581  16.753  0.3114  0.5058 -0.4408
14528TIP3   OH265074   2.889   5.930   6.259  0.3073  0.1474 -0.4756
14528TIP3    H165075   2.932   5.858   6.214  0.9727 -0.0159  0.3921
14528TIP3    H265076   2.845   5.889   6.334 -0.0285  0.5309 -0.4592
14529TIP3   OH265077   1.096   1.869  11.672 -0.1455  0.0534  0.2712
14529TIP3    H165078   1.177   1.864  11.722 -0.9609 -0.0642  1.6637
14529TIP3    H265079   1.035   1.916  11.730 -0.4276  2.2840 -1.6694
14530TIP3   OH265080   4.448   6.414  16.435 -0.4621  0.1786 -0.1452
14530TIP3    H165081   4.461   6.485  16.498  2.2242 -0.7578  0.5176
14530TIP3    H265082   4.368   6.371  16.463 -0.7156  1.3664  1.0497
14531TIP3   OH265083   2.291   3.066  12.682  0.7463 -0.3845  0.0589
14531TIP3    H165084   2.318   3.007  12.612 -0.3656 -1.5985  0.6194
14531TIP3    H265085   2.203   3.095  12.657  1.0612  0.6148  0.0641
14532TIP3   OH265086   6.636   1.700  15.329 -0.1138  0.3316  0.3228
14532TIP3    H165087   6.692   1.746  15.391  0.4972 -0.3779  0.3077
14532TIP3    H265088   6.587   1.770  15.285 -0.2777  0.8589  1.3285
14533TIP3   OH265089   2.072   3.547  16.957 -0.0513 -0.7556 -0.4966
14533TIP3    H165090   2.042   3.531  17.047 -0.6377 -1.3372 -0.7924
14533TIP3    H265091   2.141   3.482  16.943  0.7579  0.0008 -0.1255
14534TIP3   OH265092   1.260   2.509  15.593  0.4475 -0.2080 -0.0518
14534TIP3    H165093   1.166   2.499  15.610  0.2983  0.4210 -0.4695
14534TIP3    H265094   1.270   2.487  15.500  1.2629 -3.6584  0.6892
14535TIP3   OH265095   2.476   1.850   4.171 -0.2972  0.7798  0.2661
14535TIP3    H165096   2.544   1.915   4.152 -0.3872  0.9030  0.3623
14535TIP3    H265097   2.399   1.902   4.192  0.6257  0.8337  4.4921
14536TIP3   OH265098   3.715   4.235  15.318 -0.2907  0.3408  0.3765
14536TIP3    H165099   3.652   4.306  15.305  0.0175  0.8387  1.5291
14536TIP3    H265100   3.766   4.233  15.237  0.2885  2.0317  0.6631
14537TIP3   OH265101   0.696   0.232  12.998 -0.5290  0.0412  0.4480
14537TIP3    H165102   0.670   0.259  12.910  0.3523  0.1449  0.2093
14537TIP3    H265103   0.687   0.310  13.052  0.5742  0.4452  0.0755
14538TIP3   OH265104   0.093   3.044   5.057 -0.1454 -0.1285 -0.0196
14538TIP3    H165105   0.174   3.044   5.108 -0.6505 -0.6640  0.8051
14538TIP3    H265106   0.081   2.953   5.030 -1.6118 -0.5053  1.7487
14539TIP3   OH265107   5.388   2.747   4.660 -0.3188  0.7827  0.7837
14539TIP3    H165108   5.395   2.661   4.621 -0.2458  2.5022 -3.5014
14539TIP3    H265109   5.479   2.771   4.681  0.0982  0.9759 -1.0526
14540TIP3   OH265110   2.845   5.847   0.807 -0.3941 -0.2695 -0.5468
14540TIP3    H165111   2.846   5.803   0.722  1.5990  1.1400 -1.3363
14540TIP3    H265112   2.936   5.844   0.836 -1.0278 -0.6470  1.5349
14541TIP3   OH265113   1.295   1.334  16.286 -0.3359  0.4797 -1.1225
14541TIP3    H165114   1.259   1.397  16.224 -0.6565  0.9208 -0.4987
14541TIP3    H265115   1.247   1.253  16.268 -0.7321  0.7207 -1.1626
14542TIP3   OH265116   1.632   1.424  15.818  0.6737  0.0784 -0.2593
14542TIP3    H165117   1.634   1.519  15.808 -0.0610  0.1303  0.0148
14542TIP3    H265118   1.703   1.393  15.763  0.1952  0.7141 -1.2630
14543TIP3   OH265119   1.589   0.883   3.488  0.0264 -0.0043  0.3727
14543TIP3    H165120   1.671   0.834   3.488 -0.6576 -1.1944 -0.4700
14543TIP3    H265121   1.596   0.942   3.563  1.6865  0.0024  0.2540
14544TIP3   OH265122   6.764   2.307   0.120 -0.4264 -0.6706 -0.4789
14544TIP3    H165123   6.814   2.226   0.112 -2.4257 -2.0394  0.0152
14544TIP3    H265124   6.783   2.339   0.208  2.1877  0.7496 -1.4698
14545TIP3   OH265125   6.236   2.166  17.021 -0.0106  0.0311 -0.2399
14545TIP3    H165126   6.281   2.229  16.965  0.6318 -0.4535 -0.2778
14545TIP3    H265127   6.222   2.090  16.964  0.4920 -0.3992  0.2048
14546TIP3   OH265128   5.956   2.722  11.973  0.1029  0.4124  0.1248
14546TIP3    H165129   5.941   2.629  11.955 -1.7202  0.3619  1.5646
14546TIP3    H265130   6.016   2.751  11.905 -1.6265 -1.1341 -2.1930
14547TIP3   OH265131   1.846   5.428  12.027  1.0105 -0.3873 -0.7564
14547TIP3    H165132   1.807   5.378  11.955  2.8220 -1.3159 -1.1535
14547TIP3    H265133   1.877   5.362  12.089  1.8324  0.2922 -0.4128
14548TIP3   OH265134   4.948   3.555  12.284  0.3727  0.4796 -0.1967
14548TIP3    H165135   4.877   3.579  12.344 -0.4787 -1.5426 -0.3325
14548TIP3    H265136   5.004   3.497  12.336  0.9750  0.6388 -0.6531
14549TIP3   OH265137   6.210   2.419  13.637 -0.4812 -0.0516  0.4638
14549TIP3    H165138   6.145   2.489  13.643  1.0593  1.5528 -0.4596
14549TIP3    H265139   6.274   2.440  13.706  0.1998 -0.2865 -0.0816
14550TIP3   OH265140   5.412   6.490   2.231 -0.1722 -0.0451  0.0026
14550TIP3    H165141   5.380   6.407   2.195 -1.4787  0.2702  0.3999
14550TIP3    H265142   5.498   6.468   2.267 -0.9442 -1.4942  1.0798
14551TIP3   OH265143   3.742   4.878   3.450  0.0713 -0.3861 -0.0709
14551TIP3    H165144   3.747   4.783   3.456 -1.5213 -0.4254  1.7018
14551TIP3    H265145   3.658   4.900   3.491  0.3421  1.7778 -0.5461
14552TIP3   OH265146   0.976   2.711   1.653 -0.7718  0.0604 -0.0780
14552TIP3    H165147   1.055   2.764   1.667  0.1368 -1.0037 -0.9526
14552TIP3    H265148   0.906   2.775   1.644  0.2470  1.1235 -0.8758
14553TIP3   OH265149   1.188   5.051  16.012  0.1017 -0.3815 -0.1366
14553TIP3    H165150   1.128   5.013  15.949 -0.2447 -0.1659  0.0630
14553TIP3    H265151   1.252   5.099  15.959  0.0614 -0.5574 -0.3443
14554TIP3   OH265152   3.088   3.279   3.192 -0.0707  0.1002  0.7675
14554TIP3    H165153   3.129   3.333   3.125 -0.3401  1.3873  1.6189
14554TIP3    H265154   3.020   3.230   3.145 -2.2258  3.0933  0.5191
14555TIP3   OH265155   4.212   6.590  16.424  0.1197 -0.0752 -0.0234
14555TIP3    H165156   4.154   6.623  16.356  0.8722  1.6675  0.1105
14555TIP3    H265157   4.261   6.667  16.453  0.6548 -0.9899  1.6689
14556TIP3   OH265158   0.942   6.504  11.157 -0.5284 -0.1309  0.2299
14556TIP3    H165159   0.876   6.569  11.182  1.7125  2.2486  0.3937
14556TIP3    H265160   0.897   6.420  11.165 -3.3553  1.3135  0.8063
14557TIP3   OH265161   5.750   6.067  13.344  0.0095  0.1317  0.0922
14557TIP3    H165162   5.828   6.013  13.332  1.2105  1.2258  2.4505
14557TIP3    H265163   5.697   6.019  13.408 -0.4638  0.2561 -0.1928
14558TIP3   OH265164   6.202   6.463  14.208  0.2613 -0.1527 -0.7012
14558TIP3    H165165   6.200   6.374  14.246 -0.4036  0.5764  1.0838
14558TIP3    H265166   6.272   6.507  14.256  1.3429  0.0054 -2.3540
14559TIP3   OH265167   1.232   2.588  11.322 -0.1148  0.1988  0.3817
14559TIP3    H165168   1.148   2.591  11.367  0.0008 -0.8514  0.6877
14559TIP3    H265169   1.210   2.606  11.230 -0.6803 -0.1380  0.4474
14560TIP3   OH265170   5.794   3.626  11.757  0.6325  0.1746  0.0195
14560TIP3    H165171   5.850   3.703  11.741  0.2250  0.9587  2.0586
14560TIP3    H265172   5.799   3.576  11.676  2.2015  1.5456 -0.8005
14561TIP3   OH265173   4.863   3.246  10.310  0.0059 -0.4558 -0.6677
14561TIP3    H165174   4.769   3.229  10.317 -0.3011  1.0445 -0.8344
14561TIP3    H265175   4.898   3.228  10.398 -0.4037 -1.0867 -0.6242
14562TIP3   OH265176   2.079   2.331   6.073 -0.3135 -0.1272  0.0882
14562TIP3    H165177   2.120   2.352   6.157 -2.8030  0.4044  1.2491
14562TIP3    H265178   2.041   2.245   6.085 -0.3696 -0.2194 -0.6572
14563TIP3   OH265179   3.461   5.116   6.194  0.4178  0.6931 -0.0098
14563TIP3    H165180   3.475   5.091   6.285  1.6129 -1.1471 -0.6450
14563TIP3    H265181   3.379   5.165   6.195 -0.3105 -0.4543  1.8711
14564TIP3   OH265182   5.213   6.125   5.072 -0.6139 -0.9648 -0.0365
14564TIP3    H165183   5.284   6.062   5.085  1.0304  0.7822 -0.1667
14564TIP3    H265184   5.244   6.206   5.113 -3.0781 -0.4506  1.0414
14565TIP3   OH265185   5.214   2.019  15.731  0.2140  0.1560 -0.6434
14565TIP3    H165186   5.154   1.944  15.731  0.1359  0.2182  0.1845
14565TIP3    H265187   5.183   2.074  15.659  0.4228 -0.7228 -1.4245
14566TIP3   OH265188   4.109   0.832  14.105 -0.4655 -0.0741  0.0724
14566TIP3    H165189   4.046   0.760  14.100 -1.8652  0.7673  3.1052
14566TIP3    H265190   4.191   0.791  14.133  0.0167 -0.9832 -2.4657
14567TIP3   OH265191   5.406   1.779  15.966  0.0949 -0.1379 -0.4123
14567TIP3    H165192   5.471   1.836  16.007  1.1158 -2.0228  0.7149
14567TIP3    H265193   5.324   1.799  16.010  0.0998  1.4666 -1.0671
14568TIP3   OH265194   4.909   6.505   0.620 -0.1150 -0.1965  0.7787
14568TIP3    H165195   4.963   6.477   0.546 -1.3789  0.9733 -0.6599
14568TIP3    H265196   4.956   6.580   0.656 -0.1511  0.0763  0.2789
14569TIP3   OH265197   2.733   4.019  15.043  0.0889 -0.1790 -0.7014
14569TIP3    H165198   2.682   3.996  14.965  0.9345  1.9043 -1.9435
14569TIP3    H265199   2.673   4.072  15.096  0.0085 -0.2911 -0.6791
14570TIP3   OH265200   5.046   4.573   0.396  0.2427  0.0891  0.5070
14570TIP3    H165201   5.053   4.526   0.313  0.6404 -1.2872  1.2801
14570TIP3    H265202   5.106   4.526   0.455 -0.5559  0.5988  1.7662
14571TIP3   OH265203   3.196   5.893  16.167  0.2333  0.2609  0.5213
14571TIP3    H165204   3.111   5.891  16.125  0.0279  2.4909  0.7140
14571TIP3    H265205   3.182   5.851  16.252 -0.7063  0.6796  0.5845
14572TIP3   OH265206   3.471   6.383  13.489 -0.3278  0.2438  0.2830
14572TIP3    H165207   3.534   6.433  13.436  1.7925 -0.7749  1.7047
14572TIP3    H265208   3.493   6.291  13.471 -3.0589 -0.2536 -1.0060
14573TIP3   OH265209   2.786   2.946  12.404  0.2603 -0.1935  0.9307
14573TIP3    H165210   2.765   2.978  12.492  0.2787  1.9760  0.2018
14573TIP3    H265211   2.702   2.915  12.369  0.3062 -1.3745  1.7792
14574TIP3   OH265212   0.395   4.688  11.406  0.1766 -0.0434  0.4533
14574TIP3    H165213   0.395   4.775  11.364 -1.9469 -0.3160 -0.2555
14574TIP3    H265214   0.450   4.634  11.350 -1.1975  0.0514 -1.0604
14575TIP3   OH265215   1.533   6.170   3.605 -0.2146 -0.6681  0.1585
14575TIP3    H165216   1.543   6.236   3.673 -0.4957 -0.2396 -0.2121
14575TIP3    H265217   1.438   6.162   3.594 -0.2098 -1.6871  0.7341
14576TIP3   OH265218   2.746   0.823  14.863  0.0945 -0.3886  0.2466
14576TIP3    H165219   2.842   0.821  14.857  0.3584  0.2081  2.8980
14576TIP3    H265220   2.725   0.759  14.931 -1.3436 -0.0694  0.1332
14577TIP3   OH265221   6.449   0.899   2.523 -0.5924 -0.8708  0.1523
14577TIP3    H165222   6.448   0.989   2.491  0.3666 -0.6135  0.8039
14577TIP3    H265223   6.432   0.846   2.446  0.5048 -0.2015 -0.5815
14578TIP3   OH265224   5.077   4.411  15.765 -0.0791 -0.6265  0.0395
14578TIP3    H165225   5.163   4.436  15.734 -0.6232  2.0568  0.5026
14578TIP3    H265226   5.041   4.355  15.696  1.3352 -0.3486 -0.9479
14579TIP3   OH265227   0.806   2.901   2.723  0.2960  0.5094 -0.1294
14579TIP3    H165228   0.725   2.930   2.764 -0.8305 -2.3684 -0.0909
14579TIP3    H265229   0.795   2.806   2.713  2.3985  0.4540 -2.9559
14580TIP3   OH265230   3.037   1.199   5.244 -0.0018  0.2020 -0.2326
14580TIP3    H165231   2.947   1.187   5.274 -0.0452 -0.3190 -0.5729
14580TIP3    H265232   3.080   1.116   5.265  0.8182  0.9883  1.3849
14581TIP3   OH265233   6.504   5.922   3.886  0.2495  0.4177  0.1543
14581TIP3    H165234   6.487   5.875   3.968 -0.2507  1.4498  0.6671
14581TIP3    H265235   6.420   5.964   3.865  0.1231 -0.5220 -1.3620
14582TIP3   OH265236   4.814   6.391  12.403  0.0021  0.1808 -0.4670
14582TIP3    H165237   4.886   6.428  12.353 -0.6891  2.5065  0.1472
14582TIP3    H265238   4.841   6.401  12.495 -0.3535 -0.5629 -0.2738
14583TIP3   OH265239   3.278   1.212  14.212  0.9641  0.0969 -0.1383
14583TIP3    H165240   3.332   1.139  14.245 -0.6442 -0.4970  1.3620
14583TIP3    H265241   3.196   1.171  14.186  1.3905  0.8898 -3.0029
14584TIP3   OH265242   1.887   1.705  11.931 -0.3203  0.1431 -0.2028
14584TIP3    H165243   1.815   1.745  11.980  0.1219  1.3442 -0.5041
14584TIP3    H265244   1.951   1.775  11.921  1.4719 -1.2050  1.1241
14585TIP3   OH265245   6.159   6.571   4.246 -0.0069 -0.3108 -0.2835
14585TIP3    H165246   6.118   6.655   4.264  0.0921  0.3718 -2.8678
14585TIP3    H265247   6.146   6.520   4.326 -0.3947  1.9966  1.2117
14586TIP3   OH265248   1.224   3.820  15.646  0.0477 -0.2863 -0.3678
14586TIP3    H165249   1.223   3.803  15.740 -3.1944  1.2705  0.0366
14586TIP3    H265250   1.282   3.896  15.636  0.2385 -0.3194  0.4197
14587TIP3   OH265251   5.623   2.157  15.087  0.2545 -0.3412  0.6606
14587TIP3    H165252   5.585   2.092  15.146 -0.5438 -0.8404 -0.3772
14587TIP3    H265253   5.566   2.233  15.095  1.4662  0.4809  2.2523
14588TIP3   OH265254   1.108   2.909  11.226  0.5911  0.0425 -0.8781
14588TIP3    H165255   1.041   2.960  11.272 -0.0295  0.3720 -2.0914
14588TIP3    H265256   1.184   2.910  11.284  0.0538  0.9851 -0.1653
14589TIP3   OH265257   0.053   2.837   2.836  0.1016 -0.0677 -0.0005
14589TIP3    H165258   0.013   2.921   2.816 -1.0851 -0.8086 -0.9396
14589TIP3    H265259   0.128   2.831   2.777 -1.1479 -0.5974 -1.6235
14590TIP3   OH265260   2.325   1.446   6.155 -0.6307  0.6436  0.3439
14590TIP3    H165261   2.388   1.515   6.134 -0.8814  1.8772  3.1982
14590TIP3    H265262   2.366   1.396   6.226 -0.5372 -2.1519 -1.4940
14591TIP3   OH265263   5.570   3.869   5.929 -0.1068 -0.2346  0.2031
14591TIP3    H165264   5.610   3.794   5.974 -2.7034 -1.4287  0.7292
14591TIP3    H265265   5.521   3.914   5.997 -1.5200 -0.2169 -0.7782
14592TIP3   OH265266   1.380   2.077  12.100  0.2161 -0.1523  0.5019
14592TIP3    H165267   1.397   1.987  12.128  0.5605  0.0311  0.9018
14592TIP3    H265268   1.396   2.077  12.006 -1.2382 -0.8460  0.2263
14593TIP3   OH265269   5.657   1.412  16.204  0.0634 -0.0447 -0.1833
14593TIP3    H165270   5.684   1.322  16.220  0.9721  0.6482  2.9797
14593TIP3    H265271   5.563   1.412  16.225  0.3534 -0.0366  1.2371
14594TIP3   OH265272   0.001   5.258   5.427 -0.8207  0.6083 -0.2181
14594TIP3    H165273   0.088   5.217   5.424 -0.9588  0.3695 -1.7080
14594TIP3    H265274   0.018   5.352   5.429 -0.5244  0.5907 -1.4999
14595TIP3   OH265275   3.874   3.550   2.033 -0.5301 -0.4125  0.1790
14595TIP3    H165276   3.904   3.465   2.064  0.6319 -0.7657 -1.7593
14595TIP3    H265277   3.780   3.551   2.054 -0.3241 -1.6529  1.2893
14596TIP3   OH265278   6.050   4.463  16.079  0.0561  0.4121 -0.6254
14596TIP3    H165279   6.060   4.529  16.148  2.0222  0.0568 -0.5287
14596TIP3    H265280   5.985   4.402  16.114  1.4919 -0.1343  1.2530
14597TIP3   OH265281   6.553   5.847   2.476 -0.4623  0.0571  0.3559
14597TIP3    H165282   6.516   5.889   2.399 -1.1122  0.3306  0.8054
14597TIP3    H265283   6.505   5.884   2.550 -2.6158 -2.9661  0.6671
14598TIP3   OH265284   5.740   6.518   0.756 -0.2679  0.0023  0.2504
14598TIP3    H165285   5.692   6.451   0.707 -0.7385 -0.1851  0.9670
14598TIP3    H265286   5.823   6.476   0.779  0.5896  0.5491 -1.5848
14599TIP3   OH265287   0.597   6.045  14.280  0.2634 -0.4202  0.3097
14599TIP3    H165288   0.537   6.088  14.341  1.0498  0.4570  0.4886
14599TIP3    H265289   0.580   5.952  14.292 -1.4840 -0.1769 -0.0984
14600TIP3   OH265290   3.890   2.055   1.394  0.3648 -0.3662  0.2890
14600TIP3    H165291   3.942   2.134   1.383  0.4111 -0.5452 -0.8529
14600TIP3    H265292   3.847   2.042   1.310 -1.2224 -0.4434  1.0721
14601TIP3   OH265293   1.484   4.441   2.942 -0.0753  0.1098 -0.0073
14601TIP3    H165294   1.536   4.510   2.900  1.1288 -1.2623 -0.8643
14601TIP3    H265295   1.393   4.471   2.934  0.3307  1.0674 -1.3901
14602TIP3   OH265296   4.146   4.788   2.615  0.5863  0.1169  0.4163
14602TIP3    H165297   4.136   4.790   2.711  0.5770 -1.9545  0.4949
14602TIP3    H265298   4.079   4.728   2.585  1.0127  0.2419 -0.8465
14603TIP3   OH265299   0.928   0.957  14.845  0.3781 -0.0280 -0.1030
14603TIP3    H165300   0.999   1.019  14.831 -0.3827  0.8719 -0.0220
14603TIP3    H265301   0.864   1.003  14.899 -0.8911 -0.3311 -1.2682
14604TIP3   OH265302   0.289   5.128  12.591 -0.1208  0.3925 -0.0367
14604TIP3    H165303   0.200   5.096  12.604  0.4774 -0.5015  2.3085
14604TIP3    H265304   0.296   5.141  12.496 -2.3577 -0.5928 -0.4032
14605TIP3   OH265305   1.349   2.107  16.567 -0.2050  0.3027 -0.0375
14605TIP3    H165306   1.340   2.192  16.523  0.2348 -0.7239 -2.2340
14605TIP3    H265307   1.313   2.044  16.504 -0.6288 -1.1475  1.5909
14606TIP3   OH265308   0.185   2.564  15.282  0.2122  0.3930  0.8161
14606TIP3    H165309   0.207   2.504  15.354  0.5769  0.6282  0.9027
14606TIP3    H265310   0.150   2.507  15.214  2.0671 -0.1560  0.2496
14607TIP3   OH265311   4.047   5.167  12.893 -0.2350  0.3597 -0.2080
14607TIP3    H165312   4.134   5.128  12.889 -0.3160  0.2200 -0.6004
14607TIP3    H265313   4.058   5.256  12.861  0.1478  1.0271  1.6263
14608TIP3   OH265314   6.788   5.586   1.637 -0.0840 -0.2939 -0.1894
14608TIP3    H165315   6.721   5.517   1.633 -0.1892 -0.2078  0.1123
14608TIP3    H265316   6.744   5.661   1.677  1.3125 -1.5872  4.3630
14609TIP3   OH265317   2.266   6.480   5.193 -0.5562 -0.2547 -0.3062
14609TIP3    H165318   2.248   6.535   5.269  2.0583  1.3718 -0.7326
14609TIP3    H265319   2.209   6.515   5.125 -1.6730 -0.6108  0.4139
14610TIP3   OH265320   0.064   5.979  12.365 -1.2446  0.4441 -0.9521
14610TIP3    H165321   0.080   5.989  12.271 -0.3456 -0.0244 -0.8546
14610TIP3    H265322   0.095   6.060  12.404  1.0446 -0.4594 -0.7609
14611TIP3   OH265323   5.264   0.515  12.675  0.6059  0.4495 -0.1362
14611TIP3    H165324   5.178   0.557  12.666 -0.2403 -1.1302  0.2818
14611TIP3    H265325   5.322   0.571  12.624 -0.2957  2.5591  0.9915
14612TIP3   OH265326   6.347   2.143   6.118 -0.2537 -0.4641 -0.3581
14612TIP3    H165327   6.371   2.060   6.160 -1.9202 -1.3448 -1.0279
14612TIP3    H265328   6.279   2.179   6.173  0.7321  0.6968  0.1379
14613TIP3   OH265329   1.351   5.511  10.816 -0.5021 -0.1099  0.5866
14613TIP3    H165330   1.332   5.598  10.851  1.7334  0.8739 -0.4520
14613TIP3    H265331   1.361   5.456  10.894 -1.5516  0.6366  1.2782
14614TIP3   OH265332   6.009   2.431  14.625  0.2788  0.1769  0.0126
14614TIP3    H165333   5.919   2.431  14.658 -0.2022  0.7737 -1.2401
14614TIP3    H265334   6.000   2.422  14.530  1.6262 -1.7372  0.0099
14615TIP3   OH265335   2.344   4.642   4.929 -0.5238 -0.2116  0.6664
14615TIP3    H165336   2.332   4.734   4.952 -1.6718  0.0279 -0.7566
14615TIP3    H265337   2.423   4.640   4.875 -1.6573  0.3208 -1.1013
14616TIP3   OH265338   1.725   3.453   6.089 -0.4207  0.1903 -0.3327
14616TIP3    H165339   1.772   3.535   6.108  2.8756 -0.8154 -3.1071
14616TIP3    H265340   1.750   3.395   6.162 -0.8470  0.9359  0.4210
14617TIP3   OH265341   0.557   6.560   2.494 -0.6904 -0.5551  0.2664
14617TIP3    H165342   0.617   6.544   2.567 -0.4380  0.6505  0.3328
14617TIP3    H265343   0.501   6.482   2.492  1.4833 -2.2136 -0.4344
14618TIP3   OH265344   2.035   2.957  13.387  0.3304  0.1742  0.0159
14618TIP3    H165345   1.993   2.977  13.303  1.1205 -2.0916 -1.0058
14618TIP3    H265346   2.128   2.974  13.371  0.2838  1.5768  1.0811
14619TIP3   OH265347   4.224   4.663   0.738 -0.0954 -0.1605 -0.2656
14619TIP3    H165348   4.242   4.569   0.733 -0.7011 -0.2940  0.0099
14619TIP3    H265349   4.131   4.669   0.759  0.6881  0.4143  3.7101
14620TIP3   OH265350   1.256   1.357   4.637 -0.1013 -0.3289 -0.5022
14620TIP3    H165351   1.286   1.416   4.568  1.1987 -1.7005 -1.1657
14620TIP3    H265352   1.296   1.392   4.717 -0.8209  0.7078 -0.5827
14621TIP3   OH265353   3.705   6.786   2.195  1.0507 -0.1407 -0.3955
14621TIP3    H165354   3.717   6.786   2.100 -0.4130 -0.2207 -0.5963
14621TIP3    H265355   3.612   6.772   2.208  1.5197 -2.5285  1.1025
14622TIP3   OH265356   2.742   1.240   0.223  0.2465  0.4358  0.5819
14622TIP3    H165357   2.691   1.222   0.302  0.3205  2.0842  1.0328
14622TIP3    H265358   2.686   1.297   0.170  1.1095  1.2542  0.5231
14623TIP3   OH265359   6.177   5.018   2.640  0.2677 -0.4658 -0.4033
14623TIP3    H165360   6.159   5.012   2.734 -1.4558 -0.0021 -0.6792
14623TIP3    H265361   6.193   4.928   2.613 -2.2912 -1.0411 -0.2080
14624TIP3   OH265362   0.915   2.614   3.905  0.4783  0.0388  0.0695
14624TIP3    H165363   0.893   2.589   3.995 -0.5252 -1.2256 -0.4784
14624TIP3    H265364   0.993   2.562   3.884  0.0856 -0.4890 -0.1206
14625TIP3   OH265365   5.959   5.679  15.761  0.7872  0.1599 -0.1826
14625TIP3    H165366   5.963   5.697  15.855  0.5149 -1.3008  0.1443
14625TIP3    H265367   6.036   5.625  15.744  1.1673  0.9150 -0.9413
14626TIP3   OH265368   6.316   5.294  14.636 -0.3402  0.4778  0.1926
14626TIP3    H165369   6.384   5.245  14.683 -0.5241 -0.1754 -0.2048
14626TIP3    H265370   6.242   5.233  14.631 -0.9961  1.2078  0.7035
14627TIP3   OH265371   1.437   1.234   5.979 -0.2195 -0.1444  0.3533
14627TIP3    H165372   1.500   1.197   6.041 -0.9451  0.8581  1.7624
14627TIP3    H265373   1.352   1.205   6.012 -0.7310  1.7719  0.8411
14628TIP3   OH265374   0.598   1.476  15.683  0.2781 -0.0344 -0.0143
14628TIP3    H165375   0.598   1.559  15.636  0.2324  0.8600  1.5241
14628TIP3    H265376   0.672   1.481  15.742 -1.0531 -0.0817  1.7507
14629TIP3   OH265377   5.347   3.567  11.209 -0.2964 -1.1512  0.7417
14629TIP3    H165378   5.336   3.475  11.234 -1.5870 -1.5564 -1.1325
14629TIP3    H265379   5.343   3.615  11.292  0.3224 -2.7494  1.7454
14630TIP3   OH265380   5.513   4.313  14.358  0.1957 -0.0382 -0.6229
14630TIP3    H165381   5.525   4.228  14.400 -0.5178 -0.3391 -1.0168
14630TIP3    H265382   5.418   4.324  14.353  0.2627  1.3647  0.5805
14631TIP3   OH265383   3.195   0.359  15.936 -0.2324  0.1080  0.7994
14631TIP3    H165384   3.174   0.451  15.921  0.5365  0.0733 -0.6166
14631TIP3    H265385   3.135   0.332  16.006  0.1480  1.9073  1.8811
14632TIP3   OH265386   1.636   5.968  16.401 -0.3398 -0.2178 -0.0386
14632TIP3    H165387   1.584   5.890  16.378 -0.4587  0.2344 -1.3943
14632TIP3    H265388   1.726   5.942  16.383 -0.3720 -0.0783 -0.4140
14633TIP3   OH265389   3.736   0.359  15.524  0.1064  0.5317  0.6454
14633TIP3    H165390   3.749   0.389  15.614 -1.1951  1.3587  0.5790
14633TIP3    H265391   3.754   0.436  15.471  0.9707  0.0177  0.1785
14634TIP3   OH265392   3.886   1.598  11.381  0.0420 -0.0018 -0.1080
14634TIP3    H165393   3.874   1.582  11.474  0.1386  0.9881  0.0838
14634TIP3    H265394   3.814   1.656  11.357 -0.5758 -1.0552 -0.8811
14635TIP3   OH265395   2.023   5.211   1.350 -0.2204 -0.0268 -0.7031
14635TIP3    H165396   2.048   5.176   1.435  1.2607  1.7348 -0.3354
14635TIP3    H265397   2.025   5.306   1.362 -0.8180  0.2481 -2.4803
14636TIP3   OH265398   1.776   2.777   6.767  0.0930  0.0107  0.1339
14636TIP3    H165399   1.707   2.822   6.815 -1.8941 -0.9891 -1.6565
14636TIP3    H265400   1.831   2.848   6.732 -0.6404  0.8607  0.6692
14637TIP3   OH265401   3.587   1.875  13.008  0.1371 -0.2393 -0.0125
14637TIP3    H165402   3.536   1.903  13.084  1.8577  1.1971  0.6885
14637TIP3    H265403   3.630   1.794  13.036 -3.4824 -2.9181 -1.4458
14638TIP3   OH265404   0.754   3.296   5.408 -0.0657 -0.2093  0.3874
14638TIP3    H165405   0.848   3.289   5.427 -0.1382 -1.6875  0.3229
14638TIP3    H265406   0.714   3.318   5.492  0.2905 -0.1342  0.5400
14639TIP3   OH265407   2.024   2.698  16.973  0.6868 -0.0771 -0.0604
14639TIP3    H165408   1.931   2.692  16.993  0.4781 -0.2121 -1.0210
14639TIP3    H265409   2.060   2.752  17.043 -0.5615  2.0699 -0.9835
14640TIP3   OH265410   4.962   6.670  14.914  0.5156  0.2786 -0.2448
14640TIP3    H165411   4.934   6.743  14.969  1.0995 -0.7854  1.5236
14640TIP3    H265412   4.997   6.605  14.975 -2.8515 -2.9295 -1.3609
14641TIP3   OH265413   2.464   2.952   0.311 -0.2184  0.4452  0.4509
14641TIP3    H165414   2.429   2.867   0.283 -0.0026  0.1800  0.9729
14641TIP3    H265415   2.527   2.930   0.380  2.7436  0.7044 -1.9790
14642TIP3   OH265416   2.105   1.393  16.193 -0.3874 -0.2864 -0.2089
14642TIP3    H165417   2.043   1.465  16.209  0.3078 -0.1754  2.3292
14642TIP3    H265418   2.185   1.436  16.165 -0.4798 -0.2016 -0.3456
14643TIP3   OH265419   0.983   1.791   2.131  0.0517 -0.5316  0.6127
14643TIP3    H165420   1.029   1.776   2.049 -0.1109  0.9400  0.2113
14643TIP3    H265421   0.898   1.748   2.120 -0.7279  1.2127 -0.7866
14644TIP3   OH265422   6.471   2.737   2.549  0.0676  0.2784  0.3547
14644TIP3    H165423   6.482   2.691   2.466  1.5286  0.7510  0.2662
14644TIP3    H265424   6.480   2.669   2.616  1.3767  0.2776  0.1981
14645TIP3   OH265425   5.266   0.465  14.080  0.6194  0.4428 -0.3625
14645TIP3    H165426   5.297   0.480  14.170  0.6611 -1.9914  0.1131
14645TIP3    H265427   5.172   0.448  14.091  0.6709 -0.0909 -0.7420
14646TIP3   OH265428   4.941   4.424   3.237 -0.1350 -0.2245  0.1708
14646TIP3    H165429   5.028   4.427   3.278  0.3514  0.5858 -0.8842
14646TIP3    H265430   4.890   4.488   3.287 -0.2926 -1.0882  1.1371
14647TIP3   OH265431   0.607   3.021   3.256  0.5076  0.0476 -0.1590
14647TIP3    H165432   0.637   2.972   3.333  0.1273  0.7335  0.4436
14647TIP3    H265433   0.655   2.983   3.183 -0.1211 -1.5373  0.2114
14648TIP3   OH265434   2.286   3.042  13.343  0.3104 -0.3269 -0.4954
14648TIP3    H165435   2.296   3.100  13.419 -1.2184 -0.6231 -0.0190
14648TIP3    H265436   2.304   3.098  13.267  2.1414 -0.0942  0.0715
14649TIP3   OH265437   5.712   4.893  14.666 -0.0638 -0.1948  0.2297
14649TIP3    H165438   5.737   4.848  14.746  0.5502  0.3955  0.3806
14649TIP3    H265439   5.634   4.847  14.635 -0.9910  0.3061  1.7724
14650TIP3   OH265440   1.384   4.279  14.480  0.0284 -0.1309  0.2530
14650TIP3    H165441   1.312   4.241  14.531 -0.3424 -0.5741 -0.5908
14650TIP3    H265442   1.351   4.364  14.452 -0.1250 -0.2913 -0.0494
14651TIP3   OH265443   3.526   5.901   0.900  0.2685 -0.1947 -0.1553
14651TIP3    H165444   3.545   5.980   0.850  1.6162 -1.2636 -1.4255
14651TIP3    H265445   3.436   5.879   0.877  0.3686  0.1747 -0.9336
14652TIP3   OH265446   2.299   5.282  14.329 -0.5731  0.0694 -0.6192
14652TIP3    H165447   2.366   5.287  14.398  1.1558  0.8102 -2.2501
14652TIP3    H265448   2.228   5.231  14.368  0.8687 -0.6186  1.2692
14653TIP3   OH265449   4.822   4.371   0.613  0.1347  0.3188 -0.3425
14653TIP3    H165450   4.816   4.466   0.600  0.5063  0.0386 -3.1114
14653TIP3    H265451   4.859   4.338   0.531 -1.9167 -2.4600 -0.2691
14654TIP3   OH265452   1.199   0.093   3.011  0.2759 -0.4906 -0.1824
14654TIP3    H165453   1.193   0.076   2.917  0.6835  0.0687 -0.3108
14654TIP3    H265454   1.277   0.045   3.039  0.6768  0.0775 -0.3041
14655TIP3   OH265455   0.547   1.482  16.040  0.2342  0.6640  0.4077
14655TIP3    H165456   0.616   1.479  15.974 -0.1253 -1.1433  0.0672
14655TIP3    H265457   0.590   1.454  16.121 -0.0743 -0.5231  0.1825
14656TIP3   OH265458   4.272   5.672   4.890 -0.0839 -0.2229  0.0992
14656TIP3    H165459   4.318   5.696   4.971  0.2924  0.9541 -0.4447
14656TIP3    H265460   4.179   5.674   4.913  0.0332 -3.8569  1.5635
14657TIP3   OH265461   0.740   4.820  15.325  0.3126  0.2663 -0.2788
14657TIP3    H165462   0.723   4.763  15.250  0.0291  1.6396 -1.3139
14657TIP3    H265463   0.753   4.907  15.286  2.4338  0.6201  1.0815
14658TIP3   OH265464   1.807   3.809  14.509 -0.4513 -0.3059 -0.2335
14658TIP3    H165465   1.863   3.887  14.513 -1.0377  0.1076 -0.1225
14658TIP3    H265466   1.740   3.831  14.444  0.4655 -1.4312 -1.6277
14659TIP3   OH265467   1.673   0.488  14.026  0.2683 -0.1039 -0.5261
14659TIP3    H165468   1.682   0.401  13.987  0.2922  0.6527 -2.2995
14659TIP3    H265469   1.724   0.545  13.968  2.8844  0.6814  2.2830
14660TIP3   OH265470   3.838   4.062  16.014 -0.2895 -0.2564  0.8739
14660TIP3    H165471   3.876   4.149  16.001 -0.1314 -0.5770 -1.0746
14660TIP3    H265472   3.745   4.073  15.995 -0.1562 -0.6397 -0.0088
14661TIP3   OH265473   6.791   1.164   4.422 -0.3804  0.0592  0.2458
14661TIP3    H165474   6.748   1.160   4.507 -0.4601 -0.0223  0.2014
14661TIP3    H265475   6.731   1.214   4.367 -1.7873 -2.3972 -0.6119
14662TIP3   OH265476   6.308   0.035  12.213 -0.3660  0.3868 -0.8538
14662TIP3    H165477   6.359  -0.014  12.278 -0.2618 -0.5050 -1.5803
14662TIP3    H265478   6.270  -0.033  12.157 -0.6259  1.1283 -1.5904
14663TIP3   OH265479   3.630   1.053   0.469  0.2447  0.2557  0.4589
14663TIP3    H165480   3.563   0.984   0.465  1.7499 -1.2763 -3.8427
14663TIP3    H265481   3.594   1.124   0.416  0.2204  1.4377  1.9654
14664TIP3   OH265482   6.652   4.590  14.770  0.2235  0.1054 -0.1905
14664TIP3    H165483   6.695   4.652  14.711 -1.1715 -0.0237 -1.3782
14664TIP3    H265484   6.719   4.523  14.787  0.5015 -0.1346 -2.0520
14665TIP3   OH265485   2.406   0.744  11.095  0.0287  0.2817  0.3869
14665TIP3    H165486   2.387   0.714  11.006  0.8662  0.2415  0.2144
14665TIP3    H265487   2.487   0.699  11.119  1.9409  3.1167 -0.2717
14666TIP3   OH265488   5.653   3.849   1.618  0.4661  0.8263  0.3426
14666TIP3    H165489   5.649   3.891   1.532  0.8477  0.9649  0.3883
14666TIP3    H265490   5.682   3.760   1.599  0.5968  0.8708  0.3298
14667TIP3   OH265491   4.160   1.103  14.026  0.0295  0.5885 -0.6071
14667TIP3    H165492   4.188   1.080  13.938 -0.9700 -0.6503 -0.6312
14667TIP3    H265493   4.151   1.020  14.072  0.3361  1.2007  0.6113
14668TIP3   OH265494   4.554   4.288  16.299  0.5898  0.1734  0.4325
14668TIP3    H165495   4.606   4.244  16.366 -0.9485 -1.6669  0.4854
14668TIP3    H265496   4.501   4.219  16.259 -2.7565  2.0206  1.2485
14669TIP3   OH265497   3.929   3.268   2.469  0.9205  0.2501 -0.0319
14669TIP3    H165498   3.858   3.292   2.409 -1.4743 -2.9255  1.2297
14669TIP3    H265499   3.915   3.323   2.546 -1.0372 -1.1054  0.6687
14670TIP3   OH265500   3.602   4.580   1.820 -0.4388  0.1574 -0.3638
14670TIP3    H165501   3.674   4.643   1.814 -2.4982  2.5890 -1.6843
14670TIP3    H265502   3.538   4.623   1.877 -2.0802 -0.5426 -1.5956
14671TIP3   OH265503   6.076   6.683   1.331  0.3366  0.1336  0.2481
14671TIP3    H165504   6.053   6.776   1.334  0.8331  0.3673 -1.5830
14671TIP3    H265505   6.157   6.681   1.279  1.9835 -1.0603  2.6921
14672TIP3   OH265506   3.772   3.263   0.985 -0.0403  0.4381 -0.2929
14672TIP3    H165507   3.697   3.256   0.926 -0.5641  1.1043  0.2737
14672TIP3    H265508   3.843   3.221   0.938 -0.3831  1.1527 -1.5138
14673TIP3   OH265509   0.547   6.334  11.401 -0.0456 -0.7550  0.3468
14673TIP3    H165510   0.503   6.320  11.317  0.1476  0.9734 -0.0694
14673TIP3    H265511   0.478   6.324  11.466 -0.5324 -0.5231 -0.1276
14674TIP3   OH265512   6.444   5.057  15.364  0.3520  0.1886  0.6349
14674TIP3    H165513   6.399   4.999  15.303 -0.1173  1.9500 -0.7652
14674TIP3    H265514   6.535   5.028  15.362 -0.3226 -2.4148  2.3160
14675TIP3   OH265515   6.129   5.061   0.588 -0.5620 -0.1558 -0.2734
14675TIP3    H165516   6.209   5.072   0.640  1.3538  1.4853 -3.2528
14675TIP3    H265517   6.073   5.134   0.614 -0.3389 -0.2754  0.5821
14676TIP3   OH265518   5.189   3.862   4.904  0.4105 -0.6895 -0.1919
14676TIP3    H165519   5.164   3.855   4.812 -0.7375 -3.5975  0.2517
14676TIP3    H265520   5.202   3.956   4.918 -0.6333 -0.0351 -2.9674
14677TIP3   OH265521   3.951   5.889   6.117  0.1246 -0.0972 -0.1734
14677TIP3    H165522   3.888   5.960   6.134 -0.9575 -1.2627  0.8046
14677TIP3    H265523   3.909   5.810   6.151  1.0217 -1.3491 -1.8089
14678TIP3   OH265524   1.774   5.269  16.048 -0.1076  0.1584 -0.1885
14678TIP3    H165525   1.740   5.343  16.098 -3.3859 -1.9317  0.9610
14678TIP3    H265526   1.849   5.238  16.099 -1.2988  0.1592  1.6141
14679TIP3   OH265527   4.975   4.539  10.887 -0.6295 -0.1487 -0.0064
14679TIP3    H165528   5.002   4.448  10.898  0.3363  0.0531 -0.5504
14679TIP3    H265529   4.912   4.554  10.957  0.1799 -0.8564  0.9051
14680TIP3   OH265530   3.740   3.053   5.415 -0.1288  0.4791  0.2900
14680TIP3    H165531   3.748   3.142   5.449 -0.3767  0.9180 -0.7941
14680TIP3    H265532   3.706   3.063   5.327 -0.3235 -0.7049  0.2133
14681TIP3   OH265533   2.980   4.295  12.244  0.0753  0.0384 -0.2629
14681TIP3    H165534   2.905   4.304  12.302 -0.8312 -0.2215 -1.3677
14681TIP3    H265535   2.972   4.368  12.183  0.4753 -0.2455 -0.6581
14682TIP3   OH265536   4.774   3.998   2.558 -0.5367 -0.0418 -0.3007
14682TIP3    H165537   4.768   4.093   2.552 -0.4747 -0.0421 -0.3631
14682TIP3    H265538   4.857   3.981   2.602 -1.2186 -0.0195  1.0763
14683TIP3   OH265539   1.749   3.843  15.697  0.6028  1.2628 -0.0554
14683TIP3    H165540   1.773   3.755  15.725  1.2835  0.9343 -1.5519
14683TIP3    H265541   1.694   3.830  15.620 -0.5188  2.1411  0.5654
14684TIP3   OH265542   3.409   0.872   2.573  0.2832  0.3580 -0.2357
14684TIP3    H165543   3.404   0.851   2.666  1.0813  1.4302  0.0645
14684TIP3    H265544   3.496   0.909   2.561  0.3462 -0.1330 -1.5007
14685TIP3   OH265545   3.338   4.766   3.134  0.5494 -0.3470  0.0677
14685TIP3    H165546   3.376   4.805   3.055 -0.5834 -0.4760 -0.5728
14685TIP3    H265547   3.355   4.672   3.124 -1.0462 -0.5826 -0.9146
14686TIP3   OH265548   1.939   1.077   2.174  0.0527 -0.0305  0.0927
14686TIP3    H165549   2.006   1.124   2.224  0.0963 -0.8374  0.8054
14686TIP3    H265550   1.980   0.995   2.149 -0.7300 -0.6435  0.7394
14687TIP3   OH265551   1.430   0.261  12.275  0.5926 -0.1658 -0.0711
14687TIP3    H165552   1.470   0.213  12.348  1.5593 -0.3771 -0.7056
14687TIP3    H265553   1.463   0.215  12.197  0.7238  0.9114 -0.6660
14688TIP3   OH265554   1.607   4.173   0.875 -0.2333  0.4023  0.1356
14688TIP3    H165555   1.642   4.220   0.951  1.0836 -0.5294  0.1431
14688TIP3    H265556   1.543   4.112   0.911  0.6054 -0.2474  0.5513
14689TIP3   OH265557   2.023   1.781  15.088 -0.0600 -0.9266  0.1958
14689TIP3    H165558   2.083   1.745  15.022 -0.7635 -0.0947 -0.9222
14689TIP3    H265559   2.052   1.872  15.100  0.2982 -1.1744  1.3319
14690TIP3   OH265560   1.636   5.431  14.409  0.2920  0.0870  0.1780
14690TIP3    H165561   1.728   5.458  14.405  0.0636  0.8324 -0.4125
14690TIP3    H265562   1.639   5.336  14.397  1.1046 -0.1603  2.0496
14691TIP3   OH265563   5.488   3.422  13.770  0.0981  0.8418  0.0672
14691TIP3    H165564   5.459   3.485  13.835 -0.6159  1.1535 -0.5471
14691TIP3    H265565   5.583   3.432  13.768 -0.0003  1.8545  0.0156
14692TIP3   OH265566   2.943   5.199   0.956 -0.0590  1.0737 -0.1497
14692TIP3    H165567   2.856   5.232   0.975  0.1293  2.4759 -1.4973
14692TIP3    H265568   3.002   5.271   0.980  0.7926 -0.0564  1.2669
14693TIP3   OH265569   5.327   2.512  12.809 -0.0387 -0.6713  0.1694
14693TIP3    H165570   5.417   2.507  12.777  0.0875  0.1603  0.3870
14693TIP3    H265571   5.288   2.584  12.760 -0.0022  0.2713  1.4791
14694TIP3   OH265572   1.716   5.712   6.063  0.1724  0.6319 -0.4421
14694TIP3    H165573   1.669   5.632   6.085  2.2782 -0.0056  2.2320
14694TIP3    H265574   1.667   5.781   6.109  0.7175  0.2429  0.7593
14695TIP3   OH265575   3.541   5.408  16.570 -0.3210 -0.4870  0.3882
14695TIP3    H165576   3.637   5.411  16.578 -0.0576 -1.7030 -1.7005
14695TIP3    H265577   3.513   5.362  16.649  1.0135 -1.9933  0.0296
14696TIP3   OH265578   2.894   2.821   2.140 -0.1751  0.1885  0.4362
14696TIP3    H165579   2.903   2.881   2.214  3.1205 -1.2741  1.4355
14696TIP3    H265580   2.835   2.753   2.171  0.7121 -0.1049  1.5308
14697TIP3   OH265581   6.325   3.743   0.764 -0.4655  0.0650 -0.1737
14697TIP3    H165582   6.363   3.820   0.722 -0.2711  0.7523  1.2174
14697TIP3    H265583   6.248   3.777   0.810 -0.8025 -0.7143 -0.1464
14698TIP3   OH265584   3.284   6.815   5.461 -0.0436  0.1389  0.5065
14698TIP3    H165585   3.337   6.819   5.540  2.5283  2.2671 -1.1705
14698TIP3    H265586   3.336   6.764   5.399 -0.3869  1.3968 -0.8656
14699TIP3   OH265587   5.560   4.516  16.648 -0.2331 -0.1034 -0.3023
14699TIP3    H165588   5.566   4.586  16.713  1.4973  0.5520 -1.1183
14699TIP3    H265589   5.480   4.535  16.599 -0.8985  0.0916  0.8090
14700TIP3   OH265590   4.150   1.384   1.485 -0.0245  0.3714 -0.2932
14700TIP3    H165591   4.180   1.435   1.560 -1.8279  0.7530  0.2198
14700TIP3    H265592   4.158   1.293   1.513 -2.8189  0.5228  1.3447
14701TIP3   OH265593   1.738   5.794  15.670  0.3023 -0.0511 -0.3279
14701TIP3    H165594   1.691   5.772  15.590 -0.3522  0.5471 -0.1170
14701TIP3    H265595   1.727   5.889  15.679  0.4113 -0.1043  0.4438
14702TIP3   OH265596   4.265   3.081  13.557 -0.5776 -0.2047  0.0537
14702TIP3    H165597   4.268   3.095  13.652 -0.8505 -0.5931  0.1195
14702TIP3    H265598   4.298   2.993  13.544 -0.9865 -0.3265 -0.1716
14703TIP3   OH265599   6.572   6.368   4.581 -0.4115 -0.3541 -0.0098
14703TIP3    H165600   6.578   6.447   4.634 -1.7838 -1.6016  2.1358
14703TIP3    H265601   6.663   6.347   4.560 -0.0081  1.5726 -0.3494
14704TIP3   OH265602   2.574   1.609   3.179 -0.8548 -0.3665  0.1302
14704TIP3    H165603   2.617   1.589   3.096 -0.1852  1.2571  0.0645
14704TIP3    H265604   2.487   1.569   3.171  0.8644 -4.8317  0.7354
14705TIP3   OH265605   5.093   2.573   4.940 -0.3546 -0.4568  0.5477
14705TIP3    H165606   5.094   2.483   4.973  2.1718 -0.4935  0.6153
14705TIP3    H265607   5.061   2.565   4.850  0.7751 -1.6117  0.2117
14706TIP3   OH265608   5.429   2.390  15.084  0.0379 -0.5303 -0.2300
14706TIP3    H165609   5.343   2.398  15.044 -0.3655 -2.2089  0.2536
14706TIP3    H265610   5.423   2.444  15.164 -0.5542 -0.6362 -0.1995
14707TIP3   OH265611   1.911   0.072  15.352  0.1525  0.0188 -0.4678
14707TIP3    H165612   1.838   0.134  15.359 -0.9254 -1.3508  1.3947
14707TIP3    H265613   1.936   0.055  15.443  0.7758 -1.8514 -0.9510
14708TIP3   OH265614   1.782   1.460   3.884  0.0135 -0.2361 -0.0327
14708TIP3    H165615   1.868   1.427   3.909  0.3672  1.3297  0.9529
14708TIP3    H265616   1.755   1.517   3.957 -1.8608 -0.6879 -0.3140
14709TIP3   OH265617   6.131   5.319  17.071 -0.5163  0.4958  0.6736
14709TIP3    H165618   6.137   5.269  17.152 -1.3507  0.9196  1.0090
14709TIP3    H265619   6.044   5.300  17.037 -0.1736  0.3145 -0.1362
14710TIP3   OH265620   2.170   5.799  13.702  0.1019  0.0904  0.1525
14710TIP3    H165621   2.192   5.886  13.670  1.8795  0.6117  2.4821
14710TIP3    H265622   2.222   5.740  13.647  0.1805  0.6173 -0.3530
14711TIP3   OH265623   2.817   1.645  13.205 -0.1425 -0.1722  0.1207
14711TIP3    H165624   2.786   1.633  13.294  5.7736 -0.8609  2.5261
14711TIP3    H265625   2.818   1.740  13.193 -0.7346 -0.0615  0.8359
14712TIP3   OH265626   5.788   5.444  16.666  0.6489 -0.3467 -0.0434
14712TIP3    H165627   5.757   5.534  16.650 -2.7664 -1.5936 -1.3976
14712TIP3    H265628   5.763   5.396  16.588  2.2389 -2.5597  0.7186
14713TIP3   OH265629   5.127   5.335  15.481 -0.0247 -0.5142  0.3219
14713TIP3    H165630   5.047   5.374  15.448  0.9403  0.4626 -0.9612
14713TIP3    H265631   5.131   5.361  15.573 -0.0250  1.4142 -0.1958
14714TIP3   OH265632   5.661   3.772  15.759  0.2121 -0.0175 -0.3752
14714TIP3    H165633   5.740   3.748  15.711  0.1406 -0.5307 -0.2425
14714TIP3    H265634   5.637   3.858  15.725 -1.1323 -1.2961 -2.9254
14715TIP3   OH265635   6.557   0.045   2.851 -0.1341 -0.0102  0.0024
14715TIP3    H165636   6.493   0.113   2.830  0.1945  0.9713  1.9004
14715TIP3    H265637   6.616   0.044   2.776  0.0168  2.0344  0.0222
14716TIP3   OH265638   6.803   1.154  14.950 -0.0810 -0.1871  0.2908
14716TIP3    H165639   6.820   1.098  15.026 -1.5977 -0.3577  0.5283
14716TIP3    H265640   6.850   1.111  14.878  1.0117 -0.2607  1.0181
14717TIP3   OH265641   1.675   3.045   2.016 -0.1097 -0.0236 -0.4076
14717TIP3    H165642   1.747   2.983   2.004 -0.8420 -0.9251 -0.1787
14717TIP3    H265643   1.686   3.078   2.105  1.1137  1.2798 -0.9938
14718TIP3   OH265644   0.380   1.727   1.447  0.0419 -0.1132  0.0258
14718TIP3    H165645   0.350   1.811   1.410 -0.5521 -0.2306  0.2348
14718TIP3    H265646   0.300   1.684   1.477  0.4137 -0.4789  0.5049
14719TIP3   OH265647   0.845   5.114   5.159  0.1272 -0.1617  0.0079
14719TIP3    H165648   0.931   5.152   5.141  0.5900 -0.8502  0.6575
14719TIP3    H265649   0.859   5.062   5.238 -0.5822 -1.3203 -0.6068
14720TIP3   OH265650   0.124   4.805  13.060  0.2521  0.5729 -0.6583
14720TIP3    H165651   0.127   4.898  13.083  1.1762  0.2098  0.8126
14720TIP3    H265652   0.124   4.760  13.145  2.9218 -0.8487 -1.3076
14721TIP3   OH265653   2.200   6.035  15.723 -0.0444 -0.5892 -0.0485
14721TIP3    H165654   2.149   5.959  15.750 -1.6833  0.2077 -0.7246
14721TIP3    H265655   2.215   6.022  15.629 -0.6689  0.0763 -0.2524
14722TIP3   OH265656   5.216   6.451  12.682  0.4226  0.2953 -0.3125
14722TIP3    H165657   5.270   6.398  12.742  0.5472  0.8527  0.0792
14722TIP3    H265658   5.270   6.527  12.663  0.7082 -0.2268 -1.7705
14723TIP3   OH265659   4.606   1.676   4.454 -0.3244  0.2611  0.1393
14723TIP3    H165660   4.673   1.740   4.478 -0.5758  0.4213  0.4362
14723TIP3    H265661   4.652   1.611   4.402  0.1658  0.1088  0.7500
14724TIP3   OH265662   5.840   0.495  17.143  0.1039  0.3587 -0.0803
14724TIP3    H165663   5.843   0.489  17.048  2.4037  0.7934 -0.1088
14724TIP3    H265664   5.876   0.582  17.163  0.1677  0.0706  1.1863
14725TIP3   OH265665   4.516   4.162   3.613  0.0002  0.5805  0.3820
14725TIP3    H165666   4.576   4.237   3.608  0.1114  0.5704  1.3080
14725TIP3    H265667   4.570   4.089   3.642 -0.1325  0.1604 -0.4124
14726TIP3   OH265668   4.612   0.671   2.837 -0.1734  0.0965  0.0544
14726TIP3    H165669   4.603   0.754   2.790 -0.0439  0.4975  0.7276
14726TIP3    H265670   4.523   0.638   2.844 -0.0693 -0.6578 -1.6760
14727TIP3   OH265671   6.284   2.200   6.666  0.2871  0.9476 -0.4686
14727TIP3    H165672   6.285   2.270   6.602  0.5194  1.5045  0.1336
14727TIP3    H265673   6.362   2.215   6.720  1.2647 -0.7056 -1.3158
14728TIP3   OH265674   3.531   2.234  11.220  0.4916  0.5911 -0.0756
14728TIP3    H165675   3.558   2.164  11.161  0.1451  0.9174 -0.6386
14728TIP3    H265676   3.611   2.260  11.265  0.5018 -0.5850  0.6024
14729TIP3   OH265677   0.760   2.580   1.996 -0.2900  0.6165  0.0399
14729TIP3    H165678   0.711   2.504   2.029  0.6703  0.0008  0.0841
14729TIP3    H265679   0.736   2.585   1.903  0.1434 -0.1523 -0.1226
14730TIP3   OH265680   0.053   4.346  11.313  0.2783 -0.7809 -0.1328
14730TIP3    H165681   0.142   4.366  11.284  0.0682 -0.4309 -0.5523
14730TIP3    H265682   0.064   4.276  11.377  1.1251  1.1978  1.9999
14731TIP3   OH265683   2.874   5.537   1.011  0.0000  0.1418 -0.1783
14731TIP3    H165684   2.880   5.542   1.106 -0.0839 -1.7586 -0.0365
14731TIP3    H265685   2.958   5.571   0.979  0.4181 -0.1304  0.6199
14732TIP3   OH265686   2.413   1.364   2.905  0.2431 -0.0231  0.0148
14732TIP3    H165687   2.459   1.339   2.985  0.6469  1.8201  0.4249
14732TIP3    H265688   2.360   1.288   2.882  2.2557 -1.6481  0.4456
14733TIP3   OH265689   0.206   0.926   4.700 -0.7652 -0.4917  0.1588
14733TIP3    H165690   0.157   1.004   4.726 -0.5488 -0.5884  0.9082
14733TIP3    H265691   0.286   0.931   4.752 -0.8905 -1.3664  0.4501
14734TIP3   OH265692   4.261   4.780   3.703  0.2557  0.3031  0.0366
14734TIP3    H165693   4.340   4.756   3.655  0.1863  0.9247 -0.4056
14734TIP3    H265694   4.223   4.697   3.731  1.0252 -0.0005  0.1955
14735TIP3   OH265695   1.665   4.999   2.053 -0.2054  0.0503  0.3272
14735TIP3    H165696   1.738   4.937   2.059  1.3646  1.6767 -0.6119
14735TIP3    H265697   1.590   4.947   2.025  0.4119 -1.7965  1.9040
14736TIP3   OH265698   5.216   0.322   3.595 -0.9618  0.1609  0.4597
14736TIP3    H165699   5.253   0.244   3.636 -0.0347  0.1560 -0.3623
14736TIP3    H265700   5.124   0.300   3.581 -0.6391 -0.9124 -0.0688
14737TIP3   OH265701   0.903   4.479  11.282 -0.3038  0.5840 -0.5416
14737TIP3    H165702   0.872   4.469  11.192 -0.2333 -0.3991 -0.4657
14737TIP3    H265703   0.989   4.520  11.273 -0.6640  1.3058 -0.8627
14738TIP3   OH265704   2.954   1.042  13.658 -0.0844 -0.0347 -0.2038
14738TIP3    H165705   2.977   1.133  13.639 -0.3315 -0.3989 -2.5449
14738TIP3    H265706   3.004   1.020  13.736 -0.2355  2.1814  0.5655
14739TIP3   OH265707   3.512   3.772  14.536  0.9677  0.3975  0.2928
14739TIP3    H165708   3.498   3.787  14.443  0.4155  0.2531  0.3474
14739TIP3    H265709   3.606   3.753  14.544  0.9801  0.2251 -0.2563
14740TIP3   OH265710   2.618   5.895  13.911 -0.4198 -0.2158 -0.1908
14740TIP3    H165711   2.700   5.942  13.926  0.4014 -0.9656 -2.0094
14740TIP3    H265712   2.617   5.825  13.977  1.4061 -1.4079 -1.3531
14741TIP3   OH265713   3.861   3.501   0.694  0.3230 -0.2933 -0.1041
14741TIP3    H165714   3.920   3.554   0.641 -0.2733  0.1578 -0.3255
14741TIP3    H265715   3.829   3.560   0.762 -0.9259 -0.1400 -0.7952
14742TIP3   OH265716   1.772   6.033  12.754  0.5088 -0.4210 -0.5307
14742TIP3    H165717   1.702   6.042  12.688  1.0621 -0.3282 -1.1199
14742TIP3    H265718   1.830   6.107  12.737 -0.8765  1.3677  2.0187
14743TIP3   OH265719   1.366   3.645  16.647 -0.4871  0.0650  0.3332
14743TIP3    H165720   1.427   3.694  16.702 -0.9920  0.6555  0.3735
14743TIP3    H265721   1.394   3.663  16.557 -1.7626  1.9116  0.2696
14744TIP3   OH265722   4.711   4.399  14.493 -0.1953  0.5244  0.2310
14744TIP3    H165723   4.775   4.440  14.434 -0.5884  1.0124  0.1357
14744TIP3    H265724   4.658   4.344  14.437  0.7364 -0.6455  0.4539
14745TIP3   OH265725   2.796   4.398   1.266  0.1734  0.2244 -0.8974
14745TIP3    H165726   2.735   4.366   1.332 -0.7691  1.1290 -1.3023
14745TIP3    H265727   2.785   4.339   1.192  0.5834 -0.2584 -0.5769
14746TIP3   OH265728   3.634   4.266  11.793  0.3380  0.2036  0.2108
14746TIP3    H165729   3.557   4.224  11.831 -0.1682  1.8445  1.0676
14746TIP3    H265730   3.681   4.302  11.868  0.9262  0.8790 -0.4691
14747TIP3   OH265731   2.918   2.374   4.884  0.0713 -0.0470 -0.1418
14747TIP3    H165732   2.974   2.326   4.944 -0.5697  1.3370  1.6315
14747TIP3    H265733   2.858   2.308   4.850 -0.2548 -0.6819  1.5709
14748TIP3   OH265734   4.421   4.868   0.769  0.4150 -0.7194  0.0273
14748TIP3    H165735   4.382   4.951   0.797  1.7810 -0.4730  1.3334
14748TIP3    H265736   4.347   4.812   0.749 -0.5494  0.5195  0.0244
14749TIP3   OH265737   0.875   5.373   1.128  0.8198 -0.2137 -0.5551
14749TIP3    H165738   0.921   5.362   1.045  0.6334  3.0837 -1.2538
14749TIP3    H265739   0.943   5.399   1.190  0.8346 -1.9150  0.1955
14750TIP3   OH265740   4.413   3.782  15.418  0.2181  0.1077 -0.0203
14750TIP3    H165741   4.421   3.730  15.338  1.3516 -0.6112  0.5313
14750TIP3    H265742   4.415   3.717  15.489 -1.4863  0.6683  0.5966
14751TIP3   OH265743   4.900   4.613  12.960  0.2033 -0.3121  0.2700
14751TIP3    H165744   4.993   4.627  12.943  0.2071 -0.4955  0.1354
14751TIP3    H265745   4.858   4.694  12.931  0.2058 -0.6334 -0.6615
14752TIP3   OH265746   2.827   3.884   1.050  0.0694 -0.2805 -0.2390
14752TIP3    H165747   2.818   3.842   1.135  0.6254 -2.0190 -0.9951
14752TIP3    H265748   2.910   3.932   1.056 -0.7449  1.0477  0.7531
14753TIP3   OH265749   5.991   3.359   3.599 -1.0735  0.0785 -0.3700
14753TIP3    H165750   5.989   3.449   3.567 -1.1839  0.3321  0.3358
14753TIP3    H265751   6.083   3.341   3.616 -1.2603  0.9117  1.8069
14754TIP3   OH265752   0.253   0.097  11.723  0.4734 -0.1912  0.4201
14754TIP3    H165753   0.307   0.019  11.741  1.4413  0.1054 -1.0330
14754TIP3    H265754   0.165   0.071  11.749  0.9461 -1.4230  0.9011
14755TIP3   OH265755   5.499   0.338  11.127  0.2453 -0.4144 -0.4285
14755TIP3    H165756   5.407   0.366  11.121  0.4796  0.8527  1.1312
14755TIP3    H265757   5.495   0.255  11.173 -0.1637 -0.8489 -1.2146
14756TIP3   OH265758   5.970   6.591  14.332  0.6135 -0.6624 -0.0874
14756TIP3    H165759   5.996   6.624  14.246  3.0441  0.6034  1.0417
14756TIP3    H265760   6.050   6.556  14.370 -0.7618 -2.8368  1.0261
14757TIP3   OH265761   2.106   2.454  16.903  0.6412 -0.0098  0.0071
14757TIP3    H165762   2.063   2.538  16.917  2.5817  1.1805 -0.7228
14757TIP3    H265763   2.038   2.389  16.918 -0.3507  1.5347  3.0089
14758TIP3   OH265764   3.944   3.822   4.520  0.1961  0.0839 -0.1978
14758TIP3    H165765   3.915   3.731   4.509 -2.0465  0.8474 -1.1635
14758TIP3    H265766   4.040   3.816   4.520  0.1235 -2.1914 -1.1044
14759TIP3   OH265767   4.570   5.106   3.002  0.1502  0.1450  0.6271
14759TIP3    H165768   4.566   5.185   3.056 -1.4774 -0.2837  1.2179
14759TIP3    H265769   4.497   5.116   2.941  0.0837 -0.7818  0.5428
14760TIP3   OH265770   2.429   0.555   5.500 -0.2530  0.1828 -0.4342
14760TIP3    H165771   2.401   0.613   5.571 -1.0538  1.4545 -1.7279
14760TIP3    H265772   2.481   0.487   5.543  0.6435  1.8052  1.1820
14761TIP3   OH265773   6.737   1.305  11.043 -0.3148  0.4255 -0.4248
14761TIP3    H165774   6.745   1.211  11.056  0.3472  0.6744  1.2228
14761TIP3    H265775   6.747   1.317  10.949  0.3733 -1.0719 -0.5735
14762TIP3   OH265776   2.204   5.430  14.115 -0.5834 -0.0466  0.0387
14762TIP3    H165777   2.205   5.392  14.027  0.4831  1.9530 -0.8750
14762TIP3    H265778   2.267   5.378  14.164  0.0919 -0.1304 -0.8916
14763TIP3   OH265779   5.818   4.766  17.141 -0.1015  0.2094  0.4599
14763TIP3    H165780   5.892   4.760  17.081  0.2940  0.0107  0.9568
14763TIP3    H265781   5.809   4.678  17.177  0.9100  0.7502  2.1401
14764TIP3   OH265782   4.167   5.398   2.318 -0.4656  0.0739 -0.3965
14764TIP3    H165783   4.133   5.310   2.298 -2.5217  0.7365 -0.0241
14764TIP3    H265784   4.094   5.443   2.358  0.7577  1.7918 -0.0012
14765TIP3   OH265785   5.541   0.589  12.154 -0.0084  0.4703  0.4920
14765TIP3    H165786   5.495   0.529  12.214  1.0178  0.0822  0.9081
14765TIP3    H265787   5.608   0.535  12.113  1.1610  1.3899  1.1246
14766TIP3   OH265788   1.390   5.921   4.696  0.1058  0.0952  0.5810
14766TIP3    H165789   1.407   5.843   4.751 -1.1542 -0.4389  0.2322
14766TIP3    H265790   1.406   5.995   4.755  1.5110 -0.3933  0.8694
14767TIP3   OH265791   2.404   1.184   0.154 -0.3791  0.6450  0.2547
14767TIP3    H165792   2.430   1.161   0.243  0.5115 -0.7773 -0.3268
14767TIP3    H265793   2.445   1.269   0.137 -0.1175  0.6762  1.0288
14768TIP3   OH265794   3.743   6.430  16.304  0.4935 -0.0838  0.1549
14768TIP3    H165795   3.797   6.400  16.231 -0.4643  1.3849 -1.2236
14768TIP3    H265796   3.666   6.469  16.263 -0.0335  0.8832  1.9510
14769TIP3   OH265797   6.254   6.701  14.767  0.5582  0.4811  0.0986
14769TIP3    H165798   6.180   6.712  14.826  0.4724  1.2019 -0.1226
14769TIP3    H265799   6.245   6.774  14.705  1.7494  0.8888  0.3893
14770TIP3   OH265800   5.680   5.673   5.633  0.4916 -0.1110  0.1586
14770TIP3    H165801   5.692   5.692   5.540 -0.2342 -1.9019 -0.3210
14770TIP3    H265802   5.644   5.754   5.669  2.7978  1.3883 -0.6365
14771TIP3   OH265803   1.227   2.093  13.147  0.5237  0.1717  0.1371
14771TIP3    H165804   1.252   2.124  13.234 -0.5349  1.1809  0.0954
14771TIP3    H265805   1.157   2.152  13.119  0.2105 -0.7089 -1.0193
14772TIP3   OH265806   1.078   0.143  12.577  0.1809  0.2715  0.4448
14772TIP3    H165807   1.149   0.195  12.537  0.2747  0.8687  1.3432
14772TIP3    H265808   1.002   0.201  12.575 -0.4558 -0.5559 -0.9917
14773TIP3   OH265809   2.929   0.672  14.292  1.0550  1.0509  0.8346
14773TIP3    H165810   2.912   0.597  14.350 -0.6572 -0.7287 -1.7533
14773TIP3    H265811   2.854   0.730  14.306 -0.5288 -0.4198 -1.0046
14774TIP3   OH265812   5.306   4.000  17.066  0.1132  0.1542 -0.8055
14774TIP3    H165813   5.397   4.029  17.062 -0.2150  1.0984 -2.1750
14774TIP3    H265814   5.263   4.044  16.993 -1.4978 -0.1284 -0.0901
14775TIP3   OH265815   2.227   4.679  16.213  0.0835  0.4416 -0.4785
14775TIP3    H165816   2.150   4.687  16.157  0.7450  1.5899 -1.2653
14775TIP3    H265817   2.227   4.587  16.240 -1.7145  0.4693 -0.2078
14776TIP3   OH265818   3.600   4.192  14.083 -0.4917 -0.4289  0.8226
14776TIP3    H165819   3.684   4.238  14.079  0.5753 -2.3499 -1.0350
14776TIP3    H265820   3.534   4.259  14.066  0.7508  0.9009  1.0767
14777TIP3   OH265821   1.065   0.278  16.543 -0.4420  0.2966 -0.4938
14777TIP3    H165822   0.972   0.270  16.563  0.1535 -3.6055  1.6884
14777TIP3    H265823   1.106   0.299  16.627  0.8843 -1.5283 -0.6300
14778TIP3   OH265824   6.242   5.685   4.834 -0.2101 -0.5336 -0.1620
14778TIP3    H165825   6.252   5.718   4.744 -0.8242  2.3818  0.7326
14778TIP3    H265826   6.329   5.696   4.873 -0.3020 -0.4044  0.0077
14779TIP3   OH265827   2.065   6.556  15.774 -0.8216  0.4397 -0.0276
14779TIP3    H165828   2.079   6.526  15.684  0.5690 -1.1808  0.6612
14779TIP3    H265829   2.142   6.609  15.794 -1.3291  1.1500  0.1015
14780TIP3   OH265830   0.729   6.631   4.954  0.0713 -0.5960 -0.0213
14780TIP3    H165831   0.729   6.605   4.861  1.1676 -2.3013  0.4070
14780TIP3    H265832   0.755   6.552   5.000 -2.0437 -0.2660  1.9182
14781TIP3   OH265833   3.277   0.046   0.433  0.0702 -0.1915  0.3858
14781TIP3    H165834   3.284  -0.043   0.466  0.2449 -0.2204  0.2718
14781TIP3    H265835   3.319   0.044   0.347  1.6264  0.3744  1.0942
14782TIP3   OH265836   5.554   0.251  15.130  0.3720  0.6160  0.4661
14782TIP3    H165837   5.634   0.241  15.079  0.2281  0.1523  0.3295
14782TIP3    H265838   5.554   0.343  15.156  1.4129  0.4019  1.2521
14783TIP3   OH265839   3.521   3.379   0.167  0.0992  0.6012 -0.0461
14783TIP3    H165840   3.614   3.389   0.188 -0.2965  0.3055  2.0207
14783TIP3    H265841   3.500   3.289   0.191 -0.4952  0.3172 -1.5364
14784TIP3   OH265842   0.577   0.062   4.044  0.0417  0.2470  0.2016
14784TIP3    H165843   0.525   0.005   3.987 -0.7275  0.6740  0.4663
14784TIP3    H265844   0.667   0.049   4.014 -0.3046  0.1721 -0.8629
14785TIP3   OH265845   3.452   1.791  15.787  0.3347  0.0685 -0.1042
14785TIP3    H165846   3.367   1.763  15.819 -0.0074  0.8621 -0.2821
14785TIP3    H265847   3.477   1.863  15.845  0.3414  0.6117 -0.7665
14786TIP3   OH265848   4.262   2.615  15.721  0.0960 -0.0935 -0.0174
14786TIP3    H165849   4.202   2.629  15.795 -0.5499  1.3665 -0.7713
14786TIP3    H265850   4.264   2.699  15.676  1.1352 -0.7202 -1.1971
14787TIP3   OH265851   6.311   1.055  12.819 -0.0879  0.1514  0.2569
14787TIP3    H165852   6.230   1.018  12.855 -0.3571 -0.4105 -0.8775
14787TIP3    H265853   6.326   1.005  12.739  0.5698  1.2701 -0.3320
14788TIP3   OH265854   5.404   6.743   5.172 -0.3123  0.1067 -0.0704
14788TIP3    H165855   5.489   6.773   5.202 -0.8370  0.7230  0.8361
14788TIP3    H265856   5.341   6.782   5.232 -1.3247  0.4231 -1.2746
14789TIP3   OH265857   6.575   1.263  16.048  0.3405 -0.8493  0.2812
14789TIP3    H165858   6.620   1.326  16.105  1.2130 -2.7557  1.7957
14789TIP3    H265859   6.642   1.234  15.986  0.1135 -0.7711 -0.0046
14790TIP3   OH265860   0.721   3.219   5.912  0.1896 -0.1499  0.3530
14790TIP3    H165861   0.705   3.130   5.882  2.7730 -0.4903 -0.1754
14790TIP3    H265862   0.814   3.234   5.897 -0.0720  2.4984  0.8413
14791TIP3   OH265863   4.420   3.103  11.523 -0.9542  0.6695  0.2763
14791TIP3    H165864   4.514   3.117  11.509 -0.7445  0.8797  1.7706
14791TIP3    H265865   4.378   3.171  11.471 -0.4285 -0.8978 -2.4194
14792TIP3   OH265866   1.346   4.741  15.428  0.0443 -0.6495  0.3950
14792TIP3    H165867   1.350   4.646  15.416 -0.5684 -0.7300  0.7690
14792TIP3    H265868   1.268   4.755  15.482  0.6194 -0.0128  1.0894
14793TIP3   OH265869   1.704   0.482   1.675  0.2026  0.2430 -0.0901
14793TIP3    H165870   1.740   0.508   1.760  1.2106 -0.7676 -0.1785
14793TIP3    H265871   1.628   0.428   1.696  2.2339 -2.6811  0.3564
14794TIP3   OH265872   1.481   1.864   5.740  0.0472  0.0927 -0.1073
14794TIP3    H165873   1.445   1.782   5.705  0.2856 -0.0856  0.0624
14794TIP3    H265874   1.520   1.839   5.824  0.5857  0.2822 -0.2991
14795TIP3   OH265875   0.380   6.507   5.412 -0.1045  0.2299  0.5224
14795TIP3    H165876   0.332   6.471   5.337  0.6794 -1.5174  0.8005
14795TIP3    H265877   0.314   6.520   5.479 -0.3594 -1.4475  0.6464
14796TIP3   OH265878   0.683   4.177  14.695  0.1165 -0.2629  0.6203
14796TIP3    H165879   0.748   4.107  14.685 -0.3077 -0.8009  1.5241
14796TIP3    H265880   0.599   4.135  14.676 -0.1958 -0.1450  1.6706
14797TIP3   OH265881   3.891   0.695   1.649  0.3055 -0.1926 -0.0636
14797TIP3    H165882   3.894   0.790   1.660 -0.0871  0.0181 -1.5624
14797TIP3    H265883   3.824   0.666   1.710 -0.2042  0.6087 -0.2311
14798TIP3   OH265884   3.502   2.787   3.309 -0.1519  0.5135 -0.1488
14798TIP3    H165885   3.530   2.700   3.278  0.6969  0.5480  0.4843
14798TIP3    H265886   3.451   2.823   3.237 -1.2756 -0.8709 -0.0813
14799TIP3   OH265887   3.491   2.117   3.013 -0.1699 -0.3729 -0.0652
14799TIP3    H165888   3.549   2.046   3.042 -0.0953 -0.3721 -0.2153
14799TIP3    H265889   3.420   2.116   3.078  0.9624  0.8896  1.2598
14800TIP3   OH265890   5.559   5.180   5.663  0.3372 -0.4657 -0.0783
14800TIP3    H165891   5.471   5.153   5.689  0.1929 -0.8711 -0.9372
14800TIP3    H265892   5.559   5.275   5.673  0.3752 -0.6218  1.5745
14801TIP3   OH265893   1.815   6.761  15.110 -0.1435  0.1102 -0.1281
14801TIP3    H165894   1.849   6.833  15.163 -1.9465 -0.3206  1.7694
14801TIP3    H265895   1.784   6.803  15.030  2.1814  0.8664 -0.7132
14802TIP3   OH265896   3.544   3.094  15.659 -0.1943 -0.5966  0.3041
14802TIP3    H165897   3.499   3.177  15.672  1.6315  0.1845  2.2436
14802TIP3    H265898   3.482   3.027  15.687 -0.5925  0.3540  1.7660
14803TIP3   OH265899   5.276   0.055  13.702 -0.2453  0.2877 -0.3765
14803TIP3    H165900   5.299   0.010  13.784 -0.8112 -1.3881 -1.0795
14803TIP3    H265901   5.219   0.127  13.729 -0.2733 -0.1288  0.7217
14804TIP3   OH265902   5.095   4.742  15.081 -0.1434 -0.3644  0.0645
14804TIP3    H165903   5.061   4.679  15.018 -1.5276  0.5306 -0.1422
14804TIP3    H265904   5.181   4.766  15.049  0.8314 -2.8259  0.6634
14805TIP3   OH265905   0.079   0.496   2.966 -0.5535  0.8363 -0.3723
14805TIP3    H165906   0.043   0.576   2.927  0.0716  1.9725  1.2705
14805TIP3    H265907   0.033   0.488   3.049 -0.1889 -0.2061 -0.2652
14806TIP3   OH265908   0.105   2.077  11.375  0.2136  0.1516 -0.1731
14806TIP3    H165909   0.123   2.109  11.287 -0.5774  2.9274  0.5849
14806TIP3    H265910   0.010   2.080  11.384  0.2664 -0.2779  0.7097
14807TIP3   OH265911   6.346   0.184  14.861 -0.3837 -0.2828  0.0054
14807TIP3    H165912   6.289   0.228  14.924  0.3188 -0.6502  0.9240
14807TIP3    H265913   6.287   0.143  14.799 -1.1601 -1.3984  1.4453
14808TIP3   OH265914   3.719   1.849   0.226  0.1479  0.2165  0.0692
14808TIP3    H165915   3.765   1.921   0.183 -0.8065 -0.2431 -1.8580
14808TIP3    H265916   3.666   1.891   0.294  1.0943  1.0867  0.2883
14809TIP3   OH265917   1.061   3.060   2.392 -0.1288  0.3964  0.1859
14809TIP3    H165918   1.078   3.154   2.393  0.1519  0.3538 -0.1608
14809TIP3    H265919   1.060   3.037   2.299 -0.4120  0.0942  0.2612
14810TIP3   OH265920   5.089   6.509   3.395  0.1488 -0.3825  0.0231
14810TIP3    H165921   5.070   6.577   3.329 -0.4432 -0.5001  0.0618
14810TIP3    H265922   5.022   6.442   3.380  0.3399 -0.6609  0.3999
14811TIP3   OH265923   3.623   0.691  13.226 -0.2688  0.0664  0.0270
14811TIP3    H165924   3.665   0.605  13.237 -2.3121 -1.2593 -1.6761
14811TIP3    H265925   3.627   0.707  13.132  0.5200  2.1540  0.3562
14812TIP3   OH265926   5.012   4.313  16.606 -0.2272  0.4823 -0.1942
14812TIP3    H165927   5.005   4.218  16.615 -0.6503  0.6266  1.2852
14812TIP3    H265928   5.105   4.328  16.588 -0.2017 -0.2252 -0.6985
14813TIP3   OH265929   6.749   4.561  12.147  0.1863 -0.1053 -0.0124
14813TIP3    H165930   6.688   4.603  12.208  1.3468  0.1978  0.9717
14813TIP3    H265931   6.735   4.468  12.161  0.7182 -0.0423  1.0189
14814TIP3   OH265932   0.162   2.067   4.084 -0.4334 -0.1765  0.0922
14814TIP3    H165933   0.143   1.979   4.050  3.7274 -0.9450 -0.8011
14814TIP3    H265934   0.221   2.052   4.158 -0.8701  1.8640  0.9229
14815TIP3   OH265935   6.160   2.644  11.178 -0.0886  0.3471 -0.6207
14815TIP3    H165936   6.171   2.560  11.223 -2.8524  1.0746  1.7585
14815TIP3    H265937   6.132   2.620  11.089 -0.7494 -1.2811 -0.0153
14816TIP3   OH265938   3.080   6.567  14.802 -0.6281  0.1145 -0.0849
14816TIP3    H165939   3.146   6.510  14.842  0.7524  1.4562 -0.3636
14816TIP3    H265940   3.008   6.507  14.779 -0.7197 -0.9834  2.6564
14817TIP3   OH265941   1.339   5.323  11.013  0.1829  0.5425  0.4761
14817TIP3    H165942   1.305   5.344  11.100 -0.7011  0.8143  0.0760
14817TIP3    H265943   1.397   5.248  11.027 -1.1763 -0.4491  1.0900
14818TIP3   OH265944   0.661   5.748   3.600 -0.8068  0.2791 -0.2926
14818TIP3    H165945   0.713   5.814   3.645 -0.8955 -0.8854  1.6172
14818TIP3    H265946   0.719   5.673   3.591 -1.1065  0.1539 -1.2622
14819TIP3   OH265947   1.923   4.476  17.140  0.6508  0.1786  0.1643
14819TIP3    H165948   2.016   4.463  17.123  0.0463 -3.5652 -1.2107
14819TIP3    H265949   1.918   4.491  17.235  2.5068 -3.3569  1.0010
14820TIP3   OH265950   5.971   3.974   5.307 -0.4974 -0.0811  0.5181
14820TIP3    H165951   5.998   3.883   5.295 -0.4106  0.1746 -1.6777
14820TIP3    H265952   5.893   3.969   5.363 -0.1645 -1.4417  0.8921
14821TIP3   OH265953   4.600   6.640  11.218 -0.2754 -0.3866  0.5051
14821TIP3    H165954   4.565   6.668  11.303 -1.6920 -0.7635  0.0687
14821TIP3    H265955   4.677   6.588  11.240 -0.1218  0.2299  1.5096
14822TIP3   OH265956   3.271   4.799   1.325  0.0123 -0.1324 -0.2227
14822TIP3    H165957   3.293   4.707   1.338 -1.6604 -0.6899 -1.0994
14822TIP3    H265958   3.275   4.837   1.412 -1.4084 -1.5540  0.5211
14823TIP3   OH265959   0.620   1.315  12.727 -0.1698 -0.1548 -0.1175
14823TIP3    H165960   0.530   1.289  12.747  0.6842 -1.9466  1.6459
14823TIP3    H265961   0.649   1.365  12.804  0.5545 -0.1329 -0.3907
14824TIP3   OH265962   6.368   1.137   5.713 -0.3012  0.0973 -0.0341
14824TIP3    H165963   6.355   1.042   5.706 -0.7757  0.0778  0.8818
14824TIP3    H265964   6.412   1.161   5.632 -3.8502 -0.2664 -2.2752
14825TIP3   OH265965   5.946   2.531   6.359  0.1562  0.8269 -0.1872
14825TIP3    H165966   5.859   2.558   6.388 -0.7572 -1.3882 -0.6397
14825TIP3    H265967   6.003   2.551   6.432 -0.9857  1.0617  0.6739
14826TIP3   OH265968   0.608   4.396  15.866  0.4511  0.0709  0.1409
14826TIP3    H165969   0.562   4.479  15.873 -0.2991 -0.3036 -0.2442
14826TIP3    H265970   0.637   4.392  15.775 -0.9686 -0.8226 -0.3007
14827TIP3   OH265971   6.430   5.501  13.381 -0.3236  0.2161  0.6032
14827TIP3    H165972   6.424   5.471  13.471 -0.7228 -1.6733 -0.0031
14827TIP3    H265973   6.523   5.522  13.369 -0.0874 -0.4751  1.1711
14828TIP3   OH265974   6.381   3.583   6.250  0.2435  0.0730  0.2515
14828TIP3    H165975   6.388   3.670   6.288  0.6188 -0.5901  1.7737
14828TIP3    H265976   6.405   3.523   6.321 -1.7900 -1.3813 -0.2017
14829TIP3   OH265977   3.883   4.423   6.463 -0.6059  0.1949  0.2517
14829TIP3    H165978   3.901   4.509   6.425  0.4052 -0.6791 -1.3898
14829TIP3    H265979   3.800   4.396   6.424 -0.6562  0.2019  0.3532
14830TIP3   OH265980   0.465   4.298  14.895 -0.4745 -0.0142  0.4298
14830TIP3    H165981   0.482   4.357  14.822 -0.4300  0.8890  1.1567
14830TIP3    H265982   0.515   4.219  14.874 -0.4366  0.2492 -0.4923
14831TIP3   OH265983   1.472   3.076  16.035 -0.0148 -0.4095  0.2504
14831TIP3    H165984   1.536   3.019  15.994  0.5607 -0.0123  0.5764
14831TIP3    H265985   1.514   3.105  16.116 -0.1226  0.7573 -0.0784
14832TIP3   OH265986   6.753   4.926   5.369 -0.0981 -0.1856 -0.0197
14832TIP3    H165987   6.764   4.990   5.298 -1.4224  0.3018  0.1844
14832TIP3    H265988   6.687   4.865   5.335 -1.4715  0.6046  1.1215
14833TIP3   OH265989   0.436   3.954   5.111 -0.3375 -0.2026 -0.0160
14833TIP3    H165990   0.448   3.881   5.050  0.5946  0.2695 -0.4215
14833TIP3    H265991   0.407   3.912   5.192  0.5750 -1.0793 -0.1217
14834TIP3   OH265992   2.475   4.640   5.586  0.3351  0.1964 -0.5027
14834TIP3    H165993   2.548   4.656   5.527 -1.0338  0.7070 -2.1515
14834TIP3    H265994   2.489   4.551   5.618  1.4346  0.1297 -1.1206
14835TIP3   OH265995   1.508   3.398  16.680 -0.0612 -0.5012 -0.0097
14835TIP3    H165996   1.472   3.475  16.635  0.8043  0.2971  0.6196
14835TIP3    H265997   1.534   3.339  16.609 -1.7991 -0.7495 -0.4912
14836TIP3   OH265998   2.371   0.574  12.496 -0.0956  0.2113  0.0579
14836TIP3    H165999   2.349   0.596  12.587  0.5051  2.5382 -0.3047
14836TIP3    H266000   2.460   0.540  12.501 -0.8565 -1.8757  0.5646
14837TIP3   OH266001   2.397   5.812  16.500  0.0250  0.7427  0.6419
14837TIP3    H166002   2.438   5.853  16.576  0.3471 -0.4628  1.1435
14837TIP3    H266003   2.452   5.736  16.481 -0.8187  0.2610  0.0508
14838TIP3   OH266004   0.331   0.108   4.555  0.1654 -0.0468  0.5207
14838TIP3    H166005   0.404   0.085   4.498 -0.3770  0.7364 -0.5405
14838TIP3    H266006   0.340   0.203   4.569 -1.5483  0.4310 -1.0707
14839TIP3   OH266007   0.615   0.799  16.720  0.2707 -0.4349 -0.4040
14839TIP3    H166008   0.636   0.892  16.728 -0.4069 -0.2161 -1.0623
14839TIP3    H266009   0.699   0.756  16.707  0.6300  0.0338  0.2939
14840TIP3   OH266010   2.379   4.722  10.830 -0.1417 -0.2538  0.4143
14840TIP3    H166011   2.368   4.710  10.924 -1.5322 -0.8161  0.2011
14840TIP3    H266012   2.296   4.760  10.800  0.1054 -0.4902 -0.6436
14841TIP3   OH266013   0.071   2.271  13.311  0.1966 -0.0709 -0.0531
14841TIP3    H166014  -0.018   2.289  13.340 -0.1057 -0.9088 -0.4208
14841TIP3    H266015   0.060   2.233  13.224  0.8990 -0.3819 -0.0113
14842TIP3   OH266016   0.628   0.701  13.027  0.2825  0.1648 -0.8224
14842TIP3    H166017   0.580   0.777  12.994 -1.2545 -0.5532 -0.3113
14842TIP3    H266018   0.662   0.658  12.949 -0.6911  0.1880 -1.2687
14843TIP3   OH266019   5.090   5.760  14.963  0.3356  0.8446 -0.7598
14843TIP3    H166020   5.084   5.669  14.989  0.5822  1.6617  2.6170
14843TIP3    H266021   5.025   5.770  14.894 -1.4839 -1.3307  0.5150
14844TIP3   OH266022   6.535   6.066   2.247  0.3429  0.3906  0.1817
14844TIP3    H166023   6.564   6.121   2.319  1.0120  0.5975 -0.2296
14844TIP3    H266024   6.441   6.056   2.260 -0.2748  3.5619 -0.9897
14845TIP3   OH266025   1.098   1.390   0.655 -0.6172 -0.0201  0.7434
14845TIP3    H166026   1.080   1.306   0.614 -1.3179  0.1660  0.6667
14845TIP3    H266027   1.013   1.433   0.663 -0.2833  0.6472  0.8584
14846TIP3   OH266028   0.376   5.427   2.382  0.1643  0.7315  0.0963
14846TIP3    H166029   0.347   5.510   2.420  0.6901 -0.0333  2.3254
14846TIP3    H266030   0.471   5.427   2.392  0.4478  0.8198 -2.0650
14847TIP3   OH266031   5.586   6.740  16.170 -0.3117 -0.2719 -0.0507
14847TIP3    H166032   5.531   6.687  16.226  2.5556 -1.8789  1.4575
14847TIP3    H266033   5.558   6.719  16.081 -2.3802 -0.6033  0.6323
14848TIP3   OH266034   5.824   0.724   2.336  0.0264 -0.2279 -0.6391
14848TIP3    H166035   5.870   0.740   2.419  0.7987 -0.9200 -0.9254
14848TIP3    H266036   5.737   0.694   2.362 -0.1268  0.6488 -0.0900
14849TIP3   OH266037   4.552   5.147  12.615  0.0398 -0.2062  0.5663
14849TIP3    H166038   4.562   5.052  12.606  0.0334 -0.3711  1.9962
14849TIP3    H266039   4.596   5.184  12.539 -3.0251 -1.4231 -2.0485
14850TIP3   OH266040   1.695   4.014   0.452  0.0528  1.2562 -0.6979
14850TIP3    H166041   1.712   4.089   0.509  1.1677  0.6199 -0.1476
14850TIP3    H266042   1.613   3.977   0.485  1.1757  0.3000  1.2225
14851TIP3   OH266043   4.296   6.364   0.909  0.0583 -0.1829 -0.0731
14851TIP3    H166044   4.340   6.398   0.988  0.9435  0.3200 -0.7586
14851TIP3    H266045   4.300   6.437   0.847 -0.9540 -0.4568 -0.4665
14852TIP3   OH266046   2.563   1.011   5.577 -0.0997  0.6458  0.0204
14852TIP3    H166047   2.567   1.049   5.489  2.3643 -0.0206 -0.2351
14852TIP3    H266048   2.599   1.078   5.634 -0.4128  0.5653  0.3128
14853TIP3   OH266049   2.226   4.257   0.335  0.1534  0.2261 -0.6335
14853TIP3    H166050   2.260   4.185   0.283 -0.4594 -1.0030  0.6070
14853TIP3    H266051   2.256   4.239   0.424  1.8380  2.6829 -0.6040
14854TIP3   OH266052   3.760   2.968   0.299  0.2662 -0.1073 -1.0112
14854TIP3    H166053   3.798   2.950   0.213 -0.0145 -0.1382 -1.1327
14854TIP3    H266054   3.790   3.057   0.320  0.2720 -0.0684 -1.1792
14855TIP3   OH266055   4.809   0.521  11.146  0.5160  0.3302  0.1149
14855TIP3    H166056   4.868   0.492  11.076  1.1897  0.2405  0.7065
14855TIP3    H266057   4.731   0.553  11.100  0.6699 -0.3481 -0.6464
14856TIP3   OH266058   1.970   4.499   5.355  0.0450  0.4025  0.5204
14856TIP3    H166059   2.050   4.529   5.312 -0.1361  2.7727  1.6797
14856TIP3    H266060   1.989   4.504   5.448 -1.2099  0.2839  0.8000
14857TIP3   OH266061   0.860   6.117  15.288 -0.3788  0.0170  0.2060
14857TIP3    H166062   0.955   6.111  15.298 -0.4393 -0.3558  0.5963
14857TIP3    H266063   0.847   6.139  15.196  0.0222 -2.4382 -0.5241
14858TIP3   OH266064   2.668   6.308  13.739  0.1216 -0.3868 -0.0353
14858TIP3    H166065   2.723   6.378  13.704  0.0894  0.9734  2.3916
14858TIP3    H266066   2.585   6.318  13.694  1.0786 -0.9882 -2.0649
14859TIP3   OH266067   6.617   5.602  15.958 -0.2221  0.3437 -0.1315
14859TIP3    H166068   6.670   5.586  15.879 -0.2737 -0.6583  0.0187
14859TIP3    H266069   6.658   5.548  16.025 -0.7825  0.4115  0.2684
14860TIP3   OH266070   4.230   2.875  11.521 -0.5980 -0.1997 -0.3018
14860TIP3    H166071   4.273   2.807  11.572 -1.8544  1.1837  2.8333
14860TIP3    H266072   4.272   2.957  11.550 -2.5216  0.7917 -0.1531
14861TIP3   OH266073   0.382   4.952   0.709 -0.2627 -0.5821  0.0105
14861TIP3    H166074   0.340   4.957   0.795  0.1455 -2.2041  0.3510
14861TIP3    H266075   0.476   4.953   0.728 -0.1621  0.3714 -0.5293
14862TIP3   OH266076   5.861   1.954  16.610 -0.7848  0.2373 -0.2580
14862TIP3    H166077   5.876   1.935  16.703 -0.2394 -1.5245 -0.6581
14862TIP3    H266078   5.890   2.044  16.599  0.5073  0.0115  0.9993
14863TIP3   OH266079   5.650   1.035   5.643 -0.1060  0.0329  0.3230
14863TIP3    H166080   5.686   1.115   5.604  1.0131 -0.3132  0.5887
14863TIP3    H266081   5.556   1.039   5.626 -0.0829  1.4599  0.4301
14864TIP3   OH266082   4.403   3.116   3.684 -0.0836  0.4649  0.1502
14864TIP3    H166083   4.311   3.131   3.707 -0.8088  1.4209 -2.9597
14864TIP3    H266084   4.400   3.089   3.592  2.6659 -1.2624  0.4645
14865TIP3   OH266085   1.429   5.093  12.105  0.0487 -0.0910 -0.3606
14865TIP3    H166086   1.462   5.154  12.171  1.7741 -0.8192 -0.5023
14865TIP3    H266087   1.337   5.081  12.127  0.3357  0.4882  1.2856
14866TIP3   OH266088   2.528   1.569   0.681  0.5954  0.2008 -0.5029
14866TIP3    H166089   2.589   1.640   0.700  0.0395  0.8764 -1.1709
14866TIP3    H266090   2.528   1.563   0.586 -1.7435  1.4910 -0.6698
14867TIP3   OH266091   0.832   4.585   6.683  0.4830  0.0533 -0.3793
14867TIP3    H166092   0.750   4.631   6.701  0.9961  1.8135 -2.1115
14867TIP3    H266093   0.892   4.614   6.752  0.5151  1.3040 -0.9042
14868TIP3   OH266094   0.005   5.080  13.157  0.3001 -0.2407  0.8891
14868TIP3    H166095  -0.023   5.079  13.249 -1.5967 -0.2298  0.3506
14868TIP3    H266096  -0.070   5.046  13.109  0.6497  1.2902 -0.8280
14869TIP3   OH266097   2.361   1.230  15.716  0.5681 -0.2569  0.4073
14869TIP3    H166098   2.290   1.166  15.717  2.6279 -2.8248 -1.8196
14869TIP3    H266099   2.324   1.306  15.671 -1.0902 -1.0613  0.3151
14870TIP3   OH266100   6.680   0.272   0.187  0.0839 -0.3307 -0.1957
14870TIP3    H166101   6.683   0.181   0.217 -0.5496 -0.2932 -0.0009
14870TIP3    H266102   6.630   0.269   0.106 -0.6443 -0.0562  0.2319
14871TIP3   OH266103   3.943   1.457  14.836 -0.1656 -0.3138 -0.1670
14871TIP3    H166104   3.853   1.428  14.850 -0.2790 -1.9220 -3.4309
14871TIP3    H266105   3.994   1.376  14.836  0.8820  0.3254 -0.8807
14872TIP3   OH266106   2.966   4.082   1.992  0.0514  0.5982 -0.5462
14872TIP3    H166107   2.931   4.056   2.076  0.3393  2.4496  0.1981
14872TIP3    H266108   3.061   4.074   2.001  0.0335 -1.5880 -1.5787
14873TIP3   OH266109   6.630   4.410   4.277 -0.5824  0.2301 -0.6125
14873TIP3    H166110   6.644   4.405   4.182 -2.6908 -1.2524 -0.9118
14873TIP3    H266111   6.596   4.323   4.300  2.7237 -0.5393  2.0734
14874TIP3   OH266112   4.446   3.904  12.395 -0.0093 -0.3487 -0.2096
14874TIP3    H166113   4.440   3.957  12.315  1.0315 -1.7113 -1.2446
14874TIP3    H266114   4.495   3.959  12.456  1.0457 -0.0712 -1.2548
14875TIP3   OH266115   2.757   6.071  12.351  0.6873  0.0833  0.6967
14875TIP3    H166116   2.852   6.082  12.358  0.7689 -0.6208  0.7623
14875TIP3    H266117   2.730   6.041  12.438  0.7010 -1.7050  0.1157
14876TIP3   OH266118   2.326   5.574  15.523  0.0462  0.4782 -0.5989
14876TIP3    H166119   2.342   5.488  15.485  0.5308  0.8181 -1.1734
14876TIP3    H266120   2.326   5.558  15.618  1.6352  0.0909 -0.6427
14877TIP3   OH266121   6.472   3.429   2.114 -0.1099  0.0052  0.1975
14877TIP3    H166122   6.544   3.402   2.058 -1.3924  0.2647 -1.6806
14877TIP3    H266123   6.414   3.353   2.117 -1.4004  0.8631 -1.1963
14878TIP3   OH266124   6.637   5.877   3.498  0.2208 -0.0397  0.4270
14878TIP3    H166125   6.708   5.815   3.479  1.1814  1.1680 -0.0766
14878TIP3    H266126   6.558   5.833   3.470  0.7116 -1.5795  1.3337
14879TIP3   OH266127   3.490   2.082   0.173 -0.2823 -0.5642  0.2847
14879TIP3    H166128   3.528   2.063   0.258  0.1327 -1.7005 -0.1336
14879TIP3    H266129   3.564   2.107   0.118 -0.7878  2.2726  0.7636
14880TIP3   OH266130   3.249   4.953  16.267  0.2242 -0.1911 -0.1684
14880TIP3    H166131   3.281   5.023  16.210  2.0178 -1.6978 -1.1243
14880TIP3    H266132   3.272   4.983  16.355 -0.1249  0.9467 -0.4435
14881TIP3   OH266133   4.096   4.184   3.699 -0.8394  0.2394 -0.8286
14881TIP3    H166134   4.062   4.210   3.785  0.1172  0.5349 -0.5261
14881TIP3    H266135   4.076   4.091   3.693  0.7565 -0.2521  0.5713
14882TIP3   OH266136   6.301   3.261  11.184  0.5083  0.1622  0.0176
14882TIP3    H166137   6.259   3.339  11.149 -3.5685 -0.9642  1.7405
14882TIP3    H266138   6.347   3.291  11.262  1.0640  1.1633 -0.6784
14883TIP3   OH266139   3.230   1.049   1.268 -0.6615  0.6459 -0.2256
14883TIP3    H166140   3.171   1.111   1.310 -0.1857  0.5094  0.6545
14883TIP3    H266141   3.258   0.991   1.338  2.3584  2.0954 -0.0855
14884TIP3   OH266142   0.156   2.204  13.675 -0.2640 -0.1439  0.2716
14884TIP3    H166143   0.242   2.242  13.657  0.3508 -0.9591  1.3859
14884TIP3    H266144   0.097   2.279  13.675  0.0925  0.2405 -2.3388
14885TIP3   OH266145   2.691   6.809   5.040  0.1873 -0.1218 -0.0850
14885TIP3    H166146   2.737   6.778   5.118 -0.7104 -0.1495  0.4428
14885TIP3    H266147   2.709   6.743   4.974  1.3950  0.1692 -0.0691
14886TIP3   OH266148   4.693   4.027   3.288 -0.2460 -0.6809 -0.3027
14886TIP3    H166149   4.730   4.115   3.278 -1.7021  0.0733  0.5835
14886TIP3    H266150   4.769   3.970   3.300  0.6781  0.6395  0.3508
14887TIP3   OH266151   6.544   0.355   5.544 -0.7943 -0.4090  0.1373
14887TIP3    H166152   6.507   0.342   5.456 -2.4307  2.0936  0.3588
14887TIP3    H266153   6.636   0.329   5.535 -0.6492  0.7170 -2.5932
14888TIP3   OH266154   6.149   2.111  14.473 -0.0105 -0.0283 -0.4669
14888TIP3    H166155   6.061   2.123  14.438 -0.1313  1.6966  0.3713
14888TIP3    H266156   6.151   2.020  14.503 -1.4732 -0.1029 -0.5713
14889TIP3   OH266157   6.669   6.258   4.133  0.0396  0.3233 -0.4380
14889TIP3    H166158   6.725   6.216   4.068  0.7094 -0.3184  0.5410
14889TIP3    H266159   6.659   6.348   4.101  0.6998  0.1347 -1.2065
14890TIP3   OH266160   6.707   1.119  14.342  0.3547 -0.3447 -0.5391
14890TIP3    H166161   6.679   1.108  14.252 -2.1904 -1.0525  0.2587
14890TIP3    H266162   6.770   1.191  14.339 -0.2254  0.1429 -2.7421
14891TIP3   OH266163   3.875   4.858  17.133  0.6165 -0.4719  0.8834
14891TIP3    H166164   3.954   4.809  17.157  1.0925  0.0506  0.4339
14891TIP3    H266165   3.811   4.834  17.199  1.1774 -0.8484  1.3061
14892TIP3   OH266166   5.080   3.061   4.342 -0.2269  0.0729 -0.0147
14892TIP3    H166167   5.071   2.972   4.308 -3.3320 -0.1135  1.0033
14892TIP3    H266168   5.019   3.113   4.290  0.7548  1.3955  0.1200
14893TIP3   OH266169   6.623   1.485  12.148  0.1215 -0.2299  0.1912
14893TIP3    H166170   6.702   1.488  12.093  0.1616 -0.9051  0.2049
14893TIP3    H266171   6.562   1.430  12.100 -0.9769  1.6284 -0.6105
14894TIP3   OH266172   5.381   2.875  13.067  0.7842  0.5398  0.1232
14894TIP3    H166173   5.298   2.839  13.034  1.6161  0.4695 -2.0433
14894TIP3    H266174   5.433   2.797  13.089  0.3223  0.5844  1.4834
14895TIP3   OH266175   1.502   5.738   2.147 -0.5376  0.2698 -0.7220
14895TIP3    H166176   1.433   5.727   2.213  0.5178  1.8428  0.7076
14895TIP3    H266177   1.454   5.745   2.064 -1.9910 -0.3015  0.0364
14896TIP3   OH266178   0.462   1.480  17.154 -0.2563 -0.2700  0.2832
14896TIP3    H166179   0.503   1.538  17.089  0.6429  0.0476  1.1027
14896TIP3    H266180   0.476   1.524  17.237 -1.8810 -0.4113  0.6532
14897TIP3   OH266181   0.023   5.926   4.271  0.3849 -0.5224  0.3434
14897TIP3    H166182  -0.008   5.846   4.228 -0.4676 -1.3363  2.3732
14897TIP3    H266183  -0.057   5.977   4.286  0.9542  0.9202 -1.2326
14898TIP3   OH266184   2.239   0.559   0.533  0.0116  0.5170  0.6014
14898TIP3    H166185   2.214   0.498   0.464 -0.0592  0.4805  0.6596
14898TIP3    H266186   2.216   0.645   0.499 -2.4697  0.3446  1.6077
14899TIP3   OH266187   2.813   3.581   5.026 -0.1702 -0.2315 -0.1626
14899TIP3    H166188   2.805   3.485   5.029 -0.9857 -0.3219 -2.6698
14899TIP3    H266189   2.906   3.597   5.008 -0.3640 -0.7087 -1.7969
14900TIP3   OH266190   0.966   6.011  12.713 -0.7524 -0.1795 -0.3603
14900TIP3    H166191   0.928   6.076  12.771  0.1251 -0.5552  0.6676
14900TIP3    H266192   0.945   5.927  12.754 -0.4600 -0.4744 -0.8026
14901TIP3   OH266193   5.605   1.847   1.958 -0.1244  0.6058 -0.0780
14901TIP3    H166194   5.514   1.837   1.930  0.2154 -1.2438 -0.6946
14901TIP3    H266195   5.609   1.933   1.998 -2.0512  0.8871 -0.4047
14902TIP3   OH266196   1.732   4.052   3.539 -0.1804  0.5518 -0.5974
14902TIP3    H166197   1.797   4.104   3.585 -0.7779  0.8510 -0.0746
14902TIP3    H266198   1.648   4.089   3.566 -0.5904 -0.2237 -0.7665
14903TIP3   OH266199   0.581   0.523   0.547  0.5548 -0.1735 -0.8357
14903TIP3    H166200   0.549   0.560   0.629  0.0499 -2.0335 -0.1429
14903TIP3    H266201   0.506   0.523   0.489  0.1011 -1.5150 -0.2965
14904TIP3   OH266202   0.636   4.236  13.430 -0.6822 -0.1452 -0.6267
14904TIP3    H166203   0.723   4.209  13.462 -0.4960  1.0093 -0.1006
14904TIP3    H266204   0.580   4.160  13.446 -0.4576  0.1227  1.9244
14905TIP3   OH266205   3.063   6.604   5.272  0.3587 -0.0085  0.0200
14905TIP3    H166206   2.977   6.570   5.248  1.1410 -0.7038 -2.0501
14905TIP3    H266207   3.123   6.531   5.254  1.2614 -0.1507  3.0306
14906TIP3   OH266208   4.364   4.441   5.595 -0.1948  0.5112  0.7569
14906TIP3    H166209   4.428   4.371   5.586 -0.2937  0.4598  0.4335
14906TIP3    H266210   4.403   4.501   5.658 -0.2259  0.0345  1.2428
14907TIP3   OH266211   2.319   3.933  15.138 -0.0492 -0.6929 -0.4077
14907TIP3    H166212   2.287   3.843  15.140  2.5242 -1.6902 -0.8521
14907TIP3    H266213   2.394   3.931  15.079  2.3426  0.8899  2.2974
14908TIP3   OH266214   1.836   0.522   0.799  0.7681 -0.2889 -0.1847
14908TIP3    H166215   1.814   0.466   0.724  3.0071 -0.6937 -0.6094
14908TIP3    H266216   1.923   0.494   0.825 -0.0668 -0.3485  2.8241
14909TIP3   OH266217   1.694   3.745  14.757 -0.2516 -0.0982  0.5241
14909TIP3    H166218   1.753   3.726  14.683  0.0155  0.2724  0.6404
14909TIP3    H266219   1.674   3.838  14.749 -1.1505 -0.3014  0.2525
14910TIP3   OH266220   5.375   5.127  11.819  0.3180 -0.0579  0.1553
14910TIP3    H166221   5.352   5.044  11.777  1.2185 -0.8813  1.2418
14910TIP3    H266222   5.318   5.132  11.895  0.5424  0.1310  0.3106
14911TIP3   OH266223   0.137   3.247  12.366  0.2055  0.0356 -0.2005
14911TIP3    H166224   0.199   3.174  12.366 -1.3026 -1.3092 -0.7324
14911TIP3    H266225   0.051   3.205  12.362 -0.7281  1.8530 -0.1706
14912TIP3   OH266226   4.800   3.176   4.232 -0.2147 -0.8470 -0.0189
14912TIP3    H166227   4.730   3.113   4.249 -2.0891  1.1809  0.2521
14912TIP3    H266228   4.811   3.174   4.137 -1.8263 -0.0572 -0.2526
14913TIP3   OH266229   1.591   3.988   6.159  0.5793  0.1347  0.3099
14913TIP3    H166230   1.667   3.949   6.203  0.9989 -0.3174 -0.7928
14913TIP3    H266231   1.527   3.917   6.153  0.0083  0.5409  1.3277
14914TIP3   OH266232   6.361   0.648  12.816  0.3818  0.1230  0.3998
14914TIP3    H166233   6.317   0.661  12.731 -1.4650 -1.6143  0.9982
14914TIP3    H266234   6.452   0.629  12.794 -0.4529 -2.2330 -1.3828
14915TIP3   OH266235   1.678   5.728  13.430 -0.0159  0.7737  0.5348
14915TIP3    H166236   1.745   5.757  13.492 -0.0088 -1.4634  1.6394
14915TIP3    H266237   1.719   5.741  13.344  2.8485 -2.4521  1.1815
14916TIP3   OH266238   4.211   5.790   3.361 -0.0997  0.6057 -0.4869
14916TIP3    H166239   4.164   5.788   3.277 -0.6293  0.8751 -0.2024
14916TIP3    H266240   4.171   5.863   3.408 -2.4814 -1.8497  1.5636
14917TIP3   OH266241   0.842   2.226  11.984  0.0825  0.5873 -0.0009
14917TIP3    H166242   0.865   2.317  11.964 -0.7662  1.5630  2.9211
14917TIP3    H266243   0.751   2.230  12.011 -0.1530 -1.2803 -0.3663
14918TIP3   OH266244   3.139   1.792   2.007  0.1707  0.3961  0.3266
14918TIP3    H166245   3.169   1.876   1.972 -1.0446  0.0786 -1.5944
14918TIP3    H266246   3.044   1.797   2.004  0.0777 -0.8198  0.7555
14919TIP3   OH266247   0.692   4.974  16.612  0.3583  0.6032  0.0621
14919TIP3    H166248   0.773   4.991  16.659 -0.4401  1.2277  1.2502
14919TIP3    H266249   0.659   4.892  16.649 -0.5231  1.3498  0.9770
14920TIP3   OH266250   1.976   2.271   4.696 -0.3011  0.1951 -0.2282
14920TIP3    H166251   2.022   2.331   4.753 -1.1059  0.3471  0.2783
14920TIP3    H266252   1.973   2.316   4.611  1.0471 -0.1083 -0.4595
14921TIP3   OH266253   1.814   2.695   5.569  0.2332 -0.1796 -0.1210
14921TIP3    H166254   1.741   2.685   5.508  1.0912 -1.9010 -0.9435
14921TIP3    H266255   1.854   2.608   5.573 -0.2135 -0.3759  3.5002
14922TIP3   OH266256   4.451   1.990   4.540  0.7974  0.1879 -0.0674
14922TIP3    H166257   4.392   1.917   4.521  0.6284  0.3710 -0.2438
14922TIP3    H266258   4.514   1.954   4.602  1.2213 -0.3434 -0.7960
14923TIP3   OH266259   0.460   2.518  13.438 -1.0159  0.0182 -0.8822
14923TIP3    H166260   0.372   2.544  13.410 -1.2564  0.6464  0.3802
14923TIP3    H266261   0.465   2.545  13.530 -0.0589 -1.4133 -0.4771
14924TIP3   OH266262   6.714   4.898  15.775 -0.4306  0.0074  0.0642
14924TIP3    H166263   6.644   4.954  15.741 -0.1150 -0.7530 -2.0177
14924TIP3    H266264   6.703   4.815  15.729  2.5197  0.2284 -1.3225
14925TIP3   OH266265   1.000   4.818  16.557  0.3447  0.5386 -0.1334
14925TIP3    H166266   0.909   4.788  16.560  0.5906 -0.1526  0.8509
14925TIP3    H266267   1.009   4.860  16.471 -1.3980  2.2381  0.4417
14926TIP3   OH266268   2.487   0.093   2.759  0.5372  0.1971 -0.3507
14926TIP3    H166269   2.488   0.163   2.824  0.2813  0.1934 -0.3429
14926TIP3    H266270   2.537   0.128   2.685  1.5556 -0.1165  0.1762
14927TIP3   OH266271   5.049   2.791  16.532 -0.4277  0.0341 -0.0635
14927TIP3    H166272   5.106   2.767  16.459 -1.1458 -1.4214 -0.1684
14927TIP3    H266273   5.109   2.825  16.599  0.3725  0.0991 -0.8033
14928TIP3   OH266274   5.726   3.376   4.357 -0.1786  0.8418 -0.4658
14928TIP3    H166275   5.752   3.298   4.308 -0.1930  1.0252 -0.7671
14928TIP3    H266276   5.762   3.363   4.445 -0.9891  0.0539 -0.2361
14929TIP3   OH266277   5.989   3.006  16.316 -0.3188  0.2606 -0.6388
14929TIP3    H166278   5.907   2.971  16.351 -0.0611  0.7972  0.5765
14929TIP3    H266279   6.042   2.929  16.296 -0.5492 -0.0779  0.0270
14930TIP3   OH266280   2.034   1.566   3.537 -0.5650  0.1823  0.0044
14930TIP3    H166281   1.975   1.641   3.540  0.2624  0.8259  0.3609
14930TIP3    H266282   1.980   1.493   3.566 -1.7724  0.3467 -1.6319
14931TIP3   OH266283   6.600   2.635  14.546  0.5498  0.6039  0.2300
14931TIP3    H166284   6.662   2.563  14.534 -0.1329 -0.3247  1.9241
14931TIP3    H266285   6.653   2.708  14.578  0.6874 -0.6224  3.1053
14932TIP3   OH266286   3.346   2.168  14.377  0.0118  0.6347 -0.1073
14932TIP3    H166287   3.356   2.081  14.416 -0.2740  0.5263 -0.2743
14932TIP3    H266288   3.414   2.220  14.419 -1.0060  0.8304  1.4064
14933TIP3   OH266289   2.127   0.533  16.555  0.1340 -0.3787  0.0171
14933TIP3    H166290   2.114   0.468  16.485  1.1356 -0.3524 -0.2137
14933TIP3    H266291   2.117   0.483  16.636  0.5587 -0.7572 -0.1596
14934TIP3   OH266292   3.270   2.069  14.866 -0.7197 -1.0984  0.2696
14934TIP3    H166293   3.332   2.009  14.908 -0.1636 -1.5331 -1.1012
14934TIP3    H266294   3.321   2.114  14.799 -1.2144  0.7046  1.0352
14935TIP3   OH266295   4.300   5.625   1.686 -0.2676 -0.3897  0.3649
14935TIP3    H166296   4.365   5.565   1.650 -0.3543 -0.9454  1.1266
14935TIP3    H266297   4.311   5.705   1.634  2.3880  0.2489  1.7295
14936TIP3   OH266298   2.822   5.770  14.342  0.3143  0.5415 -0.1594
14936TIP3    H166299   2.885   5.834  14.376 -1.4199  1.8739  0.7114
14936TIP3    H266300   2.776   5.817  14.273 -0.9927  0.2685  0.4983
14937TIP3   OH266301   4.042   1.922   2.401  0.4111 -0.3334  0.5173
14937TIP3    H166302   4.123   1.926   2.351 -0.2535  0.0721 -0.5619
14937TIP3    H266303   3.981   1.977   2.352 -0.7521 -1.2607  0.8728
14938TIP3   OH266304   5.510   4.366   4.582  0.2737 -0.9589 -0.5351
14938TIP3    H166305   5.476   4.455   4.576  2.1978  0.0536  1.8302
14938TIP3    H266306   5.433   4.312   4.603 -0.4629  0.7058  1.3468
14939TIP3   OH266307   2.796   1.581  15.502 -0.2939 -0.4470  0.2487
14939TIP3    H166308   2.743   1.501  15.506 -0.3555 -0.3908  0.6392
14939TIP3    H266309   2.883   1.554  15.530 -0.1088 -0.5440 -0.4205
14940TIP3   OH266310   4.828   3.554   6.377  0.1571 -0.3473 -0.1270
14940TIP3    H166311   4.849   3.497   6.451 -3.4105 -0.0792  1.2977
14940TIP3    H266312   4.873   3.636   6.396 -0.8569 -0.2061  1.9812
14941TIP3   OH266313   5.410   4.161  15.134 -0.1733 -0.0276 -0.2040
14941TIP3    H166314   5.441   4.225  15.069 -0.2547  0.5346  0.3033
14941TIP3    H266315   5.487   4.141  15.187  0.0107 -0.8527 -0.7598
14942TIP3   OH266316   0.945   3.649  12.992 -0.0788 -0.3279 -0.1693
14942TIP3    H166317   0.992   3.611  12.918  1.9627  1.2273  0.2459
14942TIP3    H266318   0.984   3.735  13.004 -1.9448  0.3898  1.2914
14943TIP3   OH266319   1.043   6.076  13.548  0.1675  0.3259 -0.5057
14943TIP3    H166320   0.980   6.094  13.479 -0.5422  1.4875  0.4265
14943TIP3    H266321   1.108   6.146  13.541 -0.9872  1.6557  1.2273
14944TIP3   OH266322   2.331   1.076  14.778 -0.3124 -0.7564 -0.1714
14944TIP3    H166323   2.374   1.035  14.702 -0.6808  1.6328 -1.7779
14944TIP3    H266324   2.403   1.096  14.837  0.3539 -0.3017 -1.0975
14945TIP3   OH266325   4.822   3.556  11.867 -0.0005 -0.2043 -0.1986
14945TIP3    H166326   4.792   3.573  11.777 -3.8894  1.1151  1.1415
14945TIP3    H266327   4.902   3.607  11.876 -0.4502  1.0235 -2.4179
14946TIP3   OH266328   2.397   0.591   1.825 -0.3017  0.5707 -0.0302
14946TIP3    H166329   2.463   0.588   1.894  1.9459 -0.8271 -2.0954
14946TIP3    H266330   2.409   0.676   1.784  0.0326  0.4238 -0.2366
14947TIP3   OH266331   4.916   2.721   3.589 -0.5374 -0.4610 -0.6177
14947TIP3    H166332   4.839   2.700   3.642  0.4082 -1.3220  0.4570
14947TIP3    H266333   4.914   2.817   3.581 -0.4894 -0.2499  1.3648
14948TIP3   OH266334   2.271   5.637   1.027 -0.3770  0.0061 -0.9098
14948TIP3    H166335   2.322   5.634   1.108 -0.3375  0.8369 -0.8910
14948TIP3    H266336   2.189   5.680   1.052 -1.1271 -1.3676 -0.9300
14949TIP3   OH266337   1.327   1.886  11.806  0.1562 -0.0450  0.0126
14949TIP3    H166338   1.378   1.967  11.813  0.3053 -0.2579  2.0558
14949TIP3    H266339   1.351   1.836  11.884 -1.5135 -1.1444 -0.1273
14950TIP3   OH266340   0.825   4.617   0.824 -0.3662  0.2991  0.6529
14950TIP3    H166341   0.897   4.637   0.765 -1.3635 -1.3853 -1.2759
14950TIP3    H266342   0.866   4.576   0.900  0.7422 -0.3848 -0.2843
14951TIP3   OH266343   4.939   0.512  17.046 -0.2289  0.4465 -0.5107
14951TIP3    H166344   4.924   0.421  17.071  1.3187 -0.0256 -1.1994
14951TIP3    H266345   4.889   0.524  16.966 -0.9851  0.4219 -0.0549
14952TIP3   OH266346   1.976   4.010  11.448 -0.2628 -0.4138 -0.2693
14952TIP3    H166347   1.916   4.070  11.492  1.8170  0.8338  0.9992
14952TIP3    H266348   1.984   4.044  11.359  0.4960  0.9384  0.2901
14953TIP3   OH266349   0.577   3.442   0.522  0.1464  0.2200 -0.1273
14953TIP3    H166350   0.530   3.521   0.496  0.1117  1.1546  2.4885
14953TIP3    H266351   0.509   3.380   0.548  0.2120 -0.3799 -1.3204
14954TIP3   OH266352   0.058   2.533  11.276 -0.1165 -0.4939  0.0168
14954TIP3    H166353   0.116   2.476  11.326 -1.3133 -2.2990 -0.5591
14954TIP3    H266354   0.057   2.495  11.188 -0.9938  0.3748 -0.3666
14955TIP3   OH266355   3.362   1.435  13.265  0.0366 -0.2460 -1.0718
14955TIP3    H166356   3.381   1.343  13.243 -0.4039 -0.3542 -1.0000
14955TIP3    H266357   3.270   1.447  13.242 -0.4195 -0.3273  0.5732
14956TIP3   OH266358   5.495   6.768  16.755  0.2265 -0.0945 -0.1408
14956TIP3    H166359   5.400   6.753  16.748  0.0815 -0.2146  1.6653
14956TIP3    H266360   5.534   6.682  16.743 -0.1061 -0.5953  1.9665
14957TIP3   OH266361   2.418   2.912   0.852  0.2236  0.2231  0.5619
14957TIP3    H166362   2.353   2.955   0.796  2.0161 -0.3609 -2.1784
14957TIP3    H266363   2.368   2.847   0.902 -1.5701  1.1905  0.0977
14958TIP3   OH266364   0.324   2.055   4.773 -0.6151 -0.2639  0.6504
14958TIP3    H166365   0.377   2.109   4.714 -0.9184  0.1306  0.7384
14958TIP3    H266366   0.320   1.970   4.730 -0.5574 -0.0719  0.2614
14959TIP3   OH266367   0.039   2.525  14.989  0.3001 -0.2878 -0.4654
14959TIP3    H166368   0.007   2.481  14.910 -0.2745  1.6760 -1.4000
14959TIP3    H266369   0.132   2.539  14.973  0.1980  0.0508 -0.7843
14960TIP3   OH266370   0.293   5.522  13.065  0.5661  0.2900 -0.0466
14960TIP3    H166371   0.304   5.597  13.007  0.5739  0.9483  0.7866
14960TIP3    H266372   0.351   5.455  13.028  0.7489  0.7697 -0.6598
14961TIP3   OH266373   5.629   5.803  16.786 -0.0585 -0.7494  0.5838
14961TIP3    H166374   5.588   5.737  16.730 -0.1383  1.1123 -1.6890
14961TIP3    H266375   5.716   5.768  16.805 -0.7489 -2.3189  1.0083
14962TIP3   OH266376   6.702   5.976  11.808 -0.1029  0.5242  0.0904
14962TIP3    H166377   6.685   6.035  11.734  0.0363  0.5185  0.0536
14962TIP3    H266378   6.667   6.023  11.884 -0.0092  0.6458  0.0585
14963TIP3   OH266379   0.267   3.750  14.866 -0.1289 -0.1525  0.0143
14963TIP3    H166380   0.295   3.764  14.775  0.9359 -1.8965  0.0306
14963TIP3    H266381   0.230   3.662  14.866 -0.5312  0.0014  1.1863
14964TIP3   OH266382   5.940   2.045  15.951 -0.4773 -0.6428  0.0498
14964TIP3    H166383   5.909   2.037  16.041 -1.3257  0.8764 -0.0658
14964TIP3    H266384   5.861   2.043  15.898 -0.1013 -0.1557 -0.5480
14965TIP3   OH266385   6.770   0.563   2.087 -0.2404  0.5315 -0.1370
14965TIP3    H166386   6.842   0.549   2.148 -0.5184  1.6667  0.4953
14965TIP3    H266387   6.705   0.497   2.111  0.2262  0.0692 -0.1328
14966TIP3   OH266388   5.360   0.351  12.068 -0.2617  0.7337 -0.1239
14966TIP3    H166389   5.434   0.398  12.028 -0.0703 -0.3257 -1.0673
14966TIP3    H266390   5.303   0.330  11.994  0.5671 -2.1413 -0.0449
14967TIP3   OH266391   3.014   5.776   3.707 -0.0440 -0.0272 -0.0625
14967TIP3    H166392   3.020   5.717   3.782  2.4248  0.7153  0.4158
14967TIP3    H266393   2.927   5.758   3.669 -1.5303 -0.1972  3.1078
14968TIP3   OH266394   4.027   6.574   2.764 -0.9031 -0.1339 -0.5478
14968TIP3    H166395   4.122   6.560   2.769 -0.7659  0.3288 -1.6300
14968TIP3    H266396   3.992   6.531   2.842 -0.0452 -2.4198 -1.3379
14969TIP3   OH266397   6.535   0.541   2.845  0.0681 -0.5323 -0.5750
14969TIP3    H166398   6.619   0.506   2.817  0.5823 -0.1186  0.4093
14969TIP3    H266399   6.502   0.477   2.908 -0.1900 -0.5025 -0.6756
14970TIP3   OH266400   4.373   5.518  11.347  0.0962 -0.4313  0.4166
14970TIP3    H166401   4.418   5.510  11.264 -0.9104 -2.1629 -0.0110
14970TIP3    H266402   4.390   5.608  11.375  1.4947 -0.2044 -1.0255
14971TIP3   OH266403   3.184   0.221   0.878  0.4307  0.9021  0.3192
14971TIP3    H166404   3.240   0.239   0.802  1.7351  0.3074  1.0984
14971TIP3    H266405   3.103   0.187   0.841  1.7534 -1.2692 -0.8003
14972TIP3   OH266406   3.374   5.886   3.248  0.2563  0.3814  0.1690
14972TIP3    H166407   3.322   5.962   3.276  1.0683  1.0027  0.0100
14972TIP3    H266408   3.458   5.923   3.222  1.4951 -0.8076  2.2502
14973TIP3   OH266409   1.336   6.413   0.872  0.5954  0.2609  0.2794
14973TIP3    H166410   1.333   6.489   0.930 -0.0854 -1.6417  2.9080
14973TIP3    H266411   1.269   6.431   0.806 -1.1723  1.0158  2.1478
14974TIP3   OH266412   5.899   4.242   6.480  0.0740  0.1705  0.0311
14974TIP3    H166413   5.951   4.319   6.501  0.0289 -0.0181  0.8831
14974TIP3    H266414   5.933   4.211   6.396  0.8347  0.4773  0.2190
14975TIP3   OH266415   5.496   3.011   2.539  0.1572 -0.6755  0.6298
14975TIP3    H166416   5.438   3.088   2.531  0.3056 -0.7230 -1.8635
14975TIP3    H266417   5.536   3.020   2.625 -2.0402  0.4473  1.6277
14976TIP3   OH266418   3.360   6.555   4.473 -0.1087  0.5176 -0.0864
14976TIP3    H166419   3.436   6.540   4.417  0.3405 -2.4140  1.1271
14976TIP3    H266420   3.397   6.573   4.560 -0.7976  0.4536  0.2287
14977TIP3   OH266421   4.155   2.128   2.041 -0.0575  1.0548  0.1374
14977TIP3    H166422   4.081   2.125   2.101 -1.2557  3.6012 -1.0661
14977TIP3    H266423   4.183   2.220   2.041 -0.2228  1.2298 -3.2212
14978TIP3   OH266424   0.745   2.360  14.174 -0.4284  0.2291  0.2058
14978TIP3    H166425   0.710   2.439  14.132  0.4601  0.8341  0.5535
14978TIP3    H266426   0.743   2.382  14.268  1.7358  0.6876  0.1922
14979TIP3   OH266427   6.329   6.188   3.635 -0.3572 -0.7254 -0.0163
14979TIP3    H166428   6.299   6.276   3.610 -3.8276 -1.3335  1.3465
14979TIP3    H266429   6.405   6.204   3.690 -0.0804  1.3216 -0.8653
14980TIP3   OH266430   6.376   5.191   2.570 -0.3324  0.4331 -0.5857
14980TIP3    H166431   6.319   5.122   2.603  0.0258  0.5104  0.2078
14980TIP3    H266432   6.358   5.193   2.476  0.5860 -1.6759 -0.8900
14981TIP3   OH266433   0.942   5.545   1.339 -0.1934  0.4768  0.1326
14981TIP3    H166434   0.902   5.607   1.278 -2.1006 -0.0907  0.7306
14981TIP3    H266435   0.872   5.524   1.401  0.4776 -1.9928  0.1587
14982TIP3   OH266436   1.465   5.195   5.073  0.1266 -0.3546 -0.3636
14982TIP3    H166437   1.546   5.145   5.082  0.1710 -0.2412 -0.1444
14982TIP3    H266438   1.462   5.251   5.151 -0.9746 -1.5394  0.4949
14983TIP3   OH266439   0.708   4.096  10.423 -0.2353  0.1767 -0.0986
14983TIP3    H166440   0.708   4.099  10.518 -4.1079 -1.5159  0.1623
14983TIP3    H266441   0.733   4.006  10.401 -3.4245 -0.8267 -0.2476
14984TIP3   OH266442   0.279   1.098   1.467  0.1211 -0.1580 -0.3007
14984TIP3    H166443   0.216   1.033   1.436 -0.6048  0.2812  0.2261
14984TIP3    H266444   0.235   1.142   1.539  1.9074 -1.4622  1.7362
14985TIP3   OH266445   6.677   1.802   3.268 -0.0566  0.5726  0.2376
14985TIP3    H166446   6.700   1.737   3.202  0.6477  1.4489 -0.3996
14985TIP3    H266447   6.625   1.867   3.221 -0.1190  0.8634  0.6944
14986TIP3   OH266448   6.263   4.190   2.456 -0.2466  0.0790 -0.5747
14986TIP3    H166449   6.265   4.095   2.467  0.5700 -0.3561 -3.5104
14986TIP3    H266450   6.339   4.209   2.400 -0.3713  2.4715 -0.0301
14987TIP3   OH266451   0.827   1.365  13.899 -0.3973  0.1637  0.2460
14987TIP3    H166452   0.815   1.416  13.979  0.2123  1.8998 -0.6938
14987TIP3    H266453   0.903   1.310  13.917  1.8770  2.9215 -0.1402
14988TIP3   OH266454   3.984   0.445   0.738  0.0918 -1.1778 -0.8172
14988TIP3    H166455   4.019   0.496   0.665  1.2890 -2.3440 -1.0859
14988TIP3    H266456   3.964   0.510   0.805  1.8885 -0.3431 -1.0251
14989TIP3   OH266457   2.829   0.927   4.779  0.7746  0.3086 -0.1995
14989TIP3    H166458   2.899   0.878   4.736 -0.3958 -2.6384  0.9895
14989TIP3    H266459   2.860   0.942   4.868  0.1427 -0.5549  0.1811
14990TIP3   OH266460   2.997   6.370   4.359  0.4969  0.1701 -0.4297
14990TIP3    H166461   2.940   6.437   4.395 -2.4253 -1.3182 -1.9070
14990TIP3    H266462   3.000   6.389   4.265  1.1619 -0.7199 -0.6067
14991TIP3   OH266463   3.026   0.864   0.566 -0.0044  0.9378  0.5702
14991TIP3    H166464   2.947   0.813   0.584 -0.9441  1.0831 -2.4521
14991TIP3    H266465   3.097   0.816   0.608 -1.1052 -1.8591 -0.5617
14992TIP3   OH266466   0.675   0.693  13.617  0.3697  0.3419  0.1582
14992TIP3    H166467   0.599   0.647  13.653 -1.6819  0.8835 -3.0865
14992TIP3    H266468   0.745   0.627  13.618 -0.8639 -1.0178  0.8615
14993TIP3   OH266469   5.098   3.000  11.655 -0.5262 -0.1392 -0.3783
14993TIP3    H166470   5.092   3.014  11.749 -1.0248  0.9252 -0.5536
14993TIP3    H266471   5.030   3.056  11.618 -2.6047 -3.0166 -1.1821
14994TIP3   OH266472   4.220   2.439   4.749  0.9160 -0.2479  0.2549
14994TIP3    H166473   4.278   2.374   4.711  1.6716  0.7534 -0.3402
14994TIP3    H266474   4.266   2.522   4.740 -1.1617  0.8229 -1.5306
14995TIP3   OH266475   3.389   5.418  13.122  0.2166 -0.3573 -0.0351
14995TIP3    H166476   3.371   5.326  13.104  0.1996 -0.4355  0.3657
14995TIP3    H266477   3.405   5.421  13.216 -0.9463  0.2366  0.1638
14996TIP3   OH266478   6.170   5.322   4.193 -0.0750 -0.5415  0.0588
14996TIP3    H166479   6.169   5.302   4.287 -0.4688 -0.7546  0.0109
14996TIP3    H266480   6.263   5.336   4.173  0.3371 -2.9711 -0.0254
14997TIP3   OH266481   1.579   5.551   0.659  0.3340  0.2766 -0.5714
14997TIP3    H166482   1.625   5.574   0.578 -0.1913  0.2329 -0.8845
14997TIP3    H266483   1.513   5.487   0.633  1.6123 -1.4756  0.2473
14998TIP3   OH266484   2.531   0.361  10.501 -0.5498 -0.1965  0.4647
14998TIP3    H166485   2.624   0.351  10.523 -0.3678 -0.5751 -0.4147
14998TIP3    H266486   2.499   0.428  10.561  0.9834  2.0849 -1.0493
14999TIP3   OH266487   6.314   2.118   3.319 -0.1140  0.3095 -0.0255
14999TIP3    H166488   6.225   2.107   3.354  0.0522 -0.0380  0.2981
14999TIP3    H266489   6.338   2.208   3.342  0.3871 -0.2350  1.7015
15000TIP3   OH266490   6.767   4.929  16.535  0.4094 -0.2136  0.3362
15000TIP3    H166491   6.763   4.884  16.619 -0.7137  1.2026  1.0688
15000TIP3    H266492   6.794   5.018  16.556 -0.0243  0.1970 -0.7873
15001TIP3   OH266493   6.680   6.785   0.267 -0.3852 -0.1666  0.1301
15001TIP3    H166494   6.710   6.722   0.202  0.3725  0.8755 -0.5608
15001TIP3    H266495   6.605   6.743   0.309 -0.3419 -1.2126 -0.8096
15002TIP3   OH266496   6.056   6.740   2.629 -0.2684  0.6033 -0.2385
15002TIP3    H166497   6.033   6.669   2.688 -0.6082  0.0943 -0.9782
15002TIP3    H266498   5.975   6.762   2.584  0.0819  0.6834 -0.8402
15003TIP3   OH266499   5.548   4.982  12.763  0.5027 -0.8040  0.0235
15003TIP3    H166500   5.501   4.901  12.784 -0.2996 -0.5780 -0.8391
15003TIP3    H266501   5.518   5.005  12.675  0.6397  0.5016  0.3036
15004TIP3   OH266502   6.161   2.444  15.327 -0.4251  0.2718  0.0376
15004TIP3    H166503   6.067   2.429  15.313 -0.4439  0.6040 -0.2036
15004TIP3    H266504   6.199   2.356  15.330 -0.5288  0.1685 -1.3669
15005TIP3   OH266505   4.345   5.618   1.202  0.1589  0.1707 -0.0233
15005TIP3    H166506   4.432   5.630   1.165  0.0020 -0.5856 -0.6536
15005TIP3    H266507   4.287   5.665   1.142  0.2085  1.4317  0.8745
15006TIP3   OH266508   4.820   5.442   3.347 -0.1123 -0.1650  0.0769
15006TIP3    H166509   4.794   5.427   3.438 -1.9277 -0.6829 -0.5041
15006TIP3    H266510   4.816   5.356   3.306 -1.3294  0.3641 -0.9800
15007TIP3   OH266511   4.754   1.153  14.391  0.2058  0.0586  0.1284
15007TIP3    H166512   4.713   1.072  14.422  0.1358  0.0574  0.0335
15007TIP3    H266513   4.846   1.144  14.415  0.0443  0.3187  0.8714
15008TIP3   OH266514   3.284   4.010   3.087  0.0395 -0.2057  0.4179
15008TIP3    H166515   3.353   4.074   3.071  0.5572 -0.6196  0.9340
15008TIP3    H266516   3.225   4.051   3.150 -0.2654  0.2023 -0.1279
15009TIP3   OH266517   5.698   0.632  11.227  0.4693 -0.5072 -0.1640
15009TIP3    H166518   5.790   0.657  11.218  0.3060 -0.0206 -0.5529
15009TIP3    H266519   5.667   0.623  11.137 -0.0198 -0.0520 -0.0440
15010TIP3   OH266520   1.986   1.372   1.740  0.2199  0.4599 -1.1263
15010TIP3    H166521   2.013   1.302   1.680 -2.4519 -0.6285 -1.2196
15010TIP3    H266522   1.895   1.388   1.718 -0.1280  1.8045  0.9959
15011TIP3   OH266523   4.600   4.656  16.229  0.4802  0.2519 -0.3722
15011TIP3    H166524   4.658   4.637  16.155  0.2388  0.5762 -0.6485
15011TIP3    H266525   4.586   4.751  16.225  1.9398  0.5715  1.1847
15012TIP3   OH266526   3.010   5.139  11.062 -0.0238  0.0179 -1.0968
15012TIP3    H166527   3.076   5.135  10.992  0.7432  0.9789 -0.4626
15012TIP3    H266528   3.004   5.050  11.096  0.4786 -0.2086 -1.5920
15013TIP3   OH266529   0.352   6.092  13.668  0.3135 -0.2708 -0.2564
15013TIP3    H166530   0.308   6.026  13.615 -0.2642  0.0297 -0.1589
15013TIP3    H266531   0.444   6.088  13.640  0.2133 -0.8459 -0.5201
15014TIP3   OH266532   1.493   0.309   3.682  0.2425 -0.1919 -0.3400
15014TIP3    H166533   1.511   0.217   3.664  1.3239 -0.2528  0.8772
15014TIP3    H266534   1.580   0.348   3.693 -0.2007  0.9870 -0.8618
15015TIP3   OH266535   1.970   5.627   3.458 -0.2796 -0.2381  0.0042
15015TIP3    H166536   1.962   5.705   3.403 -0.2784 -1.9081 -2.5263
15015TIP3    H266537   2.064   5.610   3.463 -0.2884 -0.1812  0.4220
15016TIP3   OH266538   4.162   5.712   6.090  0.1072 -0.1234  0.0260
15016TIP3    H166539   4.251   5.746   6.105  0.1948 -0.1263 -0.4625
15016TIP3    H266540   4.104   5.779   6.127  0.3247 -0.7624  1.6028
15017TIP3   OH266541   3.224   0.579  11.223  0.9484 -0.3702  0.3181
15017TIP3    H166542   3.303   0.563  11.274  0.1708  0.6567  1.9022
15017TIP3    H266543   3.253   0.636  11.152  1.3248  1.6690  2.0239
15018TIP3   OH266544   5.105   3.800   2.890  0.3815 -0.6269 -0.1853
15018TIP3    H166545   5.087   3.863   2.820  1.1534  0.2160  0.3540
15018TIP3    H266546   5.097   3.850   2.970 -2.0608 -1.9271  0.5007
15019TIP3   OH266547   4.915   5.741  17.199 -0.3243 -0.1692 -0.1427
15019TIP3    H166548   4.969   5.693  17.136  0.4428  1.0291 -0.4296
15019TIP3    H266549   4.959   5.825  17.208 -1.2972  0.2488  0.8256
15020TIP3   OH266550   5.518   4.401   1.019 -0.0398 -0.1196  0.2026
15020TIP3    H166551   5.480   4.481   0.984  1.3542  0.8377  0.7989
15020TIP3    H266552   5.601   4.390   0.971 -0.3265 -1.3633 -0.0599
15021TIP3   OH266553   0.386   6.343  15.656 -0.0336  0.5807 -0.1956
15021TIP3    H166554   0.401   6.249  15.667 -3.4176 -0.3347 -2.0901
15021TIP3    H266555   0.472   6.378  15.631  1.5688 -1.7250  1.6109
15022TIP3   OH266556   0.703   4.402  12.398  0.3075  0.0956  0.1235
15022TIP3    H166557   0.777   4.437  12.349  0.1216  0.6114  0.2123
15022TIP3    H266558   0.628   4.454  12.370  0.2078  0.4256  0.9856
15023TIP3   OH266559   4.971   5.424   0.567 -0.4949  0.0262 -0.2887
15023TIP3    H166560   4.899   5.439   0.628 -0.2737  0.8146 -0.2176
15023TIP3    H266561   5.030   5.365   0.615  0.1811  1.4450  0.6799
15024TIP3   OH266562   0.680   3.822  11.802 -0.4776  0.7743  0.1635
15024TIP3    H166563   0.745   3.799  11.869  0.6292  0.9980 -0.8200
15024TIP3    H266564   0.688   3.916  11.792  0.3948  0.5712 -1.2984
15025TIP3   OH266565   3.202   5.944  15.810 -0.2937 -0.1409  0.7549
15025TIP3    H166566   3.278   5.900  15.849  2.0112  1.5881 -1.4894
15025TIP3    H266567   3.177   5.888  15.737 -2.4767 -1.6245  2.4729
15026TIP3   OH266568   1.790   1.922  12.795 -0.2442 -0.2298 -0.2943
15026TIP3    H166569   1.720   1.922  12.730  0.6493  2.1252 -1.3912
15026TIP3    H266570   1.856   1.862  12.760 -0.2774  0.1316 -0.9946
15027TIP3   OH266571   6.181   3.268   6.634  0.6810  0.2045  0.4575
15027TIP3    H166572   6.146   3.301   6.717  1.4692  0.1139  0.8406
15027TIP3    H266573   6.174   3.173   6.642 -0.2641  0.2168 -0.0523
15028TIP3   OH266574   1.399   1.728  12.418 -0.2938 -0.6985 -0.1357
15028TIP3    H166575   1.351   1.794  12.469  0.0943 -0.2829 -0.3006
15028TIP3    H266576   1.442   1.673  12.484  0.7933  0.2751 -0.0120
15029TIP3   OH266577   2.025   6.087  13.038  0.7077 -0.5436 -0.0985
15029TIP3    H166578   1.968   6.148  12.990  1.8832 -0.7287 -1.8062
15029TIP3    H266579   2.008   6.106  13.130 -2.4523 -0.8890 -0.4920
15030TIP3   OH266580   5.461   3.894  12.265 -0.0669 -0.6415  0.0197
15030TIP3    H166581   5.392   3.829  12.254  1.7595 -2.3773 -2.0000
15030TIP3    H266582   5.434   3.967  12.208 -0.8755 -0.7013  0.3138
15031TIP3   OH266583   1.068   4.061  11.829 -0.0088  0.0663 -0.1248
15031TIP3    H166584   1.137   4.109  11.784  0.2803 -1.1014 -0.9567
15031TIP3    H266585   1.094   3.969  11.824 -1.6845 -0.4301 -0.6264
15032TIP3   OH266586   5.766   0.012  13.923 -0.1962 -0.1502  0.1947
15032TIP3    H166587   5.782   0.044  13.834 -0.6130  0.6810  0.4072
15032TIP3    H266588   5.712   0.080  13.963 -0.3675 -0.7211  0.9497
15033TIP3   OH266589   6.682   4.204   0.644 -0.1992  0.1050  0.3088
15033TIP3    H166590   6.689   4.299   0.639 -0.1790  0.1356  0.8725
15033TIP3    H266591   6.589   4.186   0.634  0.0217 -0.0011 -2.4385
15034TIP3   OH266592   2.162   2.777  14.013 -0.2566 -0.5487  0.1555
15034TIP3    H166593   2.177   2.833  13.936 -1.6656  0.8019  0.8171
15034TIP3    H266594   2.098   2.713  13.983 -0.1977 -0.5306 -0.0148
15035TIP3   OH266595   0.948   1.486   4.477  0.1352  0.7368  0.4836
15035TIP3    H166596   0.957   1.534   4.394  2.8206 -0.3471  0.0487
15035TIP3    H266597   0.954   1.394   4.452  1.0398  0.3976  1.8574
15036TIP3   OH266598   5.817   5.993   5.631 -0.3583 -0.3590 -0.3349
15036TIP3    H166599   5.838   5.968   5.541 -0.9234 -2.2754  0.0039
15036TIP3    H266600   5.725   6.018   5.628  0.5236  3.4406 -0.9404
15037TIP3   OH266601   1.888   0.831   0.946  0.0729  0.1240 -0.2825
15037TIP3    H166602   1.928   0.790   1.023 -2.0457  0.3893  1.0379
15037TIP3    H266603   1.827   0.765   0.912 -1.8500  1.3291  0.6409
15038TIP3   OH266604   4.037   2.791  15.762 -0.2535  0.3368 -0.5808
15038TIP3    H166605   4.028   2.720  15.698  0.0900 -0.4117  0.1766
15038TIP3    H266606   3.962   2.847  15.746 -1.3681 -0.9959 -0.2342
15039TIP3   OH266607   1.138   3.050   1.538  0.1762  0.0984 -0.3009
15039TIP3    H166608   1.158   2.965   1.499 -1.1162 -0.9605  1.1815
15039TIP3    H266609   1.124   3.031   1.631 -0.4940  1.8759  0.0028
15040TIP3   OH266610   2.028   3.288  16.064  0.4304 -0.3660 -0.0384
15040TIP3    H166611   2.115   3.304  16.099  0.1019 -0.8165  1.0185
15040TIP3    H266612   1.971   3.282  16.141 -0.6978  0.8101 -0.7466
15041TIP3   OH266613   0.198   0.459  10.804 -0.2473  0.4755  0.0727
15041TIP3    H166614   0.255   0.478  10.730 -0.7361  1.1307 -0.1393
15041TIP3    H266615   0.132   0.399  10.768  0.0188  0.1073  0.1959
15042TIP3   OH266616   3.717   4.756   0.083  0.1993 -0.3520 -0.3406
15042TIP3    H166617   3.715   4.706   0.165 -0.5016  0.1744 -0.0270
15042TIP3    H266618   3.712   4.689   0.015  0.4465 -0.7802  0.0552
15043TIP3   OH266619   6.005   1.345   1.184  0.3268 -0.1764 -0.1329
15043TIP3    H166620   5.918   1.348   1.222 -0.8364 -1.9547 -2.4362
15043TIP3    H266621   6.006   1.417   1.120  0.9410  0.4749  0.5885
15044TIP3   OH266622   0.302   1.939   5.503 -0.0217  0.5312  0.1577
15044TIP3    H166623   0.393   1.953   5.476 -0.4189 -1.2466 -2.5731
15044TIP3    H266624   0.258   2.021   5.481  0.3850  0.3368 -1.5238
15045TIP3   OH266625   3.220   4.192   1.304  0.2816 -0.3959 -0.2309
15045TIP3    H166626   3.162   4.132   1.350  0.1357  0.1352  0.3027
15045TIP3    H266627   3.171   4.275   1.303 -0.3795 -0.7571 -2.6987
15046TIP3   OH266628   0.394   1.357  13.677  0.1763  0.5503  0.0341
15046TIP3    H166629   0.334   1.360  13.751  1.0327  2.7063  0.7233
15046TIP3    H266630   0.466   1.300  13.706  0.5021  1.3742  0.8802
15047TIP3   OH266631   1.447   4.903  15.897  0.2026  0.0036  0.3005
15047TIP3    H166632   1.393   4.845  15.951 -2.2516  1.3623 -0.5586
15047TIP3    H266633   1.514   4.936  15.958 -0.4550 -1.0364  1.6533
15048TIP3   OH266634   3.663   3.683   2.990 -0.2551  0.2066 -0.5429
15048TIP3    H166635   3.698   3.665   2.902 -2.3787  1.0139 -1.6175
15048TIP3    H266636   3.569   3.665   2.982 -0.4478  0.0100  1.6739
15049TIP3   OH266637   5.490   4.476   4.944 -0.1121 -0.5668  0.2526
15049TIP3    H166638   5.522   4.393   4.909  0.6551  0.1852 -0.8989
15049TIP3    H266639   5.395   4.471   4.935 -0.4898 -2.8006  3.6331
15050TIP3   OH266640   6.412   5.607   5.056  0.2646 -0.0952  0.0959
15050TIP3    H166641   6.372   5.591   5.142  0.9548 -0.0932  0.4221
15050TIP3    H266642   6.394   5.527   5.006  0.3674 -0.3330  0.4375
15051TIP3   OH266643   2.761   2.581  13.430 -0.3719  0.3954 -0.4556
15051TIP3    H166644   2.836   2.532  13.397  0.4147  1.4950 -0.3450
15051TIP3    H266645   2.799   2.652  13.482 -1.5352 -1.2239  2.9037
15052TIP3   OH266646   2.853   5.132  16.951  0.2027 -0.0218 -0.1313
15052TIP3    H166647   2.943   5.099  16.959  0.4203  0.7130  0.5936
15052TIP3    H266648   2.851   5.177  16.866  0.6184  0.2464 -0.0003
15053TIP3   OH266649   5.242   0.333  11.805  0.2033 -0.2203 -0.1952
15053TIP3    H166650   5.290   0.410  11.774 -0.2436 -0.6739 -2.1887
15053TIP3    H266651   5.303   0.261  11.793  0.1868 -0.3515  0.4890
15054TIP3   OH266652   2.087   1.619   5.444  0.6734 -0.5834  1.0726
15054TIP3    H166653   2.091   1.579   5.357 -1.3197  1.6768 -0.1823
15054TIP3    H266654   2.001   1.596   5.477 -0.5456  2.4658  0.3023
15055TIP3   OH266655   1.255   2.038   5.377 -1.2286  0.4395 -0.1249
15055TIP3    H166656   1.313   2.012   5.305  0.1314  1.4164  0.5635
15055TIP3    H266657   1.206   1.959   5.398  1.4973 -1.1603  0.7549
15056TIP3   OH266658   1.870   2.510  14.759  0.3118 -0.0039 -0.4868
15056TIP3    H166659   1.877   2.541  14.850  0.2187 -0.1223 -0.4393
15056TIP3    H266660   1.922   2.430  14.757 -0.8658 -0.8078 -0.1688
15057TIP3   OH266661   1.225   3.973  14.806 -0.0616 -0.5643  0.5097
15057TIP3    H166662   1.191   3.889  14.774  1.4229 -0.2576 -2.1376
15057TIP3    H266663   1.166   3.997  14.877 -2.8786 -1.9869 -1.1903
15058TIP3   OH266664   3.771   5.781  11.724 -0.1250  0.2774  0.1193
15058TIP3    H166665   3.684   5.818  11.739 -1.2068 -1.6077 -1.0749
15058TIP3    H266666   3.760   5.723  11.649  2.1528 -0.1269  0.0255
15059TIP3   OH266667   3.356   4.102   2.684  0.1693 -0.0439 -0.2898
15059TIP3    H166668   3.431   4.105   2.743 -0.3443 -0.9846  0.4293
15059TIP3    H266669   3.370   4.175   2.623  1.4478  0.0353  0.0854
15060TIP3   OH266670   3.085   2.602  12.461 -0.2104  0.2198  0.0795
15060TIP3    H166671   3.123   2.670  12.407  0.6869 -0.7504 -0.5565
15060TIP3    H266672   3.158   2.542  12.480 -1.2282 -1.2996 -0.5661
15061TIP3   OH266673   1.296   0.832   3.539 -0.1056 -0.1244 -0.1738
15061TIP3    H166674   1.383   0.841   3.501  0.3609 -0.8259  0.6803
15061TIP3    H266675   1.310   0.779   3.618 -1.2230  0.2253  0.2759
15062TIP3   OH266676   5.114   4.085  11.864 -0.9195 -0.3421 -0.3291
15062TIP3    H166677   5.024   4.096  11.895 -0.9456  1.0882 -0.8292
15062TIP3    H266678   5.107   4.080  11.769 -0.4900 -0.4307 -0.3584
15063TIP3   OH266679   4.943   4.917   4.058  0.2689  0.2660  0.1148
15063TIP3    H166680   4.848   4.928   4.053  0.3313  1.0330  0.4091
15063TIP3    H266681   4.956   4.823   4.072 -0.3821 -0.0390 -1.2204
15064TIP3   OH266682   3.261   2.695   1.301 -0.2931  0.1009  0.3003
15064TIP3    H166683   3.312   2.641   1.240 -3.9674 -2.1504 -1.1291
15064TIP3    H266684   3.250   2.641   1.378  0.0448  0.8631  0.8982
15065TIP3   OH266685   2.390   5.888  11.665  0.3283 -0.3364  0.2558
15065TIP3    H166686   2.485   5.893  11.678  0.1847  0.1608  1.1615
15065TIP3    H266687   2.356   5.968  11.705 -0.4293 -0.2456 -0.5469
15066TIP3   OH266688   4.588   3.306  14.116 -0.3491  0.1832  0.1427
15066TIP3    H166689   4.608   3.279  14.206  0.0542  1.1280  0.3479
15066TIP3    H266690   4.673   3.309  14.073 -0.4042  0.9370  0.0757
15067TIP3   OH266691   2.001   6.639   6.479 -0.2250  0.5144 -0.3566
15067TIP3    H166692   2.039   6.727   6.479  0.5962  0.1864  1.0752
15067TIP3    H266693   1.911   6.652   6.451  0.0424  1.7319 -0.7152
15068TIP3   OH266694   0.220   1.785  13.777 -0.0942 -0.0211  0.1764
15068TIP3    H166695   0.209   1.697  13.742 -0.3198  0.6639 -1.5914
15068TIP3    H266696   0.151   1.836  13.735  0.6710  1.2130  0.3794
15069TIP3   OH266697   6.558   2.774  15.110 -0.3723 -0.4095  0.1358
15069TIP3    H166698   6.576   2.698  15.054  0.7730 -0.6866  0.8400
15069TIP3    H266699   6.561   2.739  15.199  3.9481  0.9697  0.7937
15070TIP3   OH266700   0.731   2.714  15.045 -0.2400 -0.5180  0.0383
15070TIP3    H166701   0.686   2.643  15.001 -0.7989 -0.3689  0.3568
15070TIP3    H266702   0.736   2.686  15.137 -1.3791  0.2818  0.3709
15071TIP3   OH266703   2.346   1.609  13.478  0.0586  0.1189 -0.5884
15071TIP3    H166704   2.367   1.561  13.398  0.6637  0.1920 -0.4720
15071TIP3    H266705   2.397   1.566  13.547 -0.9306 -0.3477 -0.1168
15072TIP3   OH266706   5.645   1.795   3.301  0.2713 -0.6123 -0.1765
15072TIP3    H166707   5.587   1.776   3.227  0.8134 -0.1481 -0.7367
15072TIP3    H266708   5.689   1.877   3.277 -0.5718  0.3285  1.3026
15073TIP3   OH266709   0.734   0.164  12.326  0.3620  0.2292 -0.1884
15073TIP3    H166710   0.807   0.146  12.267  0.8097 -0.2033  0.4770
15073TIP3    H266711   0.673   0.092  12.311 -0.2761  0.9777 -1.2660
15074TIP3   OH266712   0.902   0.468  12.213  0.7677 -0.1060 -0.5249
15074TIP3    H166713   0.963   0.540  12.197  0.2727  0.7103  1.0419
15074TIP3    H266714   0.821   0.496  12.170  0.4400  0.5020  0.4722
15075TIP3   OH266715   2.605   6.748  13.321 -0.7809  0.5796  0.0645
15075TIP3    H166716   2.627   6.841  13.324 -0.9862  0.6616  3.1277
15075TIP3    H266717   2.686   6.703  13.346 -0.6393 -0.1121 -1.5344
15076TIP3   OH266718   3.425   0.795  12.862  0.5626 -0.3226  0.2695
15076TIP3    H166719   3.406   0.843  12.782 -1.4431 -0.6878  0.4798
15076TIP3    H266720   3.381   0.710  12.850  2.3314 -1.3609  0.7373
15077TIP3   OH266721   6.231   6.118   0.727 -0.0076  0.0624  0.4698
15077TIP3    H166722   6.268   6.147   0.644  0.5507  2.4749  1.4844
15077TIP3    H266723   6.136   6.114   0.711  0.1822 -0.6225 -0.5677
15078TIP3   OH266724   3.137   3.668   3.582 -0.6051  0.4598 -0.0838
15078TIP3    H166725   3.133   3.594   3.522 -1.1752  1.5189 -1.3807
15078TIP3    H266726   3.049   3.675   3.618 -0.0674 -0.6916  1.5808
15079TIP3   OH266727   6.050   4.321  11.217  0.1660 -0.4543  0.0906
15079TIP3    H166728   6.145   4.308  11.210  0.5804  2.0234  0.1239
15079TIP3    H266729   6.041   4.396  11.276 -1.9263 -1.7194  1.5008
15080TIP3   OH266730   3.714   0.465  15.776  0.3124 -0.0681 -0.1709
15080TIP3    H166731   3.627   0.493  15.747 -1.5274 -2.5513  2.3444
15080TIP3    H266732   3.701   0.441  15.868  3.1930 -2.3838 -0.2389
15081TIP3   OH266733   5.924   3.261  16.811 -0.0429  0.1153  0.0442
15081TIP3    H166734   5.993   3.327  16.821  0.8075 -0.4161 -1.8351
15081TIP3    H266735   5.956   3.184  16.858  0.2983  0.1161 -0.1864
15082TIP3   OH266736   5.181   2.768   0.461  0.0429 -0.7060 -0.0338
15082TIP3    H166737   5.177   2.821   0.381 -0.7005 -1.3700 -0.4558
15082TIP3    H266738   5.244   2.699   0.441  0.7479 -0.1851  0.3878
15083TIP3   OH266739   5.188   6.611  15.457 -0.0912 -0.0085  0.0839
15083TIP3    H166740   5.141   6.681  15.411 -2.3839 -1.0724  0.6720
15083TIP3    H266741   5.157   6.531  15.415  0.8638 -0.7909  0.8385
15084TIP3   OH266742   0.386   3.400  14.704  0.4923  0.2224  0.2964
15084TIP3    H166743   0.446   3.455  14.755  0.4904  0.9092 -0.4195
15084TIP3    H266744   0.444   3.346  14.650  0.5051 -0.8534  1.3619
15085TIP3   OH266745   1.899   0.581   3.988  0.0609 -0.1740  0.5998
15085TIP3    H166746   1.949   0.576   3.907  1.2461  2.7606  1.0100
15085TIP3    H266747   1.947   0.526   4.050 -0.2231 -1.5316 -0.3507
15086TIP3   OH266748   5.811   5.074   2.978  0.0747 -0.3153 -0.2404
15086TIP3    H166749   5.773   5.101   3.061 -0.2325  0.1855 -0.5405
15086TIP3    H266750   5.798   4.979   2.975 -2.2775 -0.0322 -0.8796
15087TIP3   OH266751   4.985   0.020  15.980 -0.1981  0.2429 -0.0774
15087TIP3    H166752   4.915   0.048  15.921  0.0505 -0.5316 -0.7723
15087TIP3    H266753   5.064   0.057  15.942 -0.0709 -0.0309 -0.0867
15088TIP3   OH266754   6.137   6.335   4.021  0.2584  0.1093 -0.9706
15088TIP3    H166755   6.208   6.299   4.075  0.0193 -1.2746 -1.5234
15088TIP3    H266756   6.142   6.284   3.940  1.1698  2.7222 -2.6554
15089TIP3   OH266757   5.600   4.078  11.357  0.1213  0.2515  0.4946
15089TIP3    H166758   5.508   4.072  11.385 -0.5270  0.5798 -1.4175
15089TIP3    H266759   5.596   4.124  11.273  2.1056  0.7556  0.6361
15090TIP3   OH266760   0.462   3.059  10.630  0.0371 -0.1850  0.2216
15090TIP3    H166761   0.519   3.003  10.683  0.3361 -0.0846  0.0092
15090TIP3    H266762   0.515   3.080  10.553 -0.0517  0.4416  0.3302
15091TIP3   OH266763   2.608   0.827  14.096  0.4816 -0.0925  0.1808
15091TIP3    H166764   2.585   0.738  14.125 -1.6995  0.4817  0.3461
15091TIP3    H266765   2.607   0.822  14.000 -0.4010 -0.0715  0.1867
15092TIP3   OH266766   3.407   4.811  10.617 -0.1773 -0.1975 -0.1861
15092TIP3    H166767   3.482   4.861  10.650 -0.6295  0.7027 -0.4829
15092TIP3    H266768   3.383   4.856  10.536 -0.1730 -1.3228 -0.8243
15093TIP3   OH266769   6.601   5.488  16.976  0.5910 -0.0606 -0.2291
15093TIP3    H166770   6.611   5.522  16.887 -0.2642  1.0563  0.0860
15093TIP3    H266771   6.543   5.550  17.020  0.3240 -1.0482  0.8727
15094TIP3   OH266772   6.435   2.126  16.708 -0.2175  0.3093 -0.0215
15094TIP3    H166773   6.518   2.170  16.690 -0.8381  1.1010 -1.0467
15094TIP3    H266774   6.450   2.035  16.683 -0.8597  1.2069 -4.3709
15095TIP3   OH266775   4.559   0.831  11.796 -0.3694  0.1382  0.0349
15095TIP3    H166776   4.479   0.819  11.744 -0.6046  0.7362  0.2441
15095TIP3    H266777   4.539   0.905  11.853 -0.5951 -1.3325  1.9361
15096TIP3   OH266778   3.264   0.180  11.599  0.1593  0.5032  0.4910
15096TIP3    H166779   3.240   0.188  11.691 -1.1880  0.6054  0.1631
15096TIP3    H266780   3.199   0.119  11.564 -0.3872  1.7531 -0.7441
15097TIP3   OH266781   2.423   3.464  15.148  0.8553  0.7814 -0.0900
15097TIP3    H166782   2.361   3.496  15.082 -2.2634 -2.7998  0.7315
15097TIP3    H266783   2.478   3.401  15.101  0.3726  0.1714  0.1390
15098TIP3   OH266784   2.297   2.623   2.000 -0.2861  0.3440  0.6985
15098TIP3    H166785   2.204   2.620   1.975 -0.1648  0.8968  0.1578
15098TIP3    H266786   2.304   2.701   2.056  0.2368  1.5010 -0.9302
15099TIP3   OH266787   4.092   0.768   2.239 -0.6735 -0.1058 -0.3171
15099TIP3    H166788   4.098   0.850   2.189 -1.6577  0.7162  0.8564
15099TIP3    H266789   4.018   0.722   2.200  0.3826 -0.8724 -1.5244
15100TIP3   OH266790   3.212   0.963   3.089  0.3291  0.1735 -0.4643
15100TIP3    H166791   3.269   1.033   3.121  0.3154 -0.0812  0.1348
15100TIP3    H266792   3.226   0.891   3.151 -0.8488  0.2012 -0.1469
15101TIP3   OH266793   4.569   5.524   0.448 -0.1330  0.2355  0.3188
15101TIP3    H166794   4.605   5.612   0.439 -1.4275  0.6419 -1.3654
15101TIP3    H266795   4.478   5.538   0.472 -0.4572 -0.6271 -0.3676
15102TIP3   OH266796   0.801   1.029  14.184  0.0960  0.5622  0.2597
15102TIP3    H166797   0.737   1.086  14.227 -1.3270 -0.1103 -0.8690
15102TIP3    H266798   0.856   1.088  14.133 -0.8603  1.0224 -0.2658
15103TIP3   OH266799   6.652   0.797  13.094 -0.6388  0.3826  0.2068
15103TIP3    H166800   6.681   0.861  13.159 -0.6092  0.7353 -0.1480
15103TIP3    H266801   6.728   0.783  13.038 -0.6685  0.0921  0.2343
15104TIP3   OH266802   0.588   3.346  13.787 -0.3022 -0.8513 -0.3631
15104TIP3    H166803   0.526   3.275  13.802  0.4559 -1.6655 -0.9960
15104TIP3    H266804   0.552   3.393  13.711 -1.8896  0.7231  1.2662
15105TIP3   OH266805   5.271   4.459   2.144 -0.1984 -0.1280  0.6369
15105TIP3    H166806   5.303   4.540   2.184 -1.7552  0.9391 -0.2302
15105TIP3    H266807   5.350   4.405   2.134  0.7351  0.9096  1.9997
15106TIP3   OH266808   1.630   4.070  14.985 -0.1148  0.0907  0.0876
15106TIP3    H166809   1.594   4.005  15.044  0.2007 -0.0525  0.1264
15106TIP3    H266810   1.556   4.097  14.929 -0.3716  0.1042  0.4341
15107TIP3   OH266811   4.152   6.661  13.364  0.0430 -0.1814  0.6073
15107TIP3    H166812   4.215   6.649  13.434 -0.6997 -1.4466  1.0870
15107TIP3    H266813   4.069   6.679  13.408 -0.5351 -1.4583  0.1069
15108TIP3   OH266814   4.049   1.704   2.802 -0.1159  0.2811  0.2473
15108TIP3    H166815   4.046   1.685   2.896  3.2161  0.1571  0.4578
15108TIP3    H266816   4.058   1.618   2.760  1.0243  0.4603  0.0788
15109TIP3   OH266817   5.585   0.809  12.015  0.0355  0.2633  0.0092
15109TIP3    H166818   5.613   0.785  11.926 -0.3484 -0.4784  0.0779
15109TIP3    H266819   5.553   0.727  12.053  2.2015  0.0846  1.6259
15110TIP3   OH266820   4.756   5.169   3.559 -0.2414 -0.5699 -0.0357
15110TIP3    H166821   4.682   5.118   3.527 -1.0069 -0.5390  1.5888
15110TIP3    H266822   4.790   5.119   3.633  0.6327 -0.0086 -0.0385
15111TIP3   OH266823   5.228   2.374   5.400 -0.3870 -0.1642 -0.5923
15111TIP3    H166824   5.164   2.305   5.417 -0.8720  0.1603 -1.0687
15111TIP3    H266825   5.297   2.360   5.465 -1.3489  0.0138  0.4895
15112TIP3   OH266826   1.801   0.849   4.069 -0.5559  0.8593  0.1791
15112TIP3    H166827   1.720   0.878   4.028 -1.5137 -1.2271  0.4884
15112TIP3    H266828   1.815   0.760   4.035 -0.2968 -0.1652  2.7292
15113TIP3   OH266829   2.267   2.444  11.513 -0.0951 -0.6289 -0.3008
15113TIP3    H166830   2.229   2.532  11.516 -1.4729 -1.2297  0.9917
15113TIP3    H266831   2.310   2.439  11.428  1.8110  2.0167  0.3660
15114TIP3   OH266832   3.655   4.010  15.596 -0.2691 -0.5206  0.5882
15114TIP3    H166833   3.748   4.001  15.617 -0.2154  1.2169  1.2230
15114TIP3    H266834   3.649   4.095  15.552 -1.4943 -0.8359  0.1239
15115TIP3   OH266835   6.318   1.750   1.874 -0.8131  0.6297 -0.0437
15115TIP3    H166836   6.245   1.766   1.935 -3.1573  0.9872 -2.7530
15115TIP3    H266837   6.300   1.663   1.838  1.4435 -0.2837  0.8318
15116TIP3   OH266838   2.355   6.163  10.618 -0.0092 -0.3147  0.1005
15116TIP3    H166839   2.316   6.248  10.637 -0.3825 -0.2912 -0.7146
15116TIP3    H266840   2.368   6.164  10.523  0.1615 -1.0862  0.1123
15117TIP3   OH266841   5.145   5.922   5.309 -0.2289  0.6844  0.4959
15117TIP3    H166842   5.093   5.897   5.232 -0.8809 -1.2376  1.4850
15117TIP3    H266843   5.235   5.905   5.284 -0.6244 -2.8435  1.0570
15118TIP3   OH266844   1.569   2.300   4.113  0.2939 -0.5226 -0.4188
15118TIP3    H166845   1.552   2.207   4.126  0.2781 -0.5928 -0.9001
15118TIP3    H266846   1.646   2.319   4.167 -0.3224 -0.5734  0.4957
15119TIP3   OH266847   5.372   3.253   1.226  0.0476 -0.1094  0.2605
15119TIP3    H166848   5.421   3.185   1.272 -0.1867  0.2472  1.0546
15119TIP3    H266849   5.308   3.283   1.290  0.6444  1.3864  0.1842
15120TIP3   OH266850   1.562   6.040   2.675 -0.6605 -0.0287  0.1555
15120TIP3    H166851   1.620   6.049   2.751 -1.1825  1.7906  0.3896
15120TIP3    H266852   1.504   5.967   2.698 -0.6138  0.2865  1.3839
15121TIP3   OH266853   0.121   3.160   5.439 -0.2599 -0.1295  0.1819
15121TIP3    H166854   0.105   3.080   5.489 -0.8351  0.3866  0.8484
15121TIP3    H266855   0.036   3.203   5.436  0.0503  0.4698 -0.1511
15122TIP3   OH266856   1.957   5.773   1.969  0.3255 -0.2535 -0.2499
15122TIP3    H166857   1.943   5.800   1.878 -0.6796  0.0617 -0.0093
15122TIP3    H266858   1.877   5.726   1.993  1.4702 -2.2903 -0.2131
15123TIP3   OH266859   0.098   6.741  15.677  0.2752  0.3898 -0.2307
15123TIP3    H166860   0.135   6.787  15.753  0.4166  0.7490 -0.5119
15123TIP3    H266861   0.071   6.656  15.711  0.5471  0.4625  0.1748
15124TIP3   OH266862   4.142   2.376   5.252  0.2312  0.1890 -0.7188
15124TIP3    H166863   4.183   2.462   5.258 -0.5795  0.4948  0.9717
15124TIP3    H266864   4.154   2.350   5.161  1.1193  1.7628 -1.0871
15125TIP3   OH266865   4.674   4.108   2.256 -0.5068  0.1234 -0.0934
15125TIP3    H166866   4.623   4.123   2.177 -1.4834 -1.2110  0.2481
15125TIP3    H266867   4.633   4.032   2.297  1.3788 -0.6270  0.5167
15126TIP3   OH266868   3.266   2.804   5.027 -0.0683  0.3214 -0.3752
15126TIP3    H166869   3.175   2.776   5.040 -0.0579  0.1035 -0.7775
15126TIP3    H266870   3.309   2.728   4.989  0.1561  0.6084 -0.6891
15127TIP3   OH266871   3.995   5.757  11.136 -0.0929 -0.1647 -0.0107
15127TIP3    H166872   4.075   5.737  11.087 -0.5926 -3.1962  0.2530
15127TIP3    H266873   4.014   5.731  11.226 -1.5802 -1.6593 -0.0921
15128TIP3   OH266874   4.360   5.807   1.473 -0.0656 -0.1033 -0.1796
15128TIP3    H166875   4.300   5.881   1.476  1.5665  1.2466  1.5723
15128TIP3    H266876   4.376   5.793   1.379 -1.5280  0.7846 -0.5900
15129TIP3   OH266877   0.418   3.861  13.702  0.3708 -0.3324 -0.2454
15129TIP3    H166878   0.353   3.801  13.738  0.5933 -0.5709 -0.2437
15129TIP3    H266879   0.502   3.827  13.731  0.4404  0.7283  0.8826
15130TIP3   OH266880   2.672   5.841   0.462 -0.2880 -0.0471 -0.2490
15130TIP3    H166881   2.588   5.818   0.502 -1.1542  2.5497 -0.3410
15130TIP3    H266882   2.701   5.919   0.510  1.3207  0.0222 -1.2289
15131TIP3   OH266883   0.638   4.162   5.367  0.0768  0.3393 -0.0424
15131TIP3    H166884   0.705   4.207   5.315  0.5881 -0.1770  0.1641
15131TIP3    H266885   0.668   4.071   5.372 -0.1214  0.3160  0.8992
15132TIP3   OH266886   3.370   0.638   0.134  0.7106 -0.0588 -0.5360
15132TIP3    H166887   3.448   0.692   0.145  1.1353 -0.1842 -2.6108
15132TIP3    H266888   3.392   0.578   0.063 -1.2149 -0.1886 -1.0783
15133TIP3   OH266889   1.653   3.510  16.441 -0.2212 -0.0465  0.0326
15133TIP3    H166890   1.588   3.532  16.375 -1.3174 -0.2045  1.0397
15133TIP3    H266891   1.689   3.595  16.469  0.1133  0.0312 -0.6176
15134TIP3   OH266892   5.232   3.149   2.115  0.0270  0.4247  0.2255
15134TIP3    H166893   5.312   3.175   2.162 -1.0104  1.0596  1.7366
15134TIP3    H266894   5.178   3.228   2.116 -0.8739 -0.1760 -0.2282
15135TIP3   OH266895   0.020   2.056  15.525  0.4065  0.4162  0.5497
15135TIP3    H166896   0.036   2.086  15.614 -1.0935  0.9809  0.6607
15135TIP3    H266897  -0.030   2.127  15.485  0.5011 -0.1157 -0.5416
15136TIP3   OH266898   2.599   2.213   2.337  0.1928 -0.3629 -0.4760
15136TIP3    H166899   2.603   2.291   2.393 -2.2580  0.8535 -1.8418
15136TIP3    H266900   2.506   2.198   2.323  0.6796 -1.9410 -2.4423
15137TIP3   OH266901   6.162   2.090  12.447 -0.0816  0.9169 -0.4826
15137TIP3    H166902   6.125   2.046  12.370  0.8338  1.0988 -1.0421
15137TIP3    H266903   6.093   2.084  12.513 -0.7864  0.5267 -1.2309
15138TIP3   OH266904   3.693   6.497  11.701 -0.0203 -0.0427 -0.1232
15138TIP3    H166905   3.759   6.513  11.768 -1.2814  1.3500  0.8722
15138TIP3    H266906   3.677   6.403  11.704  0.4498 -0.0914  1.0473
15139TIP3   OH266907   0.747   2.442  12.938 -0.4849  0.1089  0.0670
15139TIP3    H166908   0.693   2.483  12.872 -1.2194 -1.2612 -0.2208
15139TIP3    H266909   0.758   2.351  12.908 -0.3150 -0.3736  1.4897
15140TIP3   OH266910   5.501   1.392  12.143  0.0777  0.5327  0.7997
15140TIP3    H166911   5.542   1.413  12.059 -1.6052  0.0897 -0.1732
15140TIP3    H266912   5.412   1.427  12.136 -0.3437 -0.1985  2.1010
15141TIP3   OH266913   5.619   6.086   5.179  0.0863 -0.7991  0.4906
15141TIP3    H166914   5.632   6.038   5.097 -1.0329  0.9867 -0.7919
15141TIP3    H266915   5.680   6.160   5.174 -0.8900  0.0397  0.6598
15142TIP3   OH266916   3.710   4.230   6.316 -0.3649 -0.3744 -0.1646
15142TIP3    H166917   3.634   4.278   6.284 -0.0546 -1.3035 -2.4639
15142TIP3    H266918   3.697   4.141   6.285  0.9697 -0.8880  0.6711
15143TIP3   OH266919   0.542   1.689  14.034 -0.3475  0.7739  0.5607
15143TIP3    H166920   0.517   1.674  14.126 -1.9843  0.9995  0.1900
15143TIP3    H266921   0.582   1.607  14.007  0.1801  0.7108  1.4794
15144TIP3   OH266922   0.513   0.986   2.338  0.5565  0.1276 -0.0867
15144TIP3    H166923   0.567   1.036   2.278 -0.5891  1.9834  0.3397
15144TIP3    H266924   0.505   1.042   2.415 -0.2881 -0.9880  0.6700
15145TIP3   OH266925   4.344   2.601   5.617  0.4598 -0.0402  0.1371
15145TIP3    H166926   4.409   2.548   5.570  1.0745  1.7724 -1.2082
15145TIP3    H266927   4.343   2.565   5.705  0.7332 -2.3351 -0.7348
15146TIP3   OH266928   2.523   5.616  14.610 -0.1042  0.5500  0.2244
15146TIP3    H166929   2.597   5.671  14.635 -0.2939 -0.2786  2.8576
15146TIP3    H266930   2.455   5.636  14.675 -1.1155 -0.8939 -0.3437
15147TIP3   OH266931   6.234   5.503   3.823 -0.2365 -0.0934 -0.1092
15147TIP3    H166932   6.206   5.587   3.859 -1.6856 -0.9635  0.8649
15147TIP3    H266933   6.158   5.472   3.773  0.4345 -0.6500 -0.8076
15148TIP3   OH266934   5.465   5.466   5.139  0.0202  0.0574 -0.2171
15148TIP3    H166935   5.430   5.385   5.105  0.5704 -0.9328  1.4382
15148TIP3    H266936   5.552   5.473   5.100  0.7935 -1.2548  1.1473
15149TIP3   OH266937   5.935   5.235   5.822 -0.0465  0.4847 -0.2086
15149TIP3    H166938   5.895   5.212   5.906 -0.2492 -0.2534 -0.4966
15149TIP3    H266939   5.961   5.151   5.784 -0.2445  0.7778 -1.0210
15150TIP3   OH266940   6.425   4.299   2.702  0.4137 -0.8552  0.1812
15150TIP3    H166941   6.490   4.369   2.695  0.0687 -0.6247 -1.1310
15150TIP3    H266942   6.344   4.340   2.671  0.5257 -2.2159 -2.1219
15151TIP3   OH266943   4.094   2.662  16.783  0.5901 -0.1579  0.2859
15151TIP3    H166944   4.031   2.654  16.711 -0.8129  2.0851  1.1408
15151TIP3    H266945   4.164   2.718  16.747  1.1175 -1.0163 -0.0488
15152TIP3   OH266946   2.249   5.946   2.308 -0.6713  0.0543 -0.1659
15152TIP3    H166947   2.219   6.006   2.377  0.2516  0.3330  0.0065
15152TIP3    H266948   2.199   5.971   2.231 -0.5578  0.8045 -0.0024
15153TIP3   OH266949   2.159   0.215  16.581 -0.1456  0.6434 -0.6629
15153TIP3    H166950   2.201   0.135  16.612 -2.9779 -1.4624 -1.8623
15153TIP3    H266951   2.103   0.242  16.654 -1.4602 -0.2657 -1.2943
15154TIP3   OH266952   6.506   0.511   3.960 -0.0230  0.1860 -0.4146
15154TIP3    H166953   6.415   0.510   3.989 -0.8122  0.0607 -2.6619
15154TIP3    H266954   6.557   0.523   4.040 -2.0480  1.3710  0.7828
15155TIP3   OH266955   1.658   2.686  10.519 -0.3107  0.9429 -0.2604
15155TIP3    H166956   1.731   2.630  10.545  1.0930  1.9513 -1.7898
15155TIP3    H266957   1.598   2.628  10.472 -0.7730  0.0140  1.3930
15156TIP3   OH266958   5.060   5.553  14.336  0.1070 -0.0244  0.6485
15156TIP3    H166959   5.027   5.463  14.339 -1.0895  0.4164  1.1141
15156TIP3    H266960   5.106   5.565  14.419  0.2863 -0.2094  0.5769
15157TIP3   OH266961   1.563   1.421  11.782 -0.4218 -0.3410 -0.6630
15157TIP3    H166962   1.594   1.493  11.727 -0.7776 -0.1349 -0.5984
15157TIP3    H266963   1.639   1.365  11.792 -0.5992 -0.9125 -2.1988
15158TIP3   OH266964   4.796   5.249  10.973 -0.1797  0.1360 -0.0077
15158TIP3    H166965   4.813   5.323  10.916  0.1283 -0.1573 -0.2996
15158TIP3    H266966   4.740   5.191  10.922 -1.3383  0.6677  0.6170
15159TIP3   OH266967   0.141   1.469   6.450  0.2127  0.2884 -0.4573
15159TIP3    H166968   0.236   1.477   6.458  0.1024  2.0663 -0.6776
15159TIP3    H266969   0.108   1.486   6.539  0.1100 -1.1193 -0.1961
15160TIP3   OH266970   3.636   2.914   3.504 -0.4825  0.1067  0.5873
15160TIP3    H166971   3.639   2.841   3.565  1.2003 -0.4151 -0.0376
15160TIP3    H266972   3.579   2.884   3.433 -2.1819  0.5924  1.6955
15161TIP3   OH266973   1.374   1.283  14.093 -0.2842  0.1196  0.3139
15161TIP3    H166974   1.303   1.347  14.093 -0.0419  0.4075 -0.6065
15161TIP3    H266975   1.388   1.263  14.000 -0.5908 -1.5488  0.6039
15162TIP3   OH266976   3.599   1.707   3.470 -0.0438 -0.0166  0.3152
15162TIP3    H166977   3.621   1.732   3.560 -1.1354 -0.3141  0.6907
15162TIP3    H266978   3.647   1.625   3.456 -0.0895 -0.1232  0.7454
15163TIP3   OH266979   0.004   3.975   6.743 -1.2339  0.4784  0.0113
15163TIP3    H166980  -0.063   4.018   6.797 -1.1928  0.2086  0.2816
15163TIP3    H266981   0.015   4.033   6.668 -0.3963  1.4908  0.8899
15164TIP3   OH266982   0.394   4.697  11.050 -0.1364 -0.3921 -0.1042
15164TIP3    H166983   0.457   4.625  11.044  0.2150  0.0314 -2.2941
15164TIP3    H266984   0.408   4.748  10.970 -1.2409  1.4121  0.7906
15165TIP3   OH266985   3.859   0.879   4.868 -0.6090 -0.2976  0.0633
15165TIP3    H166986   3.803   0.922   4.803  1.6040 -0.2677 -1.9529
15165TIP3    H266987   3.835   0.787   4.864 -0.0898 -0.3949 -1.3043
15166TIP3   OH266988   6.648   4.420  14.283  0.5133 -0.1145 -0.6551
15166TIP3    H166989   6.570   4.470  14.306  0.4075 -0.5163 -0.1246
15166TIP3    H266990   6.712   4.442  14.350  0.0280 -1.7016  0.4012
15167TIP3   OH266991   2.276   5.199  15.705 -0.0497 -0.2584  0.1011
15167TIP3    H166992   2.351   5.256  15.690 -0.8206  0.3842 -1.5665
15167TIP3    H266993   2.203   5.243  15.662 -0.8181 -2.1948 -0.7149
15168TIP3   OH266994   6.125   3.451   0.324  0.1833 -0.3521  0.3552
15168TIP3    H166995   6.170   3.509   0.385 -0.7385 -0.1033  0.8243
15168TIP3    H266996   6.140   3.491   0.238 -2.8704  2.3776  0.8955
15169TIP3   OH266997   1.002   1.378  16.483  0.3636 -0.1258  0.6543
15169TIP3    H166998   1.005   1.361  16.389  0.7554 -0.3817  0.7115
15169TIP3    H266999   1.082   1.427  16.501  1.7689 -2.4642  1.3074
15170TIP3   OH267000   1.933   6.431   1.769 -0.2555  0.4908  0.7399
15170TIP3    H167001   1.872   6.367   1.807  0.2282  0.0310  0.7516
15170TIP3    H267002   2.020   6.400   1.796  0.0387  0.6709  0.0152
15171TIP3   OH267003   2.471   6.681   1.131 -0.1090  0.2988 -0.5923
15171TIP3    H167004   2.437   6.667   1.043 -0.1149 -0.2808 -0.5014
15171TIP3    H267005   2.493   6.774   1.134  0.5104  0.1902 -1.4306
15172TIP3   OH267006   2.592   2.821   6.759 -0.3206  0.2036  0.0216
15172TIP3    H167007   2.634   2.906   6.751 -0.3172  0.4093  1.7602
15172TIP3    H267008   2.655   2.759   6.724  0.2024  0.7965 -0.1017
15173TIP3   OH267009   4.920   3.828   2.308  0.1554 -0.6278  0.3300
15173TIP3    H167010   4.936   3.919   2.333 -1.0437 -0.3645  0.1699
15173TIP3    H267011   4.931   3.826   2.213 -2.8693  0.0781 -0.1350
15174TIP3   OH267012   3.275   3.693  15.267  0.3218 -0.0605  0.3092
15174TIP3    H167013   3.316   3.646  15.195  2.1453 -0.6910  1.6546
15174TIP3    H267014   3.236   3.624  15.321 -0.4863  0.3464  0.2545
15175TIP3   OH267015   2.610   3.979  13.558  0.2353 -0.0735 -0.6657
15175TIP3    H167016   2.645   3.907  13.506  1.3827 -0.1701  0.1971
15175TIP3    H267017   2.588   4.046  13.494  0.9977 -0.4354 -1.3243
15176TIP3   OH267018   0.685   0.431   1.396  0.1128  0.0883  0.1739
15176TIP3    H167019   0.685   0.342   1.361 -0.5677  0.4964 -0.9228
15176TIP3    H267020   0.597   0.443   1.431  0.4812  0.0323  1.1268
15177TIP3   OH267021   3.698   3.137   4.876 -0.7734  0.3404 -0.1916
15177TIP3    H167022   3.627   3.082   4.844 -2.4548  2.8218 -1.0049
15177TIP3    H267023   3.768   3.127   4.812 -0.5338 -1.7075  0.3263
15178TIP3   OH267024   5.162   4.238  15.007  0.0815  0.4195  0.0066
15178TIP3    H167025   5.175   4.171  15.074  1.0257 -0.4331 -0.9924
15178TIP3    H267026   5.251   4.269  14.988 -0.1708  0.5871 -0.9044
15179TIP3   OH267027   1.923   6.551  13.743 -0.3174  0.3016  0.3213
15179TIP3    H167028   1.908   6.486  13.812 -1.0084  0.1395  0.0259
15179TIP3    H267029   1.996   6.604  13.776 -0.5718  0.1659  1.1342
15180TIP3   OH267030   4.388   5.558   2.340 -0.6062  0.0169 -0.1675
15180TIP3    H167031   4.306   5.510   2.332 -0.5145 -0.1278 -0.2511
15180TIP3    H267032   4.367   5.633   2.394 -0.4847 -0.7447  0.9803
15181TIP3   OH267033   2.153   1.146   4.654 -0.0091 -0.1132  0.5051
15181TIP3    H167034   2.199   1.144   4.738  0.4093  0.0751  0.2815
15181TIP3    H267035   2.085   1.079   4.663  0.3960 -0.4937  0.7901
15182TIP3   OH267036   1.055   6.424  16.562  0.3743 -0.8432  0.2042
15182TIP3    H167037   0.967   6.435  16.526  0.7323  0.3574 -0.3265
15182TIP3    H267038   1.049   6.461  16.650  0.8252  1.1007 -0.5363
15183TIP3   OH267039   4.238   5.340   1.948  0.1290  0.6302 -0.2360
15183TIP3    H167040   4.264   5.249   1.963 -0.5852  0.6200  1.1331
15183TIP3    H267041   4.312   5.392   1.979 -0.5052  0.5536  1.4768
15184TIP3   OH267042   1.670   4.200  12.852 -0.3238  0.1313 -0.5776
15184TIP3    H167043   1.683   4.169  12.762 -1.6478  0.3970 -0.8754
15184TIP3    H267044   1.668   4.295  12.845  2.5002  0.3407  0.1719
15185TIP3   OH267045   2.784   0.916  14.307  0.5280 -0.4086 -0.0894
15185TIP3    H167046   2.698   0.886  14.278  1.1271 -0.4444 -1.9657
15185TIP3    H267047   2.766   0.970  14.384 -1.3657  0.9255 -1.3896
15186TIP3   OH267048   4.006   0.492   2.411  0.4800  0.0869 -0.4921
15186TIP3    H167049   3.924   0.542   2.405 -0.6946 -1.7035 -0.3054
15186TIP3    H267050   4.017   0.453   2.324  1.0591  0.1894 -0.4693
15187TIP3   OH267051   1.728   0.439  14.295  0.3774  0.4860 -0.1542
15187TIP3    H167052   1.798   0.504  14.286  0.8838 -0.0094  0.1138
15187TIP3    H267053   1.699   0.424  14.205 -0.4176  1.7830 -0.1442
15188TIP3   OH267054   0.576   0.909   5.965  0.3068  0.1074  0.1770
15188TIP3    H167055   0.515   0.841   5.938 -1.8780  1.6943  0.8730
15188TIP3    H267056   0.532   0.955   6.036  1.9785  1.8561  0.1768
15189TIP3   OH267057   0.336   6.672   0.921 -0.1309  0.0916  0.8168
15189TIP3    H167058   0.262   6.617   0.898 -0.3540  0.3441  0.9184
15189TIP3    H267059   0.326   6.687   1.015 -0.0086  0.2084  0.8111
15190TIP3   OH267060   2.753   0.366  10.654  0.2734  0.7271  0.1108
15190TIP3    H167061   2.735   0.438  10.715  1.4228  0.9372  0.2329
15190TIP3    H267062   2.830   0.322  10.690  0.9050  0.7717 -1.1101
15191TIP3   OH267063   6.295   2.431  15.594  0.5216 -0.6321 -0.5966
15191TIP3    H167064   6.262   2.509  15.638  1.7742 -0.2910 -0.2363
15191TIP3    H267065   6.280   2.448  15.501  0.6303 -0.0336 -0.5083
15192TIP3   OH267066   3.870   1.193  12.539  0.5193  0.9955  0.3568
15192TIP3    H167067   3.871   1.248  12.617  2.6764  1.2341  0.2343
15192TIP3    H267068   3.953   1.145  12.543 -1.2849 -2.4219  0.5417
15193TIP3   OH267069   4.958   6.731   1.987 -0.2847  0.2252 -0.0729
15193TIP3    H167070   4.903   6.658   2.016  1.3067 -0.9978 -0.0054
15193TIP3    H267071   4.999   6.763   2.066 -1.5062  1.7060 -0.0007
15194TIP3   OH267072   3.490   1.995   4.406 -0.1183  0.1718 -0.1122
15194TIP3    H167073   3.445   2.079   4.397 -0.1423 -0.0265 -2.0937
15194TIP3    H267074   3.551   1.991   4.333 -1.5598 -2.3975 -1.3275
15195TIP3   OH267075   1.129   0.740   0.147 -0.1400 -0.3942  0.0376
15195TIP3    H167076   1.153   0.713   0.058 -1.1229 -0.6009 -0.1790
15195TIP3    H267077   1.206   0.787   0.180  1.7649 -3.5695  0.5121
15196TIP3   OH267078   6.634   5.836   0.203 -0.6773  0.3668  0.3183
15196TIP3    H167079   6.712   5.874   0.162  0.3077 -0.3488  1.4270
15196TIP3    H267080   6.561   5.888   0.171  0.3878  1.7482  0.0694
15197TIP3   OH267081   2.892   4.567   0.429  0.8202  0.1663 -0.1667
15197TIP3    H167082   2.824   4.505   0.402  1.7220 -1.5005  1.1982
15197TIP3    H267083   2.856   4.611   0.506  0.7330  0.3312 -0.3006
15198TIP3   OH267084   5.348   6.675  12.361  0.0463 -0.1004 -0.2816
15198TIP3    H167085   5.349   6.754  12.416 -0.7100 -0.7331  0.6768
15198TIP3    H267086   5.271   6.686  12.305  0.2877  0.1150 -0.5752
15199TIP3   OH267087   4.763   4.191  16.791 -0.5976 -0.2452  0.0970
15199TIP3    H167088   4.828   4.157  16.729  1.8173  0.8232  1.8707
15199TIP3    H267089   4.780   4.143  16.872 -1.1231  0.9985  0.9789
15200TIP3   OH267090   5.784   4.383   4.521 -0.1786 -0.1828  0.1072
15200TIP3    H167091   5.837   4.326   4.577 -1.0218 -0.1075  1.0017
15200TIP3    H267092   5.695   4.348   4.527 -0.1502 -0.7656 -1.9628
15201TIP3   OH267093   3.394   3.655   3.001  0.2865 -0.5066  0.3071
15201TIP3    H167094   3.385   3.737   2.953  0.7823 -0.2763  0.5900
15201TIP3    H267095   3.307   3.616   3.000  0.2133 -0.3388 -0.4707
15202TIP3   OH267096   5.084   2.013  12.075  0.1916  0.0460  0.2766
15202TIP3    H167097   5.008   1.985  12.126  0.0815 -1.6620 -0.7368
15202TIP3    H267098   5.156   2.019  12.138 -0.5375  0.6488  1.0654
15203TIP3   OH267099   1.836   4.807  11.897  0.2169  0.5537 -0.0299
15203TIP3    H167100   1.904   4.804  11.829  0.3976  1.4338  0.0929
15203TIP3    H267101   1.812   4.900  11.902 -0.3786  0.3746  0.5383
15204TIP3   OH267102   0.552   3.536   1.923  0.3394 -0.2890 -0.2347
15204TIP3    H167103   0.636   3.579   1.938  1.2599 -2.7173  2.6092
15204TIP3    H267104   0.488   3.592   1.966  0.8738  0.2966 -0.1826
15205TIP3   OH267105   5.443   3.064  13.264 -0.4359  0.1535 -0.5940
15205TIP3    H167106   5.469   3.127  13.197 -0.6950 -0.2775 -1.1075
15205TIP3    H267107   5.413   2.988  13.215 -1.3293  0.1089 -0.0009
15206TIP3   OH267108   4.397   6.421   3.549 -0.1954  0.0191  0.1777
15206TIP3    H167109   4.413   6.498   3.603  1.9221  1.3909 -2.1954
15206TIP3    H267110   4.478   6.371   3.554 -0.7520 -0.9354 -0.0506
15207TIP3   OH267111   5.157   2.785   4.562  0.3629  0.4200 -0.0199
15207TIP3    H167112   5.233   2.781   4.620  0.5082  1.9139 -0.0646
15207TIP3    H267113   5.187   2.745   4.480  1.4093  1.7678 -0.3306
15208TIP3   OH267114   3.583   3.368   4.944 -0.0355 -0.4685 -0.1524
15208TIP3    H167115   3.521   3.358   4.872 -0.1505  0.4701 -0.1959
15208TIP3    H267116   3.644   3.295   4.933 -1.8239 -2.1619  0.6354
15209TIP3   OH267117   4.433   0.487  12.390 -0.1224 -0.3175  0.6444
15209TIP3    H167118   4.521   0.450  12.395 -0.2743 -0.9821 -0.9286
15209TIP3    H267119   4.383   0.424  12.338 -1.0390  0.9284 -0.0377
15210TIP3   OH267120   2.221   2.565   6.383 -0.2100 -0.9150  0.0304
15210TIP3    H167121   2.231   2.482   6.336 -0.0915 -0.8461 -0.0681
15210TIP3    H267122   2.311   2.589   6.408 -0.3532 -1.4432  1.1393
15211TIP3   OH267123   2.832   3.822  12.802 -0.2727 -1.0855  0.4569
15211TIP3    H167124   2.901   3.782  12.750 -1.0036 -2.7084  0.6612
15211TIP3    H267125   2.806   3.900  12.753  0.9932 -1.0197 -0.1304
15212TIP3   OH267126   3.523   4.327   4.559 -0.3392 -0.0240  0.5520
15212TIP3    H167127   3.442   4.363   4.523 -1.1094 -1.3097  0.9374
15212TIP3    H267128   3.498   4.241   4.593  1.3169 -0.7129  0.1225
15213TIP3   OH267129   2.033   2.301   1.067 -0.2316  0.1374 -0.1217
15213TIP3    H167130   1.954   2.285   1.118  1.0881  0.8629  2.3028
15213TIP3    H267131   2.085   2.221   1.076 -0.5499 -0.2474 -1.5017
15214TIP3   OH267132   0.133   5.139   2.854 -0.4858 -0.2384 -0.2812
15214TIP3    H167133   0.194   5.209   2.831 -0.6929 -0.4645 -1.5429
15214TIP3    H267134   0.099   5.107   2.771 -1.4504 -0.9104  0.3468
15215TIP3   OH267135   3.301   5.312  10.679  0.0395  0.3753  0.2681
15215TIP3    H167136   3.356   5.351  10.611 -2.9600  0.0718 -2.5589
15215TIP3    H267137   3.248   5.385  10.711 -0.6161 -0.0313  0.1220
15216TIP3   OH267138   3.112   6.009   5.435 -0.6023  0.3825 -0.3216
15216TIP3    H167139   3.123   6.105   5.433  0.4541  0.2713 -1.3218
15216TIP3    H267140   3.194   5.977   5.474 -0.2024 -0.1870 -1.5862
15217TIP3   OH267141   5.851   1.712  15.830 -0.0860 -0.4709  0.2569
15217TIP3    H167142   5.770   1.672  15.864 -0.6194 -1.1464 -1.6563
15217TIP3    H267143   5.820   1.786  15.779  0.6557  0.2543  0.8436
15218TIP3   OH267144   1.143   6.633   3.644  0.6267 -0.0820  0.5336
15218TIP3    H167145   1.048   6.643   3.639  0.4934  0.0694  2.4387
15218TIP3    H267146   1.156   6.542   3.674  1.0822 -0.1078  0.2719
15219TIP3   OH267147   5.945   6.663  11.880 -0.3762 -0.6587  0.2321
15219TIP3    H167148   5.993   6.744  11.864 -2.7788  0.8208  0.0998
15219TIP3    H267149   6.013   6.597  11.896  1.6449  1.7892  2.4774
15220TIP3   OH267150   4.265   5.344  13.564 -0.5937 -0.5879  0.0448
15220TIP3    H167151   4.302   5.256  13.555 -0.2684 -0.4992  0.4907
15220TIP3    H267152   4.332   5.394  13.611 -1.0251 -0.2589  0.3131
15221TIP3   OH267153   1.249   6.517  16.401 -0.3213 -0.0050 -0.3398
15221TIP3    H167154   1.321   6.458  16.421  0.3880  0.0605 -2.4516
15221TIP3    H267155   1.173   6.477  16.443  0.6266 -0.9795  0.5097
15222TIP3   OH267156   3.409   1.002   5.697  0.8628 -0.2619 -0.0028
15222TIP3    H167157   3.453   0.999   5.612  0.4522  2.1350 -0.3485
15222TIP3    H267158   3.325   0.958   5.681  0.6769  0.3964 -0.9202
15223TIP3   OH267159   4.302   3.369  14.040 -0.4086  0.1470 -0.1902
15223TIP3    H167160   4.393   3.350  14.063 -0.7017 -1.8052 -0.4428
15223TIP3    H267161   4.289   3.460  14.066  1.0939 -0.0691  1.5612
15224TIP3   OH267162   5.398   3.618   2.130  0.0378 -0.5448  0.5144
15224TIP3    H167163   5.454   3.695   2.133 -0.5571 -0.1085  0.5730
15224TIP3    H267164   5.320   3.643   2.178 -1.8749  0.2130 -2.6956
15225TIP3   OH267165   3.784   5.221  13.828 -0.8716 -0.6613  0.0569
15225TIP3    H167166   3.728   5.297  13.846 -1.2317 -0.7295 -0.7186
15225TIP3    H267167   3.837   5.248  13.753  0.3492 -0.5043  0.9376
15226TIP3   OH267168   2.483   4.866   0.290  0.4709  0.4565 -0.1158
15226TIP3    H167169   2.509   4.926   0.220 -0.5059 -1.1130 -1.9122
15226TIP3    H267170   2.536   4.787   0.275  0.2897  0.1133  0.9688
15227TIP3   OH267171   3.356   6.187  16.886 -0.0985  0.3264 -0.1841
15227TIP3    H167172   3.437   6.145  16.915 -0.9595 -1.3215 -0.0096
15227TIP3    H267173   3.381   6.277  16.866  1.9409 -0.3508 -0.9650
15228TIP3   OH267174   6.601   2.665  15.351 -0.1505 -1.1014 -0.0490
15228TIP3    H167175   6.604   2.627  15.439 -0.2891 -2.6265 -0.6616
15228TIP3    H267176   6.671   2.619  15.304  0.7460  0.5749 -0.4312
15229TIP3   OH267177   4.526   4.421  15.995 -0.1331 -0.0157 -0.8355
15229TIP3    H167178   4.597   4.483  15.980 -1.0717  0.9041 -1.6154
15229TIP3    H267179   4.570   4.338  16.013  1.2444  1.2490  2.3872
15230TIP3   OH267180   3.868   2.719  16.148  0.2338  0.7851  0.7128
15230TIP3    H167181   3.851   2.812  16.159  0.6869  1.0408 -0.6094
15230TIP3    H267182   3.821   2.678  16.221 -0.3631  1.9977  1.0478
15231TIP3   OH267183   0.534   0.700   0.780  0.0258 -0.0702 -0.0178
15231TIP3    H167184   0.622   0.739   0.781 -0.1957  0.4223  0.5777
15231TIP3    H267185   0.535   0.637   0.852 -0.7023  1.3055  1.2526
15232TIP3   OH267186   1.824   5.044   5.625  0.2489 -0.2684 -0.2300
15232TIP3    H167187   1.816   5.130   5.584  1.0229 -0.2977 -0.4539
15232TIP3    H267188   1.914   5.017   5.608 -0.1515 -1.3793 -0.6602
15233TIP3   OH267189   3.275   1.719  14.596 -0.1767 -0.8509 -0.6520
15233TIP3    H167190   3.249   1.630  14.574 -0.8160 -1.1783  1.2341
15233TIP3    H267191   3.319   1.711  14.681 -1.2787  0.7342  0.1351
15234TIP3   OH267192   1.159   2.663  11.058 -0.0077  0.2169  0.4631
15234TIP3    H167193   1.172   2.749  11.098 -0.1922  0.4716 -0.0222
15234TIP3    H267194   1.081   2.673  11.003 -0.6187 -0.5193  1.1486
15235TIP3   OH267195   0.153   1.212  12.105 -0.0843 -0.1871  0.2280
15235TIP3    H167196   0.065   1.174  12.113 -1.2265  1.8595 -1.5621
15235TIP3    H267197   0.151   1.290  12.159  1.0524 -0.6907  1.0406
15236TIP3   OH267198   6.685   1.655  12.616 -0.2084  0.1011  0.6523
15236TIP3    H167199   6.715   1.565  12.625 -1.8739 -0.3333  2.6661
15236TIP3    H267200   6.650   1.660  12.526  2.8813 -0.2004 -0.6776
15237TIP3   OH267201   4.962   6.747   5.117 -0.0938 -0.1955  0.4025
15237TIP3    H167202   4.905   6.820   5.143  0.6124  1.0675 -1.3652
15237TIP3    H267203   5.042   6.760   5.169 -0.6170 -0.7779  1.3855
15238TIP3   OH267204   0.654   6.745  16.222 -0.6694 -0.3122  0.2047
15238TIP3    H167205   0.566   6.731  16.256 -1.6680  1.0054 -1.6922
15238TIP3    H267206   0.653   6.833  16.184  1.0829 -0.7155 -0.9426
15239TIP3   OH267207   3.336   2.214  16.795  0.7592  0.2769 -0.3839
15239TIP3    H167208   3.334   2.241  16.703  2.1010 -0.5851 -0.6889
15239TIP3    H267209   3.260   2.258  16.834  0.5001  1.1221 -1.7633
15240TIP3   OH267210   2.078   5.444   2.033 -0.0359  0.4948 -0.0911
15240TIP3    H167211   2.039   5.358   2.049  1.1606  0.1049  0.8943
15240TIP3    H267212   2.154   5.426   1.979 -1.1064  1.2374 -1.9328
15241TIP3   OH267213   5.841   6.093  15.212 -0.5224  0.8853 -0.1442
15241TIP3    H167214   5.765   6.142  15.183 -0.1459  2.6206  1.5994
15241TIP3    H267215   5.916   6.147  15.186  0.0001  0.2979  0.1102
15242TIP3   OH267216   5.050   1.422  14.820 -0.2188 -0.2883 -0.5114
15242TIP3    H167217   5.124   1.469  14.861  0.0149 -0.7955 -0.3384
15242TIP3    H267218   4.983   1.489  14.807  0.1822  0.1309 -0.4407
15243TIP3   OH267219   2.396   2.324   4.555  0.2042 -0.0322 -0.3585
15243TIP3    H167220   2.360   2.406   4.589  1.2684  0.6403 -0.8161
15243TIP3    H267221   2.366   2.320   4.464  0.4165  0.0181 -0.4325
15244TIP3   OH267222   0.602   6.307   4.335 -0.2079 -0.0882  0.0559
15244TIP3    H167223   0.541   6.378   4.354 -0.0767 -0.2395  1.0929
15244TIP3    H267224   0.686   6.351   4.318 -0.1631  0.0183  0.5431
15245TIP3   OH267225   4.522   1.437   0.462  0.0871  0.2806 -0.1332
15245TIP3    H167226   4.440   1.485   0.475 -1.5267 -1.6157 -2.4376
15245TIP3    H267227   4.540   1.444   0.369 -0.1488 -3.2240 -0.5918
15246TIP3   OH267228   1.387   2.185  15.686  0.7815 -0.2586  0.0496
15246TIP3    H167229   1.318   2.120  15.700  1.1260 -1.2403 -2.3363
15246TIP3    H267230   1.379   2.209  15.594  1.7291  1.8938  0.4634
15247TIP3   OH267231   2.210   6.501   0.495 -0.1797 -0.5030  0.0595
15247TIP3    H167232   2.254   6.469   0.574  0.7187  0.9885  0.2218
15247TIP3    H267233   2.117   6.486   0.511  0.0690 -1.1996  0.9366
15248TIP3   OH267234   0.487   0.082  15.020 -0.6516 -0.1710  0.0600
15248TIP3    H167235   0.434   0.062  15.097 -0.1458  2.3484  1.1832
15248TIP3    H267236   0.433   0.058  14.945 -2.2344 -0.2497  1.1896
15249TIP3   OH267237   4.844   5.113   5.664  0.0354 -0.0135  0.7729
15249TIP3    H167238   4.860   5.025   5.697  0.8240 -0.1034  0.1923
15249TIP3    H267239   4.888   5.171   5.727 -1.0451  0.0212  1.5167
15250TIP3   OH267240   0.166   5.510  16.272 -0.6269 -0.5602  0.3115
15250TIP3    H167241   0.170   5.548  16.360  0.8330 -0.6906  0.3228
15250TIP3    H267242   0.166   5.415  16.287 -0.3381 -0.5821  0.1697
15251TIP3   OH267243   1.485   3.228   5.902 -0.0705  0.7415  0.5580
15251TIP3    H167244   1.564   3.180   5.876 -0.6044 -0.3531  0.8932
15251TIP3    H267245   1.413   3.173   5.873 -0.7103 -0.1503  3.4797
15252TIP3   OH267246   6.248   1.191  13.707 -0.1186 -0.0749 -0.2260
15252TIP3    H167247   6.263   1.228  13.620  2.1430  0.0152  0.1355
15252TIP3    H267248   6.168   1.233  13.737 -0.7106  0.2154 -2.0803
15253TIP3   OH267249   3.888   0.973   1.691  0.4807  0.5654 -0.3898
15253TIP3    H167250   3.855   1.050   1.736  1.5263  0.3564  0.7987
15253TIP3    H267251   3.882   0.994   1.598  2.2084  2.7527 -0.0941
15254TIP3   OH267252   6.476   1.158  13.379 -0.0785 -0.0070  0.0235
15254TIP3    H167253   6.401   1.131  13.326 -0.2723  1.0337 -0.2584
15254TIP3    H267254   6.467   1.253  13.386  1.6376  0.2497 -0.6924
15255TIP3   OH267255   5.958   2.517  13.372 -0.0588 -0.0893 -0.4226
15255TIP3    H167256   6.013   2.579  13.324  0.7047  1.1342  1.8804
15255TIP3    H267257   6.016   2.444  13.393 -0.0058  0.0225 -0.1767
15256TIP3   OH267258   4.266   0.125  11.980 -0.4022 -0.4688 -0.4216
15256TIP3    H167259   4.352   0.103  11.942 -0.4326  0.5890 -1.1600
15256TIP3    H267260   4.206   0.062  11.940 -0.1097 -0.6439 -0.5941
15257TIP3   OH267261   0.530   3.149   5.094 -0.5786 -0.1386 -0.2498
15257TIP3    H167262   0.500   3.098   5.169 -0.0677 -0.9182 -0.5668
15257TIP3    H267263   0.573   3.225   5.133 -1.2962  0.0362  0.2253
15258TIP3   OH267264   4.139   5.336   3.582  0.1676 -0.9054 -0.1665
15258TIP3    H167265   4.097   5.421   3.594 -1.0700 -1.5293  0.0441
15258TIP3    H267266   4.178   5.316   3.667  0.0080 -0.7865 -0.0651
15259TIP3   OH267267   5.601   2.372  11.827 -0.3443 -0.4830 -0.1421
15259TIP3    H167268   5.571   2.416  11.907  0.8866 -1.3710  0.8458
15259TIP3    H267269   5.650   2.296  11.858  1.5428  0.0339 -1.6942
15260TIP3   OH267270   1.577   0.105   1.776 -0.7169 -0.1202  0.2891
15260TIP3    H167271   1.528   0.061   1.706 -0.2425 -1.4922  0.7874
15260TIP3    H267272   1.514   0.115   1.847 -0.8340  0.0417  0.1637
15261TIP3   OH267273   0.511   2.891  16.572 -0.2357  0.4192 -0.0691
15261TIP3    H167274   0.429   2.877  16.526 -0.2832 -0.0381  0.1549
15261TIP3    H267275   0.491   2.874  16.664  0.2618 -0.3593 -0.0934
15262TIP3   OH267276   1.371   2.175   4.710  0.2733  0.2782  0.4435
15262TIP3    H167277   1.379   2.270   4.718  2.9354  0.3643 -1.7573
15262TIP3    H267278   1.407   2.141   4.792  3.5863  1.2280 -0.4713
15263TIP3   OH267279   1.221   1.426   1.661  0.3044  0.1087  0.4256
15263TIP3    H167280   1.219   1.520   1.648  0.9168  0.1808  0.8010
15263TIP3    H267281   1.185   1.389   1.580 -1.6232  0.6943  0.9557
15264TIP3   OH267282   0.297   2.093  15.910 -0.1642  0.6692 -0.2147
15264TIP3    H167283   0.373   2.063  15.861  0.6044  1.0532  0.7129
15264TIP3    H267284   0.286   2.185  15.885 -0.3381  0.6100 -0.3595
15265TIP3   OH267285   0.630   4.580  11.298 -0.2680 -0.2517  0.1331
15265TIP3    H167286   0.714   4.544  11.328 -0.3397 -1.4786 -1.0360
15265TIP3    H267287   0.654   4.658  11.249  0.2532 -0.8466 -0.5925
15266TIP3   OH267288   0.654   3.077  12.362  0.1538 -0.2545  0.6715
15266TIP3    H167289   0.651   3.010  12.430  1.9517 -1.3758 -0.2647
15266TIP3    H267290   0.740   3.118  12.372 -1.6878  3.5289  2.5878
15267TIP3   OH267291   4.672   1.532  14.836  0.4953 -0.0651 -0.0245
15267TIP3    H167292   4.653   1.449  14.792  1.8307  0.3395 -1.4477
15267TIP3    H267293   4.733   1.577  14.777 -0.1319  1.9001  0.7599
15268TIP3   OH267294   5.378   5.016   6.720  0.2958 -0.1987 -0.6217
15268TIP3    H167295   5.285   4.994   6.716  0.2876 -0.1737 -0.5750
15268TIP3    H267296   5.383   5.109   6.698  0.2349 -0.0299  0.0572
15269TIP3   OH267297   1.772   2.554  16.985 -0.6195  0.0976  0.7678
15269TIP3    H167298   1.744   2.592  16.901  0.6071  0.9132  0.7192
15269TIP3    H267299   1.754   2.460  16.975  0.9095 -0.0637 -1.0183
15270TIP3   OH267300   4.223   5.039   0.850 -0.3557  0.2185  0.2499
15270TIP3    H167301   4.187   5.113   0.900 -2.7695  0.0852 -1.1379
15270TIP3    H267302   4.150   5.008   0.797  0.6366 -3.0476  0.5683
15271TIP3   OH267303   6.689   3.915  12.337 -0.4776  0.3444  0.1900
15271TIP3    H167304   6.754   3.907  12.267 -0.2015  1.6337  0.2773
15271TIP3    H267305   6.605   3.908  12.292 -0.3051  1.4271 -0.3165
15272TIP3   OH267306   5.670   2.256  15.835 -0.2488 -0.0221 -0.0210
15272TIP3    H167307   5.606   2.189  15.812 -1.5624  1.5870 -1.2591
15272TIP3    H267308   5.624   2.313  15.896  0.3885  0.5269 -0.0455
15273TIP3   OH267309   2.121   3.594   0.886  0.3581 -0.6356  0.1656
15273TIP3    H167310   2.039   3.546   0.868  1.1096 -2.0088  0.2384
15273TIP3    H267311   2.190   3.530   0.869  1.4625  0.7005 -0.5388
15274TIP3   OH267312   0.533   2.021   0.352  0.3189  0.8752 -0.9861
15274TIP3    H167313   0.598   2.077   0.309  1.2878  0.1220 -0.5520
15274TIP3    H267314   0.493   1.971   0.281 -0.3355  1.8910 -1.3407
15275TIP3   OH267315   1.794   6.370   5.829  0.4297  0.1232 -0.1686
15275TIP3    H167316   1.776   6.460   5.803  0.7270  0.0799 -0.5384
15275TIP3    H267317   1.729   6.318   5.782 -0.6102  0.2501  1.0782
15276TIP3   OH267318   0.336   5.573   3.962  0.0861  0.0606 -0.3331
15276TIP3    H167319   0.286   5.538   3.888  0.1117  0.7525 -0.6885
15276TIP3    H267320   0.278   5.564   4.037 -1.4674  2.7013 -1.0622
15277TIP3   OH267321   6.775   5.808   3.174 -0.1734 -0.0184  0.0165
15277TIP3    H167322   6.811   5.773   3.092  0.1778  4.7686 -2.2498
15277TIP3    H267323   6.850   5.813   3.233  0.4530 -0.0038 -0.7630
15278TIP3   OH267324   6.809   6.528  15.475  0.7774  0.2121  0.2384
15278TIP3    H167325   6.856   6.505  15.555 -1.3646  0.7785  1.7355
15278TIP3    H267326   6.737   6.584  15.504 -0.1304  0.3657 -2.0820
15279TIP3   OH267327   3.985   5.635   2.740  0.4023  0.1663 -0.1350
15279TIP3    H167328   3.956   5.683   2.818  0.4676 -0.4185  0.2610
15279TIP3    H267329   4.076   5.661   2.728  0.3246  0.4330 -0.1537
15280TIP3   OH267330   1.586   3.752   2.949 -0.2539 -0.5926  0.3603
15280TIP3    H167331   1.559   3.703   2.872  0.5223  0.2289 -0.4546
15280TIP3    H267332   1.562   3.843   2.931 -0.5426 -0.4629  1.3137
15281TIP3   OH267333   4.208   0.662  15.821  0.5353 -0.3399 -0.5120
15281TIP3    H167334   4.213   0.681  15.727 -1.5246 -0.7139 -0.7552
15281TIP3    H267335   4.218   0.567  15.827  2.1172 -0.1711 -0.1813
15282TIP3   OH267336   4.776   1.752  12.097  0.3088 -0.4077 -0.0731
15282TIP3    H167337   4.689   1.718  12.121  0.3468 -0.1301  0.4653
15282TIP3    H267338   4.795   1.818  12.164  2.7122 -3.2973  2.3897
15283TIP3   OH267339   0.725   3.194   1.712 -0.4683  0.1329  0.1818
15283TIP3    H167340   0.772   3.132   1.767 -1.6199 -0.6217  0.3459
15283TIP3    H267341   0.777   3.200   1.632 -0.2926 -0.9696  0.2021
15284TIP3   OH267342   5.490   4.006   3.993 -0.3186 -0.2952 -0.2864
15284TIP3    H167343   5.535   4.088   3.970  0.4820 -0.5900  0.2095
15284TIP3    H267344   5.547   3.964   4.057 -0.3263 -1.6213 -1.1106
15285TIP3   OH267345   4.111   2.854  12.042 -0.4876  0.2402  0.1098
15285TIP3    H167346   4.145   2.927  11.989 -1.6641  0.0776 -0.9236
15285TIP3    H267347   4.138   2.875  12.131  1.8456  0.3661 -0.5584
15286TIP3   OH267348   4.632   4.718   0.196 -0.3259 -0.2941  0.2284
15286TIP3    H167349   4.681   4.665   0.134 -0.1098 -0.2452  0.3564
15286TIP3    H267350   4.658   4.685   0.282 -0.6264 -0.3654  0.2936
15287TIP3   OH267351   0.924   6.652   3.150  0.0424 -0.5215  0.0172
15287TIP3    H167352   0.978   6.683   3.222 -0.4219  0.1765  0.0726
15287TIP3    H267353   0.976   6.583   3.108  1.3123  0.6503 -0.3964
15288TIP3   OH267354   1.276   2.066   3.121  0.4520 -0.3486 -0.0808
15288TIP3    H167355   1.360   2.078   3.075  0.2666  0.5498 -0.1898
15288TIP3    H267356   1.284   2.120   3.199  0.2308 -0.8006  0.2526
15289TIP3   OH267357   0.151   6.118   4.126 -0.0982 -0.5113  0.0144
15289TIP3    H167358   0.107   6.049   4.175  0.2240 -0.8300 -0.1435
15289TIP3    H267359   0.159   6.190   4.189 -2.9560  0.4857 -0.5882
15290TIP3   OH267360   4.451   4.635  12.359 -0.3737 -0.3059 -0.5245
15290TIP3    H167361   4.503   4.710  12.331 -0.8735 -0.2555 -1.3240
15290TIP3    H267362   4.493   4.560  12.317  1.8792 -0.9456  2.4422
15291TIP3   OH267363   4.698   5.278  14.471  0.0205 -0.1938  0.5812
15291TIP3    H167364   4.671   5.366  14.497  1.2479  0.9528 -1.7493
15291TIP3    H267365   4.626   5.246  14.415  1.2090  0.9809 -1.7692
15292TIP3   OH267366   5.384   5.379   1.166  0.1087 -0.8247  0.4093
15292TIP3    H167367   5.384   5.457   1.109  0.0936 -0.9089  0.2931
15292TIP3    H267368   5.380   5.305   1.105  1.2716 -0.9571  0.4532
15293TIP3   OH267369   6.041   5.986   0.896  0.4058  0.1955 -0.4742
15293TIP3    H167370   6.132   6.009   0.913  1.5985 -2.2440 -2.8988
15293TIP3    H267371   6.029   5.902   0.939 -1.2829  1.1858  1.1561
15294TIP3   OH267372   6.251   6.607  12.639  0.2374 -0.1576  0.2765
15294TIP3    H167373   6.246   6.559  12.557 -0.7037 -0.8004  0.6985
15294TIP3    H267374   6.296   6.547  12.699 -2.3298 -1.2124  1.2529
15295TIP3   OH267375   4.754   4.703   4.774 -0.1571  0.1373  0.0094
15295TIP3    H167376   4.705   4.732   4.851 -0.5276 -0.5266  0.0273
15295TIP3    H267377   4.800   4.782   4.745  0.4021  0.2785  1.2047
15296TIP3   OH267378   3.326   5.888  17.044 -0.0318 -0.5628  0.4004
15296TIP3    H167379   3.268   5.932  16.982 -0.2888 -1.2856  0.1095
15296TIP3    H267380   3.403   5.864  16.992 -0.4475 -1.5885  0.2223
15297TIP3   OH267381   4.312   4.956  10.235 -0.4114 -0.2567  0.0177
15297TIP3    H167382   4.373   4.892  10.274  2.0623  2.2064  0.4692
15297TIP3    H267383   4.239   4.902  10.203  0.7698 -3.1347  1.7261
15298TIP3   OH267384   3.345   4.348  12.040 -0.1219 -0.3492 -0.2847
15298TIP3    H167385   3.403   4.354  12.116 -2.1289 -1.1938  1.4302
15298TIP3    H267386   3.367   4.264  11.999 -2.3470 -2.5030  2.4789
15299TIP3   OH267387   1.038   0.953   2.827  0.4668  0.6565 -0.2876
15299TIP3    H167388   1.012   0.894   2.897  1.5393  0.7026  0.1638
15299TIP3    H267389   0.956   0.991   2.796 -0.2301 -0.9633 -0.5168
15300TIP3   OH267390   0.694   6.503   3.679  0.1411  0.2873  0.1513
15300TIP3    H167391   0.724   6.421   3.640  0.1996 -0.0877  0.9698
15300TIP3    H267392   0.605   6.485   3.708  0.7766 -0.0653  1.9718
15301TIP3   OH267393   2.724   1.742  11.674  0.0060 -0.1163  0.3661
15301TIP3    H167394   2.652   1.805  11.668  0.4427  0.6866  2.4200
15301TIP3    H267395   2.721   1.711  11.765  0.4841 -2.2802 -0.2859
15302TIP3   OH267396   5.264   2.048   1.508 -0.1193  0.3934 -0.6835
15302TIP3    H167397   5.205   2.104   1.457  0.4846  0.1742 -1.6585
15302TIP3    H267398   5.295   2.105   1.579 -3.0740 -0.0799  1.1562
15303TIP3   OH267399   3.799   6.462  16.859 -0.0169 -0.5868 -0.1777
15303TIP3    H167400   3.711   6.431  16.881  0.1032 -1.8110 -1.2910
15303TIP3    H267401   3.784   6.536  16.801 -0.3701 -1.5883 -1.4303
15304TIP3   OH267402   1.743   2.530  11.894  0.3856 -0.2688 -0.2646
15304TIP3    H167403   1.781   2.442  11.905 -0.6634 -0.6211  0.6979
15304TIP3    H267404   1.683   2.521  11.820  0.0783 -0.4440  0.0018
15305TIP3   OH267405   1.394   0.588  16.200 -0.0331 -0.2095 -0.1050
15305TIP3    H167406   1.476   0.571  16.154 -0.6008 -0.2181 -1.1508
15305TIP3    H267407   1.411   0.562  16.290  0.5052 -2.1292 -0.7206
15306TIP3   OH267408   0.577   4.962  10.925 -0.7311  0.3492 -0.4819
15306TIP3    H167409   0.518   5.018  10.975 -0.7675  0.2837 -0.4517
15306TIP3    H267410   0.578   5.001  10.837 -1.7095 -0.3135 -0.7997
15307TIP3   OH267411   5.888   1.746   3.675  0.3603 -0.3114 -0.3212
15307TIP3    H167412   5.906   1.810   3.605 -0.0594 -1.5404 -1.6004
15307TIP3    H267413   5.905   1.661   3.634 -1.1867 -1.1390  0.6762
15308TIP3   OH267414   0.597   0.502  15.069  0.1559 -0.1135  0.6453
15308TIP3    H167415   0.502   0.498  15.062  0.2889 -3.3749 -1.6618
15308TIP3    H267416   0.620   0.428  15.126  1.3392 -0.2094  0.0746
15309TIP3   OH267417   1.713   0.871  16.966 -0.0810 -0.3335  0.2041
15309TIP3    H167418   1.742   0.842  16.880 -0.9400 -0.9616  0.1105
15309TIP3    H267419   1.748   0.959  16.975 -0.8704  0.1625 -1.2492
15310TIP3   OH267420   1.169   5.345  16.540  0.4005  0.0580 -0.0771
15310TIP3    H167421   1.262   5.345  16.515  0.4034  1.3502 -0.1269
15310TIP3    H267422   1.164   5.282  16.612  0.8663 -1.8094 -1.5806
15311TIP3   OH267423   6.264   1.861  16.452  0.6236 -0.2315 -0.4798
15311TIP3    H167424   6.231   1.801  16.385  1.0961 -0.6701 -0.3288
15311TIP3    H267425   6.343   1.819  16.484 -0.6280 -1.0582  1.7556
15312TIP3   OH267426   6.726   4.290  12.142 -0.1798  0.3915  0.0700
15312TIP3    H167427   6.669   4.238  12.199  2.1419 -0.0073  2.1935
15312TIP3    H267428   6.750   4.230  12.072 -0.1193 -0.3665  0.7226
15313TIP3   OH267429   0.717   2.507   2.765 -0.2984 -0.1119  0.1264
15313TIP3    H167430   0.794   2.463   2.729 -1.5144 -1.7146 -0.6895
15313TIP3    H267431   0.747   2.595   2.787  1.5430 -0.4119 -0.9644
15314TIP3   OH267432   5.166   1.376   1.026  0.1225 -0.4427 -0.5832
15314TIP3    H167433   5.147   1.295   1.073 -1.7115  0.2926  0.0457
15314TIP3    H267434   5.088   1.392   0.972 -1.1652  2.5739  1.8474
15315TIP3   OH267435   4.128   0.543   1.189  1.0726 -0.5636 -0.2622
15315TIP3    H167436   4.058   0.570   1.249  0.8249  3.0880 -1.9861
15315TIP3    H267437   4.206   0.538   1.244  0.6020  1.4362  0.6756
15316TIP3   OH267438   0.384   3.975   5.717 -0.5260  0.3800  0.0178
15316TIP3    H167439   0.307   3.943   5.764 -0.0307 -1.1578 -0.1632
15316TIP3    H267440   0.454   3.914   5.741  0.2304  0.7672 -1.1273
15317TIP3   OH267441   4.140   3.409  17.239  0.7822 -0.2197  0.3112
15317TIP3    H167442   4.089   3.372  17.167 -0.6260  2.4590 -0.2208
15317TIP3    H267443   4.226   3.369  17.231  0.2265 -1.1060 -1.9636
15318TIP3   OH267444   5.869   5.736   1.220  0.2994  0.1615 -0.4044
15318TIP3    H167445   5.945   5.741   1.162  0.2550 -0.6093 -0.5514
15318TIP3    H267446   5.906   5.731   1.308  0.3645  1.4251 -0.3546
15319TIP3   OH267447   4.678   0.849  12.628 -0.8203  0.3951 -0.5945
15319TIP3    H167448   4.587   0.822  12.636 -0.5795  0.0723  1.4868
15319TIP3    H267449   4.728   0.768  12.639 -0.1992  1.0737  2.8079
15320TIP3   OH267450   0.027   5.727  16.562 -0.1946  0.0984 -0.3329
15320TIP3    H167451   0.116   5.698  16.542 -0.0318  0.7114 -0.5183
15320TIP3    H267452   0.023   5.818  16.531 -0.2405  0.7633  1.4768
15321TIP3   OH267453   0.231   6.761  14.022 -0.0423 -0.1502 -0.4260
15321TIP3    H167454   0.288   6.688  13.999  0.7271  0.1883  0.3648
15321TIP3    H267455   0.244   6.825  13.951 -1.0570 -0.9364 -1.3589
15322TIP3   OH267456   5.320   4.741  14.264 -0.8929  0.2772  0.5024
15322TIP3    H167457   5.413   4.728  14.282 -0.8201 -1.8637 -1.0686
15322TIP3    H267458   5.276   4.687  14.330 -0.9784  0.1608  0.3484
15323TIP3   OH267459   6.641   1.383   4.306 -0.2489  0.1494 -0.3212
15323TIP3    H167460   6.714   1.406   4.249 -1.0560  0.1711 -1.3562
15323TIP3    H267461   6.566   1.375   4.248 -0.5455 -2.6192  0.3103
15324TIP3   OH267462   2.911   4.494   3.404 -0.1040  0.2132  0.0378
15324TIP3    H167463   2.961   4.464   3.329 -0.5894  1.2970 -0.7367
15324TIP3    H267464   2.973   4.494   3.477  0.3023 -1.1009 -0.2883
15325TIP3   OH267465   5.187   4.048   4.014 -0.1370 -0.3467  0.5544
15325TIP3    H167466   5.232   3.966   3.995 -0.2952 -0.3065  0.0071
15325TIP3    H267467   5.234   4.083   4.090 -0.7738 -1.4790  1.4925
15326TIP3   OH267468   4.736   4.308  16.535 -0.0777  0.7313  0.2552
15326TIP3    H167469   4.803   4.312  16.467  1.3339  1.4845  1.6148
15326TIP3    H267470   4.786   4.304  16.617 -1.6851 -2.0615  1.2150
15327TIP3   OH267471   1.119   5.993  14.709  0.1238 -0.0865  0.5133
15327TIP3    H167472   1.082   5.961  14.791 -1.2162  0.3422  0.0955
15327TIP3    H267473   1.080   6.080  14.697 -0.4022 -0.5172 -1.0238
15328TIP3   OH267474   3.540   0.818   1.212  0.3071  0.1337 -0.3138
15328TIP3    H167475   3.577   0.773   1.287 -0.8202  1.0890  0.8572
15328TIP3    H267476   3.553   0.911   1.231 -1.3856  0.4505 -0.5218
15329TIP3   OH267477   3.884   6.119   5.150  0.1843  0.0119  0.2251
15329TIP3    H167478   3.884   6.024   5.157 -0.1542 -0.0328 -0.3499
15329TIP3    H267479   3.804   6.147   5.193  0.1767  0.0234  0.2035
15330TIP3   OH267480   2.359   6.499  16.990  0.3031  0.1174  0.5978
15330TIP3    H167481   2.377   6.413  16.952 -0.2573  0.6741 -1.0249
15330TIP3    H267482   2.267   6.515  16.969  0.9401  2.0130 -1.0926
15331TIP3   OH267483   0.056   5.677   4.762  0.2917  0.0807 -0.2201
15331TIP3    H167484   0.022   5.627   4.687 -0.3115 -0.1262  0.1825
15331TIP3    H267485   0.128   5.728   4.726  0.4993 -0.5869 -0.7863
15332TIP3   OH267486   0.560   6.372  14.453 -0.1952 -0.4210 -0.0698
15332TIP3    H167487   0.651   6.353  14.475 -0.6974 -2.4409  0.5142
15332TIP3    H267488   0.528   6.291  14.412 -2.0141 -0.1535  0.7300
15333TIP3   OH267489   5.728   2.247   0.678  0.2839  0.3762 -0.3408
15333TIP3    H167490   5.667   2.263   0.750  0.5212  0.1115 -0.0760
15333TIP3    H267491   5.806   2.213   0.721  0.1083 -0.6373 -0.7898
15334TIP3   OH267492   2.359   6.695   0.883 -0.1462 -0.8851  0.0040
15334TIP3    H167493   2.392   6.631   0.821 -1.8678  0.4015 -2.4419
15334TIP3    H267494   2.276   6.659   0.913 -0.5424 -0.3852 -0.4603
15335TIP3   OH267495   0.664   4.787  13.716  0.0711 -0.2215 -0.4146
15335TIP3    H167496   0.625   4.865  13.677  1.3415  0.6272 -0.0107
15335TIP3    H267497   0.688   4.733  13.640 -0.3886 -0.0366 -0.7008
15336TIP3   OH267498   3.558   5.160   4.834  0.3971 -0.2035  0.3964
15336TIP3    H167499   3.523   5.222   4.770  0.0709  0.0195  0.7904
15336TIP3    H267500   3.492   5.092   4.842  0.4330 -0.2269  0.5043
15337TIP3   OH267501   4.160   2.574   3.851 -0.1649  0.4797  0.0849
15337TIP3    H167502   4.069   2.564   3.822 -0.2037 -0.5178  0.5258
15337TIP3    H267503   4.198   2.488   3.840  0.9204  1.0315 -0.6624
15338TIP3   OH267504   3.702   1.251  16.484  0.0697  0.2602  0.0105
15338TIP3    H167505   3.768   1.301  16.436  1.1666 -0.6760  0.5056
15338TIP3    H267506   3.695   1.296  16.568  0.2655  0.2076  0.0544
15339TIP3   OH267507   2.378   2.111  14.243  0.6351  0.3327  0.0794
15339TIP3    H167508   2.316   2.116  14.170  0.1584 -0.1757  0.4467
15339TIP3    H267509   2.454   2.162  14.213 -0.2886  1.7056 -0.0292
15340TIP3   OH267510   1.125   1.034   2.560  0.1847 -0.4415 -0.2083
15340TIP3    H167511   1.080   0.995   2.636 -0.2291 -0.2220 -0.3376
15340TIP3    H267512   1.209   1.064   2.595 -0.3617  0.4652  0.3796
15341TIP3   OH267513   0.811   1.837  11.976  0.1153 -0.3349  0.1514
15341TIP3    H167514   0.785   1.905  12.038  0.5266 -0.4885  0.4942
15341TIP3    H267515   0.857   1.885  11.907 -1.7692  0.0480 -0.8904
15342TIP3   OH267516   3.145   4.077  15.521  0.7617 -0.1286 -0.2869
15342TIP3    H167517   3.138   4.115  15.434  0.0481  1.0353  0.2459
15342TIP3    H267518   3.192   4.142  15.573  0.5158 -0.4616  0.3775
15343TIP3   OH267519   2.294   6.152  13.288 -0.6547 -0.3080  0.0658
15343TIP3    H167520   2.200   6.152  13.305 -0.9197 -0.6129 -1.2607
15343TIP3    H267521   2.323   6.064  13.311 -0.4910  0.0967  1.4477
15344TIP3   OH267522   1.193   6.221  13.167  0.2329 -0.0458 -0.1900
15344TIP3    H167523   1.120   6.234  13.107  0.2281  1.1056  0.0271
15344TIP3    H267524   1.271   6.245  13.116  0.4532 -1.0726 -0.3599
15345TIP3   OH267525   1.905   3.120   2.435 -0.1472 -0.5466  0.4130
15345TIP3    H167526   1.915   3.110   2.530  0.0336 -1.3477  0.3124
15345TIP3    H267527   1.925   3.213   2.419 -0.0957 -0.4220  1.1414
15346TIP3   OH267528   6.372   5.562  15.545 -0.2426 -0.5938 -0.3586
15346TIP3    H167529   6.385   5.514  15.626 -1.2221  0.2793  0.3498
15346TIP3    H267530   6.336   5.647  15.573 -1.0090 -0.4367 -1.7250
15347TIP3   OH267531   5.089   2.442   3.238  0.4028  0.1837  0.2389
15347TIP3    H167532   5.062   2.509   3.176  2.7298  0.3789 -0.6447
15347TIP3    H267533   5.098   2.488   3.322 -1.7376  0.1286  0.5474
15348TIP3   OH267534   3.439   3.641  14.802  0.0331 -0.1391 -0.5508
15348TIP3    H167535   3.394   3.705  14.858 -1.7905  0.0168 -2.0697
15348TIP3    H267536   3.447   3.685  14.717 -0.1334 -1.4701 -1.2901
15349TIP3   OH267537   0.357   6.235  15.085 -0.1620  0.4154  1.3961
15349TIP3    H167538   0.421   6.267  15.021  0.5268 -0.1933  1.7778
15349TIP3    H267539   0.353   6.141  15.071 -1.0418  0.4590  1.3212
15350TIP3   OH267540   4.343   6.379   5.152  0.0648  0.1080 -0.0442
15350TIP3    H167541   4.437   6.362   5.156  0.0026 -0.0050  1.2873
15350TIP3    H267542   4.304   6.293   5.137  0.1482  0.1235 -0.3673
15351TIP3   OH267543   6.557   6.729  12.240  0.1102 -0.3754 -0.0171
15351TIP3    H167544   6.629   6.666  12.239  0.4661  0.0023 -1.9178
15351TIP3    H267545   6.600   6.813  12.225 -0.6431 -0.0455 -0.3359
15352TIP3   OH267546   1.374   5.618   5.952  0.0918 -0.0202  0.2464
15352TIP3    H167547   1.464   5.586   5.963  1.4149  3.1329 -0.3399
15352TIP3    H267548   1.319   5.540   5.961  2.9523 -2.3237 -0.8021
15353TIP3   OH267549   3.561   1.869  11.688  0.6999 -0.5985 -0.5744
15353TIP3    H167550   3.506   1.790  11.687 -0.4506  0.1648 -0.1545
15353TIP3    H267551   3.586   1.880  11.780 -0.3701  0.3175 -0.3688
15354TIP3   OH267552   5.471   5.615  11.200  0.0333 -0.3879 -0.4148
15354TIP3    H167553   5.486   5.681  11.132  0.8096 -0.4147 -0.2848
15354TIP3    H267554   5.402   5.651  11.255 -0.5824 -0.3511 -1.1959
15355TIP3   OH267555   0.804   2.848  11.769 -0.0525  0.0439 -0.8536
15355TIP3    H167556   0.747   2.810  11.836  0.8810  0.9124  0.4881
15355TIP3    H267557   0.760   2.830  11.687 -2.2797  0.7070  0.1345
15356TIP3   OH267558   2.423   2.301  16.177  0.5644  0.1070  0.0997
15356TIP3    H167559   2.462   2.214  16.182  0.6140  0.0545 -1.0343
15356TIP3    H267560   2.423   2.322  16.084 -1.5561  0.3644  0.1285
15357TIP3   OH267561   6.430   6.183   6.275 -0.6056 -0.0635 -0.5360
15357TIP3    H167562   6.488   6.140   6.213  1.0137 -0.8981  1.4420
15357TIP3    H267563   6.423   6.122   6.349 -1.0362  1.5931  0.8787
15358TIP3   OH267564   5.414   3.157  14.451  0.5601 -0.1632  0.5333
15358TIP3    H167565   5.481   3.220  14.477 -0.8714  1.2652  0.9343
15358TIP3    H267566   5.373   3.196  14.374  0.5382 -1.2861 -0.0440
15359TIP3   OH267567   6.566   5.315   3.396 -0.4989  0.5716 -0.6545
15359TIP3    H167568   6.626   5.303   3.322 -0.1652  0.2064 -0.3256
15359TIP3    H267569   6.575   5.408   3.418 -0.4045  0.6244 -0.9066
15360TIP3   OH267570   4.953   6.194   0.559  0.4039 -0.2526  0.3129
15360TIP3    H167571   4.904   6.114   0.573 -0.2077 -0.2342 -1.4352
15360TIP3    H267572   4.887   6.260   0.539  0.9798  0.3972  0.5083
15361TIP3   OH267573   4.469   1.576  16.560 -0.2233  0.7293 -0.1619
15361TIP3    H167574   4.446   1.571  16.467 -0.4400 -0.9256 -0.0481
15361TIP3    H267575   4.385   1.570  16.605 -0.0571  0.7017  0.1456
15362TIP3   OH267576   2.011   0.332   1.843 -0.3049  0.3956 -0.1770
15362TIP3    H167577   2.036   0.299   1.930  1.1055  0.7698 -0.4195
15362TIP3    H267578   1.935   0.279   1.818 -1.8101  1.3537  1.9751
15363TIP3   OH267579   6.461   3.536  10.740 -0.1694  0.4480 -0.1450
15363TIP3    H167580   6.522   3.605  10.766 -0.8476  2.1923 -2.8388
15363TIP3    H267581   6.453   3.545  10.645 -1.3100 -2.5442 -0.4553
15364TIP3   OH267582   5.402   1.279   1.745 -0.0102 -0.6212 -0.0274
15364TIP3    H167583   5.399   1.350   1.681  1.1535 -0.4484  0.0760
15364TIP3    H267584   5.328   1.296   1.804 -0.1057  0.1584 -0.3573
15365TIP3   OH267585   0.336   2.987  11.429 -0.6713 -0.4504 -0.1024
15365TIP3    H167586   0.310   2.959  11.517 -0.3345  0.2779  0.2401
15365TIP3    H267587   0.419   2.943  11.413 -0.4061 -0.0720  0.2166
15366TIP3   OH267588   6.164   6.631   2.001 -0.4850  0.1811 -0.6358
15366TIP3    H167589   6.075   6.660   2.021 -0.5675 -1.0401  1.0824
15366TIP3    H267590   6.191   6.584   2.080  1.5370  0.1628 -1.2926
15367TIP3   OH267591   2.358   6.009  12.284 -0.1037 -0.4418  0.4395
15367TIP3    H167592   2.439   5.960  12.269 -1.5480 -2.3071 -2.0145
15367TIP3    H267593   2.371   6.092  12.238 -0.0579 -1.3311 -1.2382
15368TIP3   OH267594   0.878   0.967  11.297  0.4378 -0.1440 -0.1355
15368TIP3    H167595   0.806   0.981  11.358  1.3489 -1.2584  1.2727
15368TIP3    H267596   0.846   1.001  11.213 -1.3669  0.1833  0.6397
15369TIP3   OH267597   5.463   6.778   3.203  0.0745 -0.1637  0.1422
15369TIP3    H167598   5.413   6.698   3.185 -1.7301  1.3095 -2.0129
15369TIP3    H267599   5.399   6.837   3.242  0.6097  1.1420 -0.9014
15370TIP3   OH267600   0.124   3.104   3.355 -0.3826 -0.1818 -0.3872
15370TIP3    H167601   0.217   3.095   3.374 -0.8172  0.0496  2.1382
15370TIP3    H267602   0.104   3.028   3.300  1.1699 -0.5183 -0.5428
15371TIP3   OH267603   2.781   1.821  12.228  0.0004 -0.2823 -0.1266
15371TIP3    H167604   2.811   1.840  12.317  3.2859 -0.9204 -0.9431
15371TIP3    H267605   2.692   1.788  12.239 -0.3795  1.3660  2.6983
15372TIP3   OH267606   5.148   1.619   1.921 -0.3025  0.2540  0.3457
15372TIP3    H167607   5.147   1.609   2.017 -0.9565 -3.1259  0.1415
15372TIP3    H267608   5.141   1.529   1.888  1.8479  1.1040 -2.9321
15373TIP3   OH267609   5.810   5.952  13.919 -0.3140 -0.0141 -0.3649
15373TIP3    H167610   5.763   5.868  13.914 -0.7770  0.1998  0.2486
15373TIP3    H267611   5.867   5.943  13.996 -0.0771  0.0904 -0.5278
15374TIP3   OH267612   6.605   1.643  12.363  0.2098  0.3147  0.4745
15374TIP3    H167613   6.609   1.579  12.292  2.2440  0.4729  0.3958
15374TIP3    H267614   6.612   1.728  12.320 -0.6174  0.5193  0.7248
15375TIP3   OH267615   3.757   4.455  10.535  0.0007 -0.4528 -0.0095
15375TIP3    H167616   3.811   4.533  10.523  0.2500 -0.3402  1.6070
15375TIP3    H267617   3.667   4.484  10.522  0.2087 -0.3550 -1.4004
15376TIP3   OH267618   1.082   4.768   5.527 -0.8558  0.2799 -0.5991
15376TIP3    H167619   1.174   4.788   5.547 -0.8975  1.6559 -1.6244
15376TIP3    H267620   1.086   4.682   5.485 -0.3835 -0.9511  1.8200
15377TIP3   OH267621   5.505   6.313  14.010  0.8084 -0.2914  0.0786
15377TIP3    H167622   5.463   6.365  14.078  0.6250  0.2227 -0.4122
15377TIP3    H267623   5.461   6.228  14.013  0.2078  0.0132  0.0276
15378TIP3   OH267624   1.368   1.080  11.270 -0.4538 -0.1656 -0.2575
15378TIP3    H167625   1.351   0.991  11.300  0.3083 -0.2773 -0.1463
15378TIP3    H267626   1.463   1.091  11.276 -0.5255  0.6246 -0.3558
15379TIP3   OH267627   4.531   1.622   2.916  0.0534  0.2609  0.0045
15379TIP3    H167628   4.484   1.694   2.959 -1.3573 -1.8421  2.2522
15379TIP3    H267629   4.479   1.603   2.838  0.1028  1.2727 -0.2900
15380TIP3   OH267630   3.856   0.373  13.505 -1.1105  0.3173  0.3750
15380TIP3    H167631   3.944   0.355  13.473 -0.3023  0.1709  2.4995
15380TIP3    H267632   3.836   0.462  13.474 -0.6605 -0.0549 -1.0038
15381TIP3   OH267633   2.012   6.190  13.282 -0.1698  0.0457  0.4151
15381TIP3    H167634   2.025   6.188  13.377 -0.7277  0.4417  0.5035
15381TIP3    H267635   1.953   6.264  13.267  0.7141  0.6232 -0.3439
15382TIP3   OH267636   3.614   4.208  15.882 -0.9278  0.0585 -0.3087
15382TIP3    H167637   3.590   4.249  15.798 -0.0450  0.6426 -0.2871
15382TIP3    H267638   3.564   4.257  15.947  2.2257  3.1701  0.0456
15383TIP3   OH267639   3.535   0.570   4.528  0.6223 -0.3273  0.6182
15383TIP3    H167640   3.453   0.592   4.483  0.8363 -1.1694 -0.2155
15383TIP3    H267641   3.521   0.481   4.560  1.2452 -0.5087  0.3915
15384TIP3   OH267642   5.498   2.111   5.802  0.0919 -0.1035  0.2584
15384TIP3    H167643   5.503   2.206   5.816  0.0132 -0.2324  1.2174
15384TIP3    H267644   5.516   2.073   5.888 -0.4462 -0.9489  0.0100
15385TIP3   OH267645   1.085   3.937   2.068 -0.7760  0.0139  0.2470
15385TIP3    H167646   0.994   3.955   2.093 -2.0701 -1.1803 -3.1169
15385TIP3    H267647   1.081   3.915   1.975  3.0987  0.6362 -0.2371
15386TIP3   OH267648   0.276   6.131   0.927  0.4963  0.4267 -0.2623
15386TIP3    H167649   0.320   6.213   0.904 -1.3365  0.9229 -2.2770
15386TIP3    H267650   0.184   6.155   0.938  0.1776 -1.1136  0.7045
15387TIP3   OH267651   4.203   1.774   5.518  0.8094 -1.1328 -0.0857
15387TIP3    H167652   4.221   1.861   5.481  1.7649 -0.9025  0.8522
15387TIP3    H267653   4.254   1.714   5.464  0.4562 -1.0747 -0.4937
15388TIP3   OH267654   6.234   2.090  11.634  0.4623 -0.1217  0.0310
15388TIP3    H167655   6.205   2.181  11.645 -0.8116 -0.5249  0.1790
15388TIP3    H267656   6.159   2.046  11.596  1.0575 -1.1378  0.0126
15389TIP3   OH267657   6.088   3.865   1.023  0.3406  0.2431 -0.1152
15389TIP3    H167658   6.087   3.927   0.949  1.1415 -0.2478 -0.5503
15389TIP3    H267659   6.010   3.887   1.073 -0.4251  0.3580 -1.3058
15390TIP3   OH267660   5.726   5.065   0.767 -0.2198  0.2761 -0.4081
15390TIP3    H167661   5.659   5.067   0.835 -0.1871  1.0805 -0.3938
15390TIP3    H267662   5.682   5.098   0.689 -0.3576 -0.9884 -0.8787
15391TIP3   OH267663   5.725   1.282   3.775  0.4704 -0.3558 -0.5748
15391TIP3    H167664   5.692   1.372   3.777 -0.7872 -0.7902  1.7822
15391TIP3    H267665   5.660   1.233   3.725 -0.0798 -0.3593  0.1289
15392TIP3   OH267666   1.910   6.472   4.721 -0.1228  0.0606 -0.2163
15392TIP3    H167667   1.917   6.509   4.810  1.4623 -1.7819  0.5076
15392TIP3    H267668   1.816   6.469   4.704 -0.5867 -1.0046  2.0834
15393TIP3   OH267669   6.319   5.826  17.180 -0.2989 -0.0894 -0.2997
15393TIP3    H167670   6.324   5.732  17.162  0.2753  0.1100 -1.2428
15393TIP3    H267671   6.274   5.863  17.105 -2.1172  0.2001  0.8749
15394TIP3   OH267672   3.052   1.410   1.083 -0.0598 -0.0587  0.2182
15394TIP3    H167673   3.035   1.481   1.144  0.7549 -1.4807  2.1908
15394TIP3    H267674   3.005   1.435   1.003  0.5356  2.8581  0.6699
15395TIP3   OH267675   6.416   5.410  12.844  0.0664 -0.3180  0.3142
15395TIP3    H167676   6.402   5.444  12.756 -0.8186 -0.5649  0.3450
15395TIP3    H267677   6.365   5.467  12.901  2.4051  1.2406  0.9914
15396TIP3   OH267678   5.113   5.381  16.109  0.6173  0.0393 -0.3255
15396TIP3    H167679   5.031   5.386  16.061 -0.2593  1.0984  1.2061
15396TIP3    H267680   5.132   5.471  16.135  0.7691 -0.5131  1.6965
15397TIP3   OH267681   0.529   5.138   3.328  0.1398  0.3682 -0.0230
15397TIP3    H167682   0.491   5.065   3.377 -0.1923  0.7045  0.2232
15397TIP3    H267683   0.623   5.123   3.331  0.0894  0.1282  0.3084
15398TIP3   OH267684   2.422   6.081  13.990  0.3548  0.0136  0.1802
15398TIP3    H167685   2.339   6.039  14.010  0.8497 -0.8605  0.4598
15398TIP3    H267686   2.464   6.023  13.926  0.1165  1.2095 -1.1275
15399TIP3   OH267687   0.908   5.581  17.197  0.2858 -0.1096  0.1494
15399TIP3    H167688   0.949   5.544  17.119 -2.0672 -0.0942 -1.2022
15399TIP3    H267689   0.917   5.513  17.264  0.5775 -0.9917 -0.7572
15400TIP3   OH267690   3.227   1.833   4.175  0.0418  0.4701  0.1741
15400TIP3    H167691   3.249   1.860   4.086 -3.1802  0.6574 -0.7037
15400TIP3    H267692   3.208   1.915   4.221  0.0535  0.2789  0.5237
15401TIP3   OH267693   0.418   1.036   6.140 -0.2874 -0.0579  0.3430
15401TIP3    H167694   0.413   1.088   6.221 -0.8718  1.7677 -0.8125
15401TIP3    H267695   0.326   1.021   6.116 -0.2462  2.1559 -1.5931
15402TIP3   OH267696   2.529   4.299   3.489 -0.4908  0.2321 -0.3918
15402TIP3    H167697   2.491   4.370   3.439 -1.3768  0.1248  0.1061
15402TIP3    H267698   2.604   4.269   3.437 -0.3827  1.2182 -0.8178
15403TIP3   OH267699   2.229   3.750   0.071 -0.1220 -0.1375  0.2945
15403TIP3    H167700   2.147   3.787   0.038  1.4133  0.8749 -2.7984
15403TIP3    H267701   2.213   3.656   0.077 -1.8361  0.1635  0.8704
15404TIP3   OH267702   2.184   4.317   0.746 -0.1627  0.1269  0.5341
15404TIP3    H167703   2.212   4.319   0.837 -0.2553 -0.7690  0.5891
15404TIP3    H267704   2.094   4.349   0.748  0.0573  0.7530  0.6605
15405TIP3   OH267705   0.835   6.496   6.317 -0.2742  0.3162  0.3038
15405TIP3    H167706   0.812   6.407   6.291  0.8491  0.3615 -0.9371
15405TIP3    H267707   0.795   6.507   6.404 -2.9490 -0.3608 -0.7427
15406TIP3   OH267708   0.258   3.952   2.119  0.0025 -0.1335 -0.2029
15406TIP3    H167709   0.214   4.004   2.051  0.1138  1.6972  1.0463
15406TIP3    H267710   0.207   3.968   2.198  1.4117 -0.0201  0.7195
15407TIP3   OH267711   4.890   1.621   6.544 -0.0665 -0.0129 -0.2627
15407TIP3    H167712   4.913   1.713   6.532  1.4965 -0.2722  0.4871
15407TIP3    H267713   4.798   1.616   6.519 -0.0409  1.6435 -0.8274
15408TIP3   OH267714   5.931   5.011  16.508 -0.0625  0.2061  0.1147
15408TIP3    H167715   5.884   5.064  16.573  0.5222  0.6155  0.2039
15408TIP3    H267716   5.939   4.925  16.549 -0.1877  0.3058  0.3515
15409TIP3   OH267717   3.206   2.845   4.737 -0.9664  0.3869 -0.5023
15409TIP3    H167718   3.223   2.826   4.644 -2.5079  1.8496 -1.1216
15409TIP3    H267719   3.211   2.759   4.779 -0.8311 -0.4040 -2.0375
15410TIP3   OH267720   4.971   1.810  15.761  0.0954 -0.2230 -0.5000
15410TIP3    H167721   4.905   1.868  15.800 -0.2718 -0.2554 -1.0641
15410TIP3    H267722   4.990   1.746  15.829 -1.1462 -0.7754 -0.6449
15411TIP3   OH267723   5.226   4.655  17.198  0.3333  0.1215  0.2094
15411TIP3    H167724   5.158   4.601  17.237 -0.2978  0.3428 -0.5715
15411TIP3    H267725   5.193   4.745  17.206 -0.0331  0.1390 -1.2330
15412TIP3   OH267726   0.217   3.234   2.994 -0.4812  0.0272 -0.1205
15412TIP3    H167727   0.240   3.141   2.989  0.1975  0.1361  0.7369
15412TIP3    H267728   0.189   3.247   3.084  0.4555  0.8829  0.0580
15413TIP3   OH267729   4.520   0.770  12.147 -0.2974  0.0553 -0.2343
15413TIP3    H167730   4.495   0.709  12.077  0.6341 -0.6179  0.0066
15413TIP3    H267731   4.437   0.793  12.189 -0.9340  0.8792 -1.8637
15414TIP3   OH267732   4.158   0.079   5.088 -0.2788  0.1123  0.3755
15414TIP3    H167733   4.064   0.091   5.078 -0.3389  0.4241  1.2474
15414TIP3    H267734   4.169  -0.015   5.102 -0.4395  0.0419  0.0152
15415TIP3   OH267735   5.555   2.939   6.445 -0.4734 -0.4256 -0.1325
15415TIP3    H167736   5.526   2.858   6.488  0.6297  0.3017  2.1675
15415TIP3    H267737   5.509   3.008   6.493 -0.0948  0.4004 -0.9393
15416TIP3   OH267738   5.723   2.241   4.102 -0.0386 -0.0980 -0.5233
15416TIP3    H167739   5.784   2.284   4.042  0.1592  0.6703  0.2253
15416TIP3    H267740   5.764   2.248   4.188 -0.4725 -0.9191 -0.2334
15417TIP3   OH267741   4.001   6.681  12.913  0.0310 -0.5437  0.4849
15417TIP3    H167742   4.062   6.624  12.960  2.0246  0.9234 -0.1807
15417TIP3    H267743   3.943   6.621  12.867  1.2930 -2.0303  0.7502
15418TIP3   OH267744   6.451   4.819   4.480 -0.4252 -0.1189  0.1273
15418TIP3    H167745   6.433   4.750   4.416  0.2409 -1.5200  1.3942
15418TIP3    H267746   6.526   4.787   4.530 -1.8727  0.1439  2.6547
15419TIP3   OH267747   3.106   1.231  13.440 -0.1634  0.2319 -1.0622
15419TIP3    H167748   3.151   1.156  13.403 -0.7744  0.5282 -2.4602
15419TIP3    H267749   3.025   1.238  13.389  0.5506  2.7200 -1.9912
15420TIP3   OH267750   4.760   1.637  11.556 -0.1159 -0.2652  0.1210
15420TIP3    H167751   4.775   1.563  11.614 -2.5521  0.8447  2.3704
15420TIP3    H267752   4.665   1.640  11.544  0.0634  1.3859 -1.4570
15421TIP3   OH267753   5.573   0.641  15.686  0.2317  0.6655  0.6281
15421TIP3    H167754   5.555   0.632  15.592  1.7508  0.0740  0.3538
15421TIP3    H267755   5.631   0.568  15.706 -1.2702 -0.1032  2.3992
15422TIP3   OH267756   1.652   4.716   4.552 -0.2936  0.0068 -0.5040
15422TIP3    H167757   1.614   4.687   4.469  0.0838  0.1972 -0.7442
15422TIP3    H267758   1.636   4.643   4.612 -0.9354  0.0403 -0.6288
15423TIP3   OH267759   2.951   0.892  13.424 -0.4782  0.1808  0.0035
15423TIP3    H167760   3.019   0.833  13.456  0.7531  0.8358 -1.3063
15423TIP3    H267761   2.927   0.945  13.500  0.7376  0.1810  0.4066
15424TIP3   OH267762   6.444   0.181   2.120  0.4861  0.3645  0.1842
15424TIP3    H167763   6.415   0.157   2.032  0.5072  0.1580  0.2333
15424TIP3    H267764   6.476   0.100   2.157 -1.3889 -0.0018  1.1272
15425TIP3   OH267765   3.048   5.609   1.590 -0.1409 -0.4963 -0.0487
15425TIP3    H167766   3.062   5.583   1.681  1.3085 -0.3610 -0.1993
15425TIP3    H267767   3.039   5.526   1.543 -1.1840 -0.5595  0.2511
15426TIP3   OH267768   5.922   2.847  15.228  0.1427  0.2323  0.3122
15426TIP3    H167769   5.905   2.757  15.256  1.9220 -0.0946  0.4162
15426TIP3    H267770   6.002   2.872  15.272  0.5721  1.2929 -0.9984
15427TIP3   OH267771   1.109   3.344  13.819 -0.3422  0.1592 -0.5069
15427TIP3    H167772   1.107   3.254  13.787  0.8635 -0.0017 -0.1577
15427TIP3    H267773   1.016   3.368  13.825 -0.6865 -1.0264 -0.6657
15428TIP3   OH267774   3.890   0.539  11.109 -0.0917  0.1368  0.3954
15428TIP3    H167775   3.984   0.550  11.102  0.3415 -1.4441  2.5869
15428TIP3    H267776   3.871   0.459  11.061  0.1904 -1.1112  2.2571
15429TIP3   OH267777   3.040   3.654  11.695 -0.3659  0.8859 -0.3267
15429TIP3    H167778   3.064   3.646  11.603  0.7528 -0.7314  0.0868
15429TIP3    H267779   2.959   3.706  11.693 -1.1974 -0.3668 -2.3281
15430TIP3   OH267780   6.060   6.456  13.962  0.5367 -0.2631  0.3333
15430TIP3    H167781   6.075   6.448  14.056  1.6164  0.0139  0.1953
15430TIP3    H267782   5.976   6.412  13.947  0.0167  0.2728  1.5226
15431TIP3   OH267783   2.967   4.577  15.973  0.3271  0.1360 -0.1948
15431TIP3    H167784   2.944   4.571  15.880 -1.4019 -0.9614  0.2275
15431TIP3    H267785   2.890   4.618  16.013  0.4622 -0.6606  0.9124
15432TIP3   OH267786   1.010   6.689   5.148 -0.1150 -0.3107  0.2192
15432TIP3    H167787   1.064   6.740   5.087 -0.9936 -1.4163 -1.5772
15432TIP3    H267788   1.052   6.602   5.150 -1.4912 -1.0374 -0.8364
15433TIP3   OH267789   2.030   5.650   1.205  0.3154 -0.2664  0.1431
15433TIP3    H167790   1.938   5.636   1.183  0.2330  0.3911  0.0498
15433TIP3    H267791   2.048   5.586   1.274  0.2743 -1.6007 -1.0299
15434TIP3   OH267792   5.061   6.248  13.944  1.0476  0.0477  0.1583
15434TIP3    H167793   5.070   6.156  13.971  0.2214  0.2128  1.0488
15434TIP3    H267794   4.973   6.272  13.972  0.4024  0.4651 -2.0671
15435TIP3   OH267795   0.347   0.373   1.146  0.2716 -0.5985 -0.2803
15435TIP3    H167796   0.296   0.371   1.065  0.1748  0.1531 -0.2452
15435TIP3    H267797   0.437   0.392   1.119  0.1035  0.4542 -0.1703
15436TIP3   OH267798   0.750   2.123   2.551  0.1955  0.1508  0.2395
15436TIP3    H167799   0.720   2.193   2.493 -0.5645  0.4412  0.9781
15436TIP3    H267800   0.801   2.065   2.493  0.8603  1.3042 -0.3789
15437TIP3   OH267801   5.007   3.326  15.871  0.3319 -0.4603 -0.7583
15437TIP3    H167802   5.071   3.384  15.913  0.5577 -0.8129 -0.6024
15437TIP3    H267803   5.059   3.277  15.806  0.3646 -1.2248 -0.1691
15438TIP3   OH267804   2.187   4.143  15.939  0.0286 -0.0329  0.2777
15438TIP3    H167805   2.099   4.180  15.939  0.6597  1.5689 -0.3979
15438TIP3    H267806   2.195   4.101  16.025 -1.7743 -1.2506 -0.1029
15439TIP3   OH267807   2.059   0.570  10.307  0.3331  0.4973 -0.3904
15439TIP3    H167808   2.023   0.528  10.229  1.3363 -0.2941 -0.4508
15439TIP3    H267809   2.145   0.601  10.280  0.7499  0.0846  0.4237
15440TIP3   OH267810   4.959   0.514   4.142  0.2124 -0.4210 -0.1653
15440TIP3    H167811   4.878   0.487   4.185 -0.9082 -0.1106 -1.9743
15440TIP3    H267812   4.997   0.580   4.200 -1.4441  0.2808  0.1620
15441TIP3   OH267813   0.030   1.646   5.757 -0.0693 -0.4210 -0.4970
15441TIP3    H167814  -0.057   1.623   5.725 -2.3832  1.1914  3.7438
15441TIP3    H267815   0.044   1.736   5.727 -0.7927 -0.0234  0.3063
15442TIP3   OH267816   6.427   1.534   5.518  0.4805 -0.0782  0.4184
15442TIP3    H167817   6.383   1.619   5.523 -0.3487 -0.4019 -0.9282
15442TIP3    H267818   6.442   1.520   5.425  0.6616 -1.3844  0.6230
15443TIP3   OH267819   5.095   1.653  16.251 -0.1935  0.7526 -0.9830
15443TIP3    H167820   5.101   1.592  16.325 -5.9702  0.1606 -0.5932
15443TIP3    H267821   5.139   1.732  16.282 -0.9643 -0.0213  2.4571
15444TIP3   OH267822   1.305   6.323   3.203  0.4599 -0.0672 -0.4055
15444TIP3    H167823   1.223   6.273   3.209 -0.2702  0.9712 -1.2260
15444TIP3    H267824   1.304   6.379   3.280 -0.8813  1.7185 -1.6335
15445TIP3   OH267825   0.031   2.335  16.386 -0.2147 -0.2002  0.3999
15445TIP3    H167826  -0.022   2.255  16.390 -1.6661  0.7792  1.6951
15445TIP3    H267827   0.119   2.306  16.411 -0.1701 -1.7871 -1.3916
15446TIP3   OH267828   3.591   3.664  13.811 -0.2812  0.2707 -0.5081
15446TIP3    H167829   3.582   3.759  13.819 -0.0100  0.2394  0.2081
15446TIP3    H267830   3.664   3.642  13.868 -0.6873 -0.4365 -0.2497
15447TIP3   OH267831   1.878   4.291   0.264  0.3195 -0.4094  0.1427
15447TIP3    H167832   1.935   4.292   0.188 -0.1079  0.1864 -0.1725
15447TIP3    H267833   1.916   4.224   0.321  1.1300 -0.2613 -0.2099
15448TIP3   OH267834   6.682   2.567  13.452 -0.3156 -0.1961  0.1131
15448TIP3    H167835   6.672   2.473  13.438  0.7677 -0.6374  1.9415
15448TIP3    H267836   6.714   2.575  13.542  1.4997  1.7780 -0.5959
15449TIP3   OH267837   2.271   5.882  16.046  0.1932  0.1641 -0.3255
15449TIP3    H167838   2.277   5.797  16.089 -0.3329 -0.0438 -0.6468
15449TIP3    H267839   2.217   5.865  15.969  2.1390  0.2555 -1.7806
15450TIP3   OH267840   0.804   0.288   3.875 -0.0050 -0.1588 -0.4518
15450TIP3    H167841   0.717   0.315   3.904  0.3990 -0.2425  0.9171
15450TIP3    H267842   0.861   0.306   3.950  0.5536 -3.3803  0.0657
15451TIP3   OH267843   4.190   1.873  14.509 -0.0303  0.7395 -0.0759
15451TIP3    H167844   4.140   1.933  14.565 -0.6759  0.7567 -0.6661
15451TIP3    H267845   4.143   1.872  14.426  0.7809  0.5174 -0.5450
15452TIP3   OH267846   1.032   6.329   1.204 -0.2704  0.1566 -0.2252
15452TIP3    H167847   1.073   6.401   1.252 -1.5141  0.6103  0.1873
15452TIP3    H267848   0.953   6.309   1.254 -0.8818 -0.2754 -1.3458
15453TIP3   OH267849   0.593   5.850   4.364  0.2150 -0.1910 -0.0991
15453TIP3    H167850   0.603   5.755   4.354 -0.0707 -0.2648  0.3210
15453TIP3    H267851   0.666   5.887   4.313  0.3177 -0.6325 -0.2783
15454TIP3   OH267852   3.819   5.030   4.854  0.3621 -0.0433  0.5912
15454TIP3    H167853   3.739   5.084   4.853  0.1352 -0.3534 -1.2116
15454TIP3    H267854   3.824   4.998   4.944 -0.4118  1.6202  1.2850
15455TIP3   OH267855   1.874   5.250   3.508 -0.4236  0.0191 -0.2147
15455TIP3    H167856   1.821   5.173   3.487  0.9080 -0.6164 -1.3670
15455TIP3    H267857   1.841   5.318   3.449 -0.0039 -0.3736 -0.9240
15456TIP3   OH267858   2.010   2.352   0.338 -0.1983 -0.3150 -0.1960
15456TIP3    H167859   2.100   2.386   0.341 -0.8270  1.3498  0.6156
15456TIP3    H267860   1.988   2.336   0.429 -1.8020  2.3237 -0.0376
15457TIP3   OH267861   6.697   2.373   4.379 -0.2883  0.6166 -0.0416
15457TIP3    H167862   6.691   2.454   4.430  0.4979  0.0727  0.9647
15457TIP3    H267863   6.787   2.372   4.346 -1.2138  1.7725 -2.9154
15458TIP3   OH267864   3.823   0.672  12.300 -0.1162 -0.0909 -0.2729
15458TIP3    H167865   3.746   0.664  12.357  0.7648 -3.3941  0.6656
15458TIP3    H267866   3.819   0.594  12.244  3.0963 -1.0302  0.6132
15459TIP3   OH267867   3.453   4.499  16.830 -0.0533  0.4578  0.3078
15459TIP3    H167868   3.413   4.442  16.764 -0.6404  0.5105  0.6096
15459TIP3    H267869   3.547   4.498  16.809 -0.4338  2.3316 -1.9893
15460TIP3   OH267870   3.645   6.477  15.486 -0.2660 -0.3395  0.3692
15460TIP3    H167871   3.653   6.572  15.479 -0.3260 -0.1698  2.1311
15460TIP3    H267872   3.731   6.443  15.462  0.5452  0.3430  2.1366
15461TIP3   OH267873   4.562   3.313   5.376 -1.0392  0.4358  0.2550
15461TIP3    H167874   4.565   3.379   5.445 -0.5797  1.5589 -0.7985
15461TIP3    H267875   4.596   3.233   5.417 -0.2615  1.2173  1.1774
15462TIP3   OH267876   4.834   5.239  15.041  0.2159  0.8039 -0.4551
15462TIP3    H167877   4.811   5.238  15.134  2.0714  0.0718  0.0450
15462TIP3    H267878   4.759   5.197  14.997 -1.1557  2.1055  0.5350
15463TIP3   OH267879   3.581   3.193   1.694 -0.1041  0.1069  0.0242
15463TIP3    H167880   3.488   3.204   1.712 -0.8310 -1.2622 -2.3704
15463TIP3    H267881   3.608   3.279   1.661 -0.0608  0.9851  2.1880
15464TIP3   OH267882   5.236   5.341  10.514  0.4494 -0.5271  0.3945
15464TIP3    H167883   5.271   5.393  10.441 -0.9433  1.0305  0.7842
15464TIP3    H267884   5.143   5.365  10.518  0.0196 -2.2083  1.3386
15465TIP3   OH267885   2.734   3.371   3.166 -0.1249 -0.1673 -0.4694
15465TIP3    H167886   2.653   3.340   3.206  0.1797 -0.5887 -0.1780
15465TIP3    H267887   2.794   3.386   3.239 -0.1079  0.6613 -0.6406
15466TIP3   OH267888   4.327   6.054  12.225  0.2637  0.0996  0.0741
15466TIP3    H167889   4.353   5.965  12.199 -1.0399 -0.5626  0.9020
15466TIP3    H267890   4.233   6.047  12.240  0.1170  1.6867 -0.0159
15467TIP3   OH267891   5.347   2.886   5.229 -0.0110  0.3521 -0.2875
15467TIP3    H167892   5.307   2.839   5.156 -0.9332  1.2433 -0.3748
15467TIP3    H267893   5.362   2.819   5.296 -2.9850  0.1440  0.3157
15468TIP3   OH267894   3.156   6.160  14.418  0.0879 -0.0542 -0.9786
15468TIP3    H167895   3.152   6.253  14.438  0.6172 -0.3559  0.6716
15468TIP3    H267896   3.202   6.155  14.335  1.0714  1.1030 -0.5275
15469TIP3   OH267897   2.850   1.028   1.108  0.3492  0.3728 -0.6676
15469TIP3    H167898   2.763   1.056   1.078  0.8655  2.7265 -0.1732
15469TIP3    H267899   2.886   0.980   1.034 -2.3818 -3.3306  0.0761
15470TIP3   OH267900   4.763   0.848   1.613 -0.5534  0.1026 -0.0625
15470TIP3    H167901   4.709   0.925   1.631 -0.6565 -0.1142  0.5945
15470TIP3    H267902   4.826   0.847   1.684  1.2238  1.1225 -1.5329
15471TIP3   OH267903   3.049   3.357   3.696  0.4058 -0.1392 -0.3343
15471TIP3    H167904   3.063   3.291   3.629  1.4515  0.5826 -0.8536
15471TIP3    H267905   3.107   3.330   3.768  1.0901  0.3635 -0.6784
15472TIP3   OH267906   1.014   4.665   0.078 -0.2083 -0.4820  0.1320
15472TIP3    H167907   0.983   4.685   0.166 -0.2237  0.1679 -0.0197
15472TIP3    H267908   1.040   4.749   0.041  2.5107 -1.0763  0.5211
15473TIP3   OH267909   3.651   3.070   1.384  0.2976  0.5863  0.3959
15473TIP3    H167910   3.729   3.020   1.361 -0.2065  0.4756 -1.1728
15473TIP3    H267911   3.614   3.022   1.459 -0.8474 -2.2153 -1.7785
15474TIP3   OH267912   2.474   5.196   3.214 -0.0957 -0.5008 -0.3175
15474TIP3    H167913   2.427   5.250   3.278  0.0745 -0.7681  0.0366
15474TIP3    H267914   2.420   5.117   3.206  1.3300 -1.7734  1.6990
15475TIP3   OH267915   1.296   6.397  12.008  0.3979 -0.2273  0.2245
15475TIP3    H167916   1.277   6.305  12.022  3.1239 -0.6740  1.8836
15475TIP3    H267917   1.359   6.398  11.936 -0.7367  0.5076 -0.7810
15476TIP3   OH267918   0.093   1.607   4.793 -0.6413 -0.2616 -0.0664
15476TIP3    H167919   0.055   1.683   4.749 -0.5631  0.4010  0.9720
15476TIP3    H267920   0.031   1.536   4.777 -1.4923  0.4037  0.2223
15477TIP3   OH267921   2.908   5.171  10.560 -0.4438  0.0091 -0.4792
15477TIP3    H167922   2.926   5.225  10.636  0.9322  0.5941 -1.1923
15477TIP3    H267923   2.824   5.203  10.527 -0.6866  0.2457  0.3440
15478TIP3   OH267924   1.225   6.517  11.169 -0.4005  0.1096 -0.1261
15478TIP3    H167925   1.236   6.432  11.212  0.9568  0.2464 -0.1509
15478TIP3    H267926   1.131   6.526  11.158 -0.7827 -0.1253  2.4431
15479TIP3   OH267927   0.262   2.186  12.875  0.0918  0.1734  0.3791
15479TIP3    H167928   0.278   2.269  12.829  0.3326  0.3112  0.7124
15479TIP3    H267929   0.248   2.123  12.805  0.1276  0.4509  0.1181
15480TIP3   OH267930   1.346   2.346  12.866 -0.1217  0.0810 -0.0825
15480TIP3    H167931   1.339   2.442  12.868 -0.5868  0.1127 -1.6705
15480TIP3    H267932   1.256   2.316  12.875 -0.0345 -0.1934 -0.1386
15481TIP3   OH267933   2.066   6.814   2.855  0.5003  0.0419  0.2564
15481TIP3    H167934   2.048   6.756   2.928  0.5344 -1.5054 -0.9245
15481TIP3    H267935   2.156   6.793   2.829  1.1974  1.9276  0.9326
15482TIP3   OH267936   3.764   4.492  15.617  0.3825  0.0914 -0.6287
15482TIP3    H167937   3.782   4.400  15.595 -1.5194  0.1452 -2.7665
15482TIP3    H267938   3.708   4.487  15.695  0.4515 -0.5492 -0.6111
15483TIP3   OH267939   0.111   5.223  13.996  0.2150  1.2811 -0.2021
15483TIP3    H167940   0.108   5.171  13.916  3.6303 -1.1371  0.9987
15483TIP3    H267941   0.166   5.298  13.973 -1.1310  2.1217 -0.7877
15484TIP3   OH267942   6.540   4.734  12.627  0.9695 -0.2472  0.2629
15484TIP3    H167943   6.465   4.676  12.619  0.2917  0.6295 -0.0052
15484TIP3    H267944   6.612   4.678  12.655 -0.1419 -0.8376  2.0940
15485TIP3   OH267945   1.710   2.089  14.352  0.2424 -0.5328  0.4470
15485TIP3    H167946   1.648   2.090  14.278  0.1892  1.1990  0.4767
15485TIP3    H267947   1.662   2.045  14.422 -0.8538  0.4288  0.3435
15486TIP3   OH267948   1.048   6.623   0.503  0.0787  0.4124  0.0345
15486TIP3    H167949   1.088   6.710   0.501 -1.6449  1.2557 -0.0024
15486TIP3    H267950   0.956   6.639   0.482 -0.3151 -1.4145  0.1950
15487TIP3   OH267951   5.938   2.434   2.359  0.7416 -0.1796  0.5975
15487TIP3    H167952   6.025   2.472   2.347  0.5418 -0.0282 -0.5123
15487TIP3    H267953   5.922   2.386   2.277  0.7004 -2.1158  1.6666
15488TIP3   OH267954   1.831   3.026  14.468 -0.0913 -0.5327 -0.2788
15488TIP3    H167955   1.805   3.006  14.378  0.8874  0.5772 -0.8412
15488TIP3    H267956   1.785   3.107  14.488  0.9727  0.1277 -0.4099
15489TIP3   OH267957   1.614   3.517   3.904  0.2635  0.0444 -0.3301
15489TIP3    H167958   1.617   3.586   3.838  0.3115  2.7887  2.3075
15489TIP3    H267959   1.520   3.501   3.917  0.1018  1.6446  0.8610
15490TIP3   OH267960   0.585   1.883   5.003 -0.2728  0.2049  0.4224
15490TIP3    H167961   0.517   1.898   5.068 -0.2342  0.0961  0.4873
15490TIP3    H267962   0.646   1.823   5.045 -1.2445 -1.4352 -0.4256
15491TIP3   OH267963   2.219   4.534  14.139 -0.5497 -0.0710 -0.0287
15491TIP3    H167964   2.156   4.462  14.134 -0.4164 -0.2899  1.1449
15491TIP3    H267965   2.259   4.524  14.225 -0.0211  0.9921 -0.1427
15492TIP3   OH267966   2.925   6.494  13.161 -0.3340  0.2581  0.4845
15492TIP3    H167967   2.935   6.448  13.245  1.4031 -0.3193 -0.0118
15492TIP3    H267968   2.997   6.558  13.160 -0.8576  0.8508 -0.2069
15493TIP3   OH267969   4.764   5.898  15.675  0.2251  0.1517  0.5099
15493TIP3    H167970   4.840   5.881  15.619  0.3910  1.2244  0.3858
15493TIP3    H267971   4.798   5.891  15.765  0.1661 -0.6450  0.4808
15494TIP3   OH267972   2.493   5.571   5.123  0.3425 -0.7057  0.6500
15494TIP3    H167973   2.542   5.491   5.101  1.4752  0.1902 -0.2367
15494TIP3    H267974   2.552   5.621   5.179 -0.6146 -0.7522  1.7377
15495TIP3   OH267975   0.554   2.274  15.395 -0.2416  0.2014 -0.0987
15495TIP3    H167976   0.557   2.306  15.486 -0.8146 -1.6984  0.6380
15495TIP3    H267977   0.646   2.266  15.370 -0.0792  1.2219  0.1234
15496TIP3   OH267978   4.832   4.947   6.071 -0.4520  0.0960  0.1499
15496TIP3    H167979   4.850   4.949   5.977  0.9944 -1.2283  0.3401
15496TIP3    H267980   4.765   4.880   6.081  1.9413 -2.4777  0.3017
15497TIP3   OH267981   6.308   4.883   1.554 -0.3996  0.0364  0.0887
15497TIP3    H167982   6.233   4.829   1.577 -0.8315  0.7994  0.4838
15497TIP3    H267983   6.293   4.907   1.462 -0.4260 -0.1491  0.0436
15498TIP3   OH267984   6.261   0.233  11.004 -0.2070 -0.9968  0.7139
15498TIP3    H167985   6.197   0.285  10.954  1.6263  0.1008 -0.6056
15498TIP3    H267986   6.245   0.257  11.095  0.4690  1.8870  0.1690
15499TIP3   OH267987   4.178   6.474  14.416  0.3912  0.3085  0.1890
15499TIP3    H167988   4.131   6.538  14.362  0.3232  0.5580  0.5433
15499TIP3    H267989   4.109   6.431  14.467  0.2677 -0.9583 -0.9670
15500TIP3   OH267990   1.145   2.927   0.883  0.0914 -0.2979  0.0532
15500TIP3    H167991   1.110   3.007   0.844  1.4305  1.6944  2.6617
15500TIP3    H267992   1.068   2.872   0.896 -0.9506  0.7581 -1.2736
15501TIP3   OH267993   5.962   1.954  11.635  0.0013  0.3829 -1.0085
15501TIP3    H167994   5.872   1.942  11.605  0.3067 -1.7720 -1.2786
15501TIP3    H267995   6.002   1.868  11.622  2.2694  1.4455 -1.4452
15502TIP3   OH267996   4.511   6.393  15.124 -0.1372 -0.1913 -0.0299
15502TIP3    H167997   4.458   6.466  15.092  0.0567 -0.0161  0.0431
15502TIP3    H267998   4.455   6.316  15.115 -0.1643 -0.1106 -0.5691
15503TIP3   OH267999   4.105   3.451   1.661 -0.4207  0.3708 -0.2523
15503TIP3    H168000   4.077   3.360   1.648 -0.8671  0.7648 -2.4609
15503TIP3    H268001   4.194   3.444   1.696 -0.9387 -0.8779  0.9391
15504TIP3   OH268002   0.455   3.739   0.811  0.1463 -0.2063 -0.2041
15504TIP3    H168003   0.477   3.815   0.865  2.4314  0.3854 -1.8201
15504TIP3    H268004   0.455   3.772   0.722 -3.0938 -1.2550 -0.7558
15505TIP3   OH268005   0.077   4.118  11.447 -0.8528 -0.3608  0.1035
15505TIP3    H168006   0.163   4.144  11.478 -0.5007  0.1713 -1.2664
15505TIP3    H268007   0.021   4.123  11.524 -0.5393  3.1778  0.2448
15506TIP3   OH268008   4.733   2.228   2.402  0.4818  0.3128 -0.0907
15506TIP3    H168009   4.657   2.284   2.381  0.4244 -0.0174 -0.7924
15506TIP3    H268010   4.800   2.255   2.339  1.4084  1.4803  1.3269
15507TIP3   OH268011   4.352   2.938   2.834 -0.3808 -0.2064 -0.3387
15507TIP3    H168012   4.356   2.845   2.810  1.0095 -0.3361  0.3235
15507TIP3    H268013   4.441   2.960   2.861 -0.8478  1.1515  0.1756
15508TIP3   OH268014   5.053   3.188  15.059 -0.1238  0.6132 -0.5060
15508TIP3    H168015   5.040   3.231  14.975 -0.6757 -1.2573 -1.4170
15508TIP3    H268016   4.973   3.208  15.109 -0.7555 -0.0321 -1.2382
15509TIP3   OH268017   3.877   5.542  14.090  0.2569 -0.2716 -0.3281
15509TIP3    H168018   3.929   5.553  14.169 -0.0250  1.1415 -0.3217
15509TIP3    H268019   3.805   5.604  14.099 -1.3829 -2.0722 -0.4103
15510TIP3   OH268020   2.982   3.357   2.780  0.0260  0.3605 -0.1986
15510TIP3    H168021   2.890   3.341   2.800 -0.7577  0.2221 -3.4353
15510TIP3    H268022   3.016   3.271   2.753  0.9461  0.5452  0.3179
15511TIP3   OH268023   3.475   2.185   3.322 -0.1677 -0.1297 -0.1531
15511TIP3    H168024   3.425   2.119   3.274  0.4940 -0.2453 -0.6946
15511TIP3    H268025   3.524   2.136   3.387  2.9015 -0.6676 -2.6626
15512TIP3   OH268026   6.303   1.667   0.699  0.2051  0.1217  0.5443
15512TIP3    H168027   6.240   1.599   0.676  1.8926 -1.3967  0.2034
15512TIP3    H268028   6.357   1.628   0.768  1.2277  1.0838  0.3318
15513TIP3   OH268029   2.283   4.610   0.540  0.3080  0.0893 -0.0885
15513TIP3    H168030   2.189   4.590   0.538  0.4671 -0.8401  0.9118
15513TIP3    H268031   2.317   4.571   0.459 -0.2897  1.2040 -0.9066
15514TIP3   OH268032   5.629   1.314   4.218  0.1476  0.2482 -0.0343
15514TIP3    H168033   5.566   1.368   4.171 -0.7790  0.2624  1.1610
15514TIP3    H268034   5.589   1.301   4.304  0.4371 -2.1448 -0.1989
15515TIP3   OH268035   5.944   1.146  15.823 -0.4536 -0.5885 -0.1713
15515TIP3    H168036   5.879   1.216  15.824  0.6873  0.4967 -0.0819
15515TIP3    H268037   5.958   1.126  15.915 -0.0032 -0.1832 -0.1479
15516TIP3   OH268038   0.965   0.609  17.010  0.9766 -0.4158 -0.3463
15516TIP3    H168039   0.933   0.545  16.947 -1.1150  0.8431 -0.6608
15516TIP3    H268040   0.931   0.578  17.094  0.8187 -0.2546 -0.3514
15517TIP3   OH268041   5.416   0.611  10.914  0.1970  0.1162 -0.1483
15517TIP3    H168042   5.370   0.538  10.956  0.0607  0.3020  0.0245
15517TIP3    H268043   5.394   0.602  10.821 -0.3557  0.3235 -0.0411
15518TIP3   OH268044   1.388   2.717   5.168 -0.1061  0.3181  0.4799
15518TIP3    H168045   1.330   2.781   5.128  0.7441 -0.1128 -1.5880
15518TIP3    H268046   1.332   2.643   5.191 -0.6161  0.5544 -0.0009
15519TIP3   OH268047   5.897   0.075   2.248 -0.1902  0.5398 -0.7026
15519TIP3    H168048   5.871   0.046   2.335 -1.1669 -0.4434 -1.3014
15519TIP3    H268049   5.993   0.076   2.251 -0.0737 -2.3413 -0.4544
15520TIP3   OH268050   0.777   6.088   3.327  0.5477  0.3639 -0.5954
15520TIP3    H168051   0.719   6.157   3.294 -0.3462  0.8030  1.7381
15520TIP3    H268052   0.727   6.007   3.311 -0.3749  0.6666  0.6190
15521TIP3   OH268053   5.591   4.711  12.682 -0.4458 -0.3085 -0.4218
15521TIP3    H168054   5.499   4.728  12.661 -0.1566  2.4896  0.2020
15521TIP3    H268055   5.641   4.761  12.617  0.5863 -0.0937  0.5048
15522TIP3   OH268056   2.610   2.569  14.416  0.3980  0.0118  0.1417
15522TIP3    H168057   2.687   2.520  14.444  0.5120  0.4385  0.5848
15522TIP3    H268058   2.614   2.651  14.466  1.2295  1.3121 -1.9536
15523TIP3   OH268059   1.113   3.194  17.222  0.6348 -0.3783  0.2052
15523TIP3    H168060   1.122   3.104  17.253 -0.6001 -0.0938  1.5377
15523TIP3    H268061   1.025   3.197  17.183  0.6473  0.2528  0.2164
15524TIP3   OH268062   0.809   0.564  16.507 -0.3076 -0.0752 -0.5918
15524TIP3    H168063   0.879   0.586  16.569 -0.6080  1.5929 -0.7910
15524TIP3    H268064   0.806   0.638  16.446 -1.5683 -0.5871 -1.1966
15525TIP3   OH268065   4.680   1.867  14.706 -0.0601  0.0260 -0.1345
15525TIP3    H168066   4.628   1.941  14.677 -0.2603 -0.4564 -1.0679
15525TIP3    H268067   4.663   1.859  14.800 -0.5114  0.7728 -0.1539
15526TIP3   OH268068   5.640   0.388  13.001 -0.4070  0.2657 -0.2774
15526TIP3    H168069   5.568   0.366  12.941 -0.2954  0.6456 -0.5527
15526TIP3    H268070   5.596   0.425  13.078 -0.4881  0.9244 -0.6326
15527TIP3   OH268071   3.170   0.247   2.840  0.4868 -0.4085 -0.0414
15527TIP3    H168072   3.229   0.319   2.815  0.4373  0.1257  1.2825
15527TIP3    H268073   3.129   0.278   2.921 -0.2930 -1.5208 -0.0006
15528TIP3   OH268074   4.691   2.537  13.105  0.4223 -0.0367 -0.3100
15528TIP3    H168075   4.647   2.548  13.190 -1.2840  0.8572 -1.2474
15528TIP3    H268076   4.779   2.573  13.119  0.6530 -1.1243  1.4198
15529TIP3   OH268077   5.526   3.032   6.800  0.0856 -0.4432 -0.3349
15529TIP3    H168078   5.591   2.965   6.778 -0.7314 -1.0444 -1.0202
15529TIP3    H268079   5.449   2.982   6.828 -0.3399  0.2238 -0.2897
15530TIP3   OH268080   4.057   2.039   3.840  0.1974 -0.8896 -0.1580
15530TIP3    H168081   4.130   2.053   3.901  0.8275 -1.0429 -0.8648
15530TIP3    H268082   4.095   1.988   3.768 -0.6446 -1.0980 -0.4694
15531TIP3   OH268083   0.923   2.086  15.066  0.0630 -0.0112 -0.2013
15531TIP3    H168084   0.864   2.099  14.992 -0.9448  2.3740  0.9345
15531TIP3    H268085   1.007   2.120  15.036 -0.0492 -0.1215 -0.6387
15532TIP3   OH268086   1.407   1.094   2.340 -0.1810 -0.2476  0.2593
15532TIP3    H168087   1.438   1.008   2.367 -0.4046 -0.7637 -1.0351
15532TIP3    H268088   1.414   1.093   2.244 -0.7900  0.9387  0.1782
15533TIP3   OH268089   2.088   1.995  15.764  0.0973  0.2895  0.6230
15533TIP3    H168090   2.073   1.987  15.670  0.4514 -0.0187  0.5938
15533TIP3    H268091   2.138   1.917  15.787  0.9554  0.9063  0.8736
15534TIP3   OH268092   6.720   0.677  14.221  0.1626 -0.1188 -0.2002
15534TIP3    H168093   6.730   0.750  14.283 -0.0591  0.0450 -0.3510
15534TIP3    H268094   6.625   0.665  14.215  0.2327 -1.6770  1.2634
15535TIP3   OH268095   1.477   3.447  15.974 -0.6820  0.2650 -0.4375
15535TIP3    H168096   1.424   3.383  15.927 -0.1379 -0.2203 -0.3950
15535TIP3    H268097   1.563   3.406  15.983 -0.3184  1.0168 -0.4351
15536TIP3   OH268098   0.511   4.253  13.161 -0.3423  0.5088  0.1093
15536TIP3    H168099   0.492   4.161  13.144 -1.5619  0.6725  0.4816
15536TIP3    H268100   0.567   4.253  13.238 -0.3744  0.0688  0.1340
15537TIP3   OH268101   0.039   3.184  13.856  0.4884  0.5713  0.8932
15537TIP3    H168102   0.006   3.096  13.871 -1.4165  1.0082 -0.3570
15537TIP3    H268103  -0.029   3.242  13.891 -0.9512  1.5259 -3.0426
15538TIP3   OH268104   3.796   3.877   2.732 -0.0433  0.2466  0.1360
15538TIP3    H168105   3.787   3.925   2.649  0.7774  0.3212  0.0872
15538TIP3    H268106   3.813   3.787   2.705 -0.3867  0.1536  0.2275
15539TIP3   OH268107   2.727   3.447   5.629  0.0989 -0.0375  0.3478
15539TIP3    H168108   2.655   3.447   5.693  1.1424  1.3229  1.5760
15539TIP3    H268109   2.802   3.414   5.678  0.7753  0.3976 -0.3762
15540TIP3   OH268110   0.356   2.375  16.885 -0.2687  0.2491  0.2804
15540TIP3    H168111   0.315   2.307  16.939 -0.0427 -1.8190 -1.9615
15540TIP3    H268112   0.317   2.456  16.916 -2.4525 -1.1338  1.4843
15541TIP3   OH268113   0.924   3.851   2.516  0.2728 -0.5866 -0.0852
15541TIP3    H168114   1.010   3.825   2.483 -0.1361 -2.0422 -0.0853
15541TIP3    H268115   0.874   3.770   2.519 -0.4208 -0.1536  1.9960
15542TIP3   OH268116   2.668   5.870  11.417  0.2359  0.1085 -0.0196
15542TIP3    H168117   2.763   5.877  11.418  0.1899  1.3222 -1.3752
15542TIP3    H268118   2.638   5.954  11.452 -0.3405  0.1039 -0.4942
15543TIP3   OH268119   4.584   2.767  13.880 -0.7230 -0.5760 -0.3871
15543TIP3    H168120   4.584   2.710  13.957 -1.6356 -1.2467 -0.8667
15543TIP3    H268121   4.632   2.845  13.908 -2.4565 -0.0707  1.4279
15544TIP3   OH268122   5.414   6.133  14.331 -0.1522  0.4083 -0.9547
15544TIP3    H168123   5.491   6.183  14.305 -1.8259  3.2657 -0.7319
15544TIP3    H268124   5.413   6.138  14.426 -0.7892  0.6678 -0.9718
15545TIP3   OH268125   0.705   2.341  16.452  0.5167  0.0233  0.4148
15545TIP3    H168126   0.676   2.298  16.532 -0.0683  0.3268  0.3759
15545TIP3    H268127   0.677   2.432  16.463  0.7366  0.1414  0.0106
15546TIP3   OH268128   3.449   5.579   0.626  0.1280 -0.1786 -0.5164
15546TIP3    H168129   3.515   5.597   0.558  0.8491  1.1400  0.4992
15546TIP3    H268130   3.486   5.505   0.675  2.6049  2.5069  2.0828
15547TIP3   OH268131   3.996   4.427  13.748  0.4975  0.1256  0.3730
15547TIP3    H168132   4.011   4.446  13.655  0.2945 -1.1732  0.0546
15547TIP3    H268133   3.918   4.477  13.770  0.6864  0.6412 -0.0815
15548TIP3   OH268134   0.794   3.951  12.833 -0.4410  0.2551  0.2057
15548TIP3    H168135   0.757   3.908  12.756 -0.9685  1.5083 -0.2634
15548TIP3    H268136   0.886   3.923  12.835 -0.6086 -0.3600 -0.4548
15549TIP3   OH268137   1.760   4.217  12.562 -0.0838  0.8802 -0.2305
15549TIP3    H168138   1.815   4.206  12.484 -1.0065  0.2858 -0.8157
15549TIP3    H268139   1.683   4.263  12.531 -1.2861 -0.9320 -0.0833
15550TIP3   OH268140   4.388   2.184   4.720 -0.7698 -1.4641 -0.0670
15550TIP3    H168141   4.379   2.134   4.639  4.7392 -1.8997 -0.7487
15550TIP3    H268142   4.404   2.118   4.787 -1.6799 -0.9069  0.7258
15551TIP3   OH268143   0.122   6.226   3.840  0.0816  0.3683 -0.0766
15551TIP3    H168144   0.174   6.183   3.908 -1.4187 -0.1117  0.8221
15551TIP3    H268145   0.077   6.297   3.885  0.1799  0.9593 -0.8943
15552TIP3   OH268146   4.091   3.145  17.085  0.2310 -0.1559  0.0154
15552TIP3    H168147   4.127   3.157  16.997  1.4199  0.4239  0.5547
15552TIP3    H268148   4.002   3.114  17.070 -0.4247  2.1453 -1.4461
15553TIP3   OH268149   5.547   4.970   1.229 -0.4695 -0.0973 -0.1903
15553TIP3    H168150   5.470   4.938   1.276 -0.4104 -1.0282 -0.7065
15553TIP3    H268151   5.527   5.062   1.211 -1.2502 -0.1960  0.1108
15554TIP3   OH268152   6.038   2.764   5.894  0.0281  0.3406  0.1751
15554TIP3    H168153   5.968   2.750   5.958 -0.2296  1.6741  0.2255
15554TIP3    H268154   6.098   2.690   5.907 -1.2507 -0.7230  0.2739
15555TIP3   OH268155   3.594   5.194  12.378 -0.1580 -0.6094  0.2000
15555TIP3    H168156   3.534   5.249  12.328 -0.4405 -2.0566 -1.1142
15555TIP3    H268157   3.668   5.179  12.319 -0.0667 -1.5881  0.5428
15556TIP3   OH268158   6.278   4.299   3.502  0.1898 -0.3379 -0.2475
15556TIP3    H168159   6.368   4.327   3.484  0.4667  0.7747  2.3027
15556TIP3    H268160   6.224   4.369   3.466  0.4461 -0.2835 -0.5303
15557TIP3   OH268161   0.612   2.418   3.388  0.4337 -0.2621  0.2182
15557TIP3    H168162   0.702   2.408   3.357  0.7874  0.7129  0.8710
15557TIP3    H268163   0.558   2.409   3.309  1.1149 -0.5825 -0.2226
15558TIP3   OH268164   4.116   2.172  12.377 -0.3511 -0.0603  0.3727
15558TIP3    H168165   4.137   2.115  12.451 -1.5585 -1.2520 -0.1508
15558TIP3    H268166   4.036   2.217  12.403 -1.0038 -0.7762 -0.3111
15559TIP3   OH268167   2.761   6.686  12.005 -0.2611  0.0679 -0.2858
15559TIP3    H168168   2.695   6.706  12.072  0.9606 -0.1504  1.0239
15559TIP3    H268169   2.741   6.596  11.979 -0.4430 -0.0291  0.1644
15560TIP3   OH268170   1.489   5.051  15.196 -0.0779  0.0748 -0.0950
15560TIP3    H168171   1.433   5.108  15.144  0.1899 -0.4410 -0.9791
15560TIP3    H268172   1.467   5.070  15.287 -1.9054 -0.3262 -0.4211
15561TIP3   OH268173   6.084   6.277   6.435  0.3616 -0.1723 -0.1459
15561TIP3    H168174   6.073   6.187   6.406 -1.3107  0.7757 -2.8611
15561TIP3    H268175   6.006   6.322   6.403  0.8557  2.1406  1.6380
15562TIP3   OH268176   3.252   2.050   4.690 -0.2827 -0.0896 -0.2628
15562TIP3    H168177   3.305   2.040   4.611  0.6138 -0.3707  0.3568
15562TIP3    H268178   3.199   1.970   4.694  0.6488 -0.7066  0.1198
15563TIP3   OH268179   5.458   0.855   2.875  0.0280  0.6691  0.2436
15563TIP3    H168180   5.365   0.864   2.857 -0.4982  1.3167  2.8393
15563TIP3    H268181   5.487   0.943   2.898  0.8957  0.2223  0.9352
15564TIP3   OH268182   1.703   4.765  10.832 -0.3846  0.2045  0.3928
15564TIP3    H168183   1.716   4.789  10.924  1.8959  1.8322 -0.2551
15564TIP3    H268184   1.788   4.730  10.804 -1.1983 -0.7836 -0.9825
15565TIP3   OH268185   3.697   6.809   4.408  0.1932 -0.2493 -0.0916
15565TIP3    H168186   3.630   6.877   4.398  0.4908  0.1984  0.8026
15565TIP3    H268187   3.779   6.855   4.391  0.4326 -0.2575  0.9563
15566TIP3   OH268188   3.996   1.888   3.318 -0.0360  0.3369  0.4085
15566TIP3    H168189   3.966   1.903   3.407 -1.1226 -1.0761  0.3147
15566TIP3    H268190   4.076   1.835   3.328 -0.9369 -1.0513  0.5490
15567TIP3   OH268191   2.398   0.815   3.589  0.1106  0.2954 -0.3691
15567TIP3    H168192   2.372   0.797   3.499 -1.4516 -0.1802  0.1275
15567TIP3    H268193   2.454   0.892   3.584 -0.1772  0.4403 -1.7073
15568TIP3   OH268194   3.686   0.573  15.293  0.1954  0.4079 -0.3699
15568TIP3    H168195   3.689   0.668  15.305  1.6020  0.3994 -0.5793
15568TIP3    H268196   3.694   0.559  15.199 -0.5391  0.0775 -0.3998
15569TIP3   OH268197   5.100   2.733  11.544 -0.6029 -0.3775  0.0183
15569TIP3    H168198   5.105   2.805  11.607  0.9775  0.7539 -1.3101
15569TIP3    H268199   5.128   2.656  11.594  1.0068  0.5603  0.6641
15570TIP3   OH268200   5.112   3.532   1.853  0.0287 -0.3035  0.6188
15570TIP3    H168201   5.206   3.519   1.852  0.0553 -0.6691 -2.5848
15570TIP3    H268202   5.100   3.623   1.826 -0.5690 -0.2816  0.9254
15571TIP3   OH268203   3.020   5.438   2.150 -0.0698  0.0119  0.3327
15571TIP3    H168204   2.946   5.492   2.179  0.0803  1.4804 -1.7460
15571TIP3    H268205   2.980   5.374   2.091  0.1921  0.1951 -0.0460
15572TIP3   OH268206   1.967   4.376  12.130 -0.3151 -0.1832 -0.1703
15572TIP3    H168207   1.931   4.379  12.041 -0.4227 -2.4330 -0.2598
15572TIP3    H268208   2.028   4.450  12.133 -2.4321  1.7605 -1.0869
15573TIP3   OH268209   0.596   5.873  11.094 -0.1883  0.3894 -0.5402
15573TIP3    H168210   0.604   5.959  11.135  0.4009  0.4099 -0.6938
15573TIP3    H268211   0.516   5.836  11.132 -0.8446  1.2862 -0.9933
15574TIP3   OH268212   5.377   0.023  15.598  0.5155  0.2698  0.2528
15574TIP3    H168213   5.424  -0.060  15.587 -0.8369 -0.5597  0.4903
15574TIP3    H268214   5.363   0.055  15.509 -2.1767 -1.6802 -0.1720
15575TIP3   OH268215   6.077   5.273  12.098 -0.2331  0.0810 -0.1899
15575TIP3    H168216   6.028   5.345  12.138  0.5166 -0.0569  1.0232
15575TIP3    H268217   6.071   5.289  12.004 -1.5195  0.7696 -0.0117
15576TIP3   OH268218   4.945   2.672   3.316 -0.2264  0.2122  0.0673
15576TIP3    H168219   4.870   2.616   3.295  0.5289 -1.3158  1.1872
15576TIP3    H268220   4.939   2.684   3.411  1.3759 -0.6253  0.2991
15577TIP3   OH268221   4.806   2.538  15.959  0.0679 -0.1323  0.1773
15577TIP3    H168222   4.721   2.494  15.970 -0.9999  1.7034 -0.3893
15577TIP3    H268223   4.843   2.498  15.880 -1.1796  0.4043 -0.7068
15578TIP3   OH268224   0.589   2.594  11.431  0.4134  0.2764 -0.4001
15578TIP3    H168225   0.624   2.605  11.342  1.7798 -1.6030 -0.1490
15578TIP3    H268226   0.505   2.551  11.418  0.3126  0.5800 -0.7879
15579TIP3   OH268227   2.828   1.228  14.747 -0.3565 -0.7075  0.2416
15579TIP3    H168228   2.855   1.301  14.691 -0.5825 -0.6551  0.1964
15579TIP3    H268229   2.756   1.264  14.799  0.5346 -0.4361  1.3216
15580TIP3   OH268230   5.211   5.716  11.612 -0.0504 -0.5704  0.2898
15580TIP3    H168231   5.175   5.752  11.694 -1.0867  0.6461 -0.6471
15580TIP3    H268232   5.301   5.748  11.609 -0.2019 -0.0909  0.6721
15581TIP3   OH268233   6.020   2.619  13.699  0.5296  0.1236 -0.6344
15581TIP3    H168234   5.974   2.688  13.747  1.6391 -0.6215  1.7039
15581TIP3    H268235   6.017   2.543  13.758  2.5146 -0.6850 -1.4713
15582TIP3   OH268236   0.706   1.591  12.766  0.0700 -0.9356  0.7404
15582TIP3    H168237   0.621   1.610  12.727  0.6963 -1.2766 -0.8813
15582TIP3    H268238   0.766   1.654  12.724  0.5581 -0.3754  2.2033
15583TIP3   OH268239   4.717   4.296   6.087 -0.2147 -0.3756 -0.4231
15583TIP3    H168240   4.761   4.251   6.015  0.6523  1.2407 -0.9634
15583TIP3    H268241   4.767   4.378   6.098 -1.8217  0.5448  0.3681
15584TIP3   OH268242   3.940   2.185   5.238  1.1317  0.2021 -0.0647
15584TIP3    H168243   3.989   2.262   5.267  1.0793  0.8642 -1.6088
15584TIP3    H268244   3.990   2.152   5.164  0.9839 -1.0892  0.3965
15585TIP3   OH268245   2.389   6.116   0.704 -0.0783  0.4678  0.1759
15585TIP3    H168246   2.412   6.209   0.699  1.4751  0.0670 -0.7506
15585TIP3    H268247   2.473   6.070   0.705 -0.8211 -0.9484  0.3292
15586TIP3   OH268248   2.592   0.228   3.820  0.4408 -0.1621 -0.0816
15586TIP3    H168249   2.635   0.308   3.851  2.2906 -0.7880 -0.9481
15586TIP3    H268250   2.500   0.240   3.846  0.9549  1.5411  1.1747
15587TIP3   OH268251   6.660   4.617   5.624  0.2781 -0.1000  0.1800
15587TIP3    H168252   6.723   4.627   5.695  0.0286 -0.2050  0.4212
15587TIP3    H268253   6.713   4.606   5.546  0.5568  0.1008  0.3381
15588TIP3   OH268254   3.787   0.349  16.481 -0.3372  0.1660  0.8919
15588TIP3    H168255   3.740   0.428  16.505 -0.5889  0.3677 -0.2209
15588TIP3    H268256   3.719   0.282  16.471 -0.4526  0.4918 -0.8628
15589TIP3   OH268257   5.575   1.162   1.350 -0.0845 -0.0879  0.6344
15589TIP3    H168258   5.499   1.121   1.308 -0.5043  0.8185  0.4951
15589TIP3    H268259   5.559   1.256   1.342 -0.1704  0.1213  2.8426
15590TIP3   OH268260   4.985   2.181  13.617 -0.4363  0.0067  0.0691
15590TIP3    H168261   4.952   2.209  13.531  0.9385 -2.3837 -1.3740
15590TIP3    H268262   5.077   2.159  13.600 -0.3259 -1.2026  1.9969
15591TIP3   OH268263   1.161   6.595  10.700  0.5009  0.0101  0.4281
15591TIP3    H168264   1.089   6.575  10.760  0.0519 -3.6656 -1.0730
15591TIP3    H268265   1.131   6.561  10.615  3.7789 -1.2334 -0.3602
15592TIP3   OH268266   2.096   4.660   4.107 -0.3033 -0.0058  0.3597
15592TIP3    H168267   2.105   4.680   4.200 -2.5079 -1.1797  0.9006
15592TIP3    H268268   2.142   4.577   4.095 -1.3980 -0.6942  0.7977
15593TIP3   OH268269   0.373   0.947  11.679  0.3591  0.4933  0.2252
15593TIP3    H168270   0.304   1.001  11.641  0.0379 -1.5776 -2.5419
15593TIP3    H268271   0.362   0.955  11.773 -1.3218  3.0379 -0.0994
15594TIP3   OH268272   1.537   0.736  17.144  0.2538  0.3852  0.5134
15594TIP3    H168273   1.517   0.642  17.151 -1.9255  0.8414  1.3488
15594TIP3    H268274   1.618   0.740  17.093  0.8551 -1.9750  1.1853
15595TIP3   OH268275   0.306   4.743  14.530  0.1830 -0.3047  0.1814
15595TIP3    H168276   0.328   4.741  14.623  2.5281 -2.0703 -0.3110
15595TIP3    H268277   0.337   4.829  14.500 -0.2987  0.1441  0.9500
15596TIP3   OH268278   0.907   2.936  14.526  0.3161 -0.7830  0.4989
15596TIP3    H168279   0.898   3.031  14.538  1.1894 -0.6982  0.5261
15596TIP3    H268280   0.885   2.899  14.611 -3.0284 -0.8406 -0.2475
15597TIP3   OH268281   4.945   6.633  16.767 -0.3905  0.4177  0.1632
15597TIP3    H168282   5.025   6.624  16.819 -2.1558 -1.0541  2.8863
15597TIP3    H268283   4.976   6.641  16.677  2.7843 -1.3624  0.9312
15598TIP3   OH268284   5.879   3.553  15.292  0.0828  0.4585  0.0052
15598TIP3    H168285   5.967   3.587  15.308  0.1803  0.5004 -0.6098
15598TIP3    H268286   5.825   3.631  15.280  0.0787  0.4195 -0.2281
15599TIP3   OH268287   1.675   2.846   4.298 -0.0760 -0.0776  0.1115
15599TIP3    H168288   1.599   2.872   4.247  0.1956 -0.8346 -0.7041
15599TIP3    H268289   1.717   2.928   4.324  0.1862  0.3282 -1.5072
15600TIP3   OH268290   5.574   3.000  12.892 -0.1217  0.4692 -0.1163
15600TIP3    H168291   5.539   2.936  12.955 -0.8666 -1.2738 -2.1678
15600TIP3    H268292   5.567   3.084  12.936  0.2245 -0.7574  2.4509
15601TIP3   OH268293   3.760   4.401  16.102 -0.4507 -0.0849  0.0615
15601TIP3    H168294   3.667   4.386  16.083 -0.3464 -0.9645  0.1936
15601TIP3    H268295   3.803   4.390  16.017 -0.2516 -1.6699  0.3470
15602TIP3   OH268296   3.000   4.097  14.402  0.1965  0.0590 -0.2361
15602TIP3    H168297   3.012   4.151  14.480 -0.9727 -0.6953  0.5006
15602TIP3    H268298   2.912   4.120  14.370  0.4528 -0.0289 -1.0340
15603TIP3   OH268299   4.594   3.311  15.403 -0.2294  0.3357  0.3095
15603TIP3    H168300   4.538   3.263  15.341  1.2915 -0.7629 -0.2835
15603TIP3    H268301   4.606   3.251  15.476  1.1990  0.0023 -0.1600
15604TIP3   OH268302   5.823   0.261  15.225 -0.0097  0.2896  0.4903
15604TIP3    H168303   5.778   0.262  15.310  0.4091  0.5704  0.7117
15604TIP3    H268304   5.855   0.172  15.216 -1.1119 -0.0799  0.0584
15605TIP3   OH268305   2.297   6.560  17.251 -0.3537 -0.0724  0.0321
15605TIP3    H168306   2.272   6.506  17.176 -3.6109  0.3334  0.6531
15605TIP3    H268307   2.343   6.635  17.213 -1.8456  0.0909 -1.5910
15606TIP3   OH268308   3.875   6.760   3.298  0.4283 -0.7740  0.9263
15606TIP3    H168309   3.964   6.733   3.277  0.2016 -1.0906  0.3380
15606TIP3    H268310   3.820   6.714   3.235  0.1205  2.1660 -1.1579
15607TIP3   OH268311   4.667   2.537   2.228 -0.2596 -0.4486  0.4006
15607TIP3    H168312   4.748   2.588   2.232  1.5416 -3.1588  2.2432
15607TIP3    H268313   4.660   2.510   2.137  0.1808  0.8526 -0.0434
15608TIP3   OH268314   5.872   2.729   3.179  0.5368  0.4516 -0.6935
15608TIP3    H168315   5.871   2.793   3.249  0.9540 -0.8041  0.5021
15608TIP3    H268316   5.959   2.735   3.141  1.1473 -0.4991  0.4944
15609TIP3   OH268317   6.382   1.706  12.514 -0.3377  0.0510 -0.3160
15609TIP3    H168318   6.456   1.700  12.454 -1.3948 -0.3493 -1.6524
15609TIP3    H268319   6.389   1.628  12.568  1.3165  1.0236  0.9680
15610TIP3   OH268320   5.229   6.801   2.625 -0.3058 -0.2522  0.2940
15610TIP3    H168321   5.271   6.822   2.542 -1.3588  0.5540 -0.0718
15610TIP3    H268322   5.301   6.789   2.686  0.5759 -2.4744 -1.0477
15611TIP3   OH268323   3.644   1.856  13.599 -0.3718 -0.6808 -0.0156
15611TIP3    H168324   3.739   1.874  13.602 -0.3841 -0.6590  0.2674
15611TIP3    H268325   3.626   1.841  13.506 -0.0058 -1.1493 -0.0177
15612TIP3   OH268326   5.274   1.584  12.835  0.2612  0.1983 -0.0420
15612TIP3    H168327   5.264   1.489  12.841  0.6640  0.0915 -0.8751
15612TIP3    H268328   5.294   1.611  12.925  1.9848 -0.7519 -0.0890
15613TIP3   OH268329   3.701   2.118  14.875 -0.2243  0.1471 -0.4127
15613TIP3    H168330   3.730   2.166  14.953 -0.4932  0.6929 -0.6407
15613TIP3    H268331   3.730   2.029  14.890 -0.2091  0.2577  0.2866
15614TIP3   OH268332   2.745   5.118   4.740  0.2805 -0.8620  0.2900
15614TIP3    H168333   2.829   5.149   4.774  0.1396  0.9984 -0.9240
15614TIP3    H268334   2.681   5.147   4.805  0.5114 -2.1307  1.1286
15615TIP3   OH268335   4.123   1.883  11.903  0.2908  0.5211  0.1714
15615TIP3    H168336   4.149   1.973  11.923  0.8957  0.8988 -2.0315
15615TIP3    H268337   4.205   1.835  11.894 -0.0032 -0.0357  0.4191
15616TIP3   OH268338   1.916   2.092   5.593  0.3795  0.0488 -0.3514
15616TIP3    H168339   2.009   2.107   5.607 -0.0925  2.5623  0.7661
15616TIP3    H268340   1.890   2.160   5.531 -1.3367  2.0021  2.2780
15617TIP3   OH268341   4.306   6.161   0.341 -0.6129 -0.1473  0.1808
15617TIP3    H168342   4.218   6.197   0.344 -0.0583  1.2382  0.8506
15617TIP3    H268343   4.312   6.107   0.420 -1.2051 -1.1375 -0.4372
15618TIP3   OH268344   0.736   3.353  12.749  0.1688 -0.7934  0.6165
15618TIP3    H168345   0.666   3.373  12.686  0.4937 -2.3407 -0.2815
15618TIP3    H268346   0.693   3.361  12.834 -0.9007 -0.9287  0.1152
15619TIP3   OH268347   3.065   3.639   2.375  0.7558  0.0423  0.4032
15619TIP3    H168348   3.097   3.725   2.404  1.7240 -0.5261  1.0369
15619TIP3    H268349   2.992   3.620   2.434  0.4270  0.4999  0.1512
15620TIP3   OH268350   3.415   5.341   3.658  0.3308  0.5608 -0.1483
15620TIP3    H168351   3.410   5.246   3.672  0.0802  0.7638  1.3295
15620TIP3    H268352   3.405   5.352   3.563 -1.7379 -0.7601 -0.1455
15621TIP3   OH268353   0.374   5.495   4.407  0.3538  0.1424  0.2406
15621TIP3    H168354   0.355   5.401   4.399  0.8066 -0.0808  1.6298
15621TIP3    H268355   0.449   5.499   4.466 -0.7883  1.4732  1.6827
15622TIP3   OH268356   0.056   0.798  13.487 -0.1535  0.4455 -0.6249
15622TIP3    H168357  -0.012   0.848  13.442  0.6323  0.3016 -2.0478
15622TIP3    H268358   0.012   0.720  13.519 -0.7466  0.5819 -1.1056
15623TIP3   OH268359   4.912   3.322   1.484 -0.5280 -0.0550  0.2967
15623TIP3    H168360   4.895   3.416   1.472  1.3331  0.1673 -1.0162
15623TIP3    H268361   4.838   3.291   1.537 -1.0072  2.2117  1.0748
15624TIP3   OH268362   6.478   5.832  15.985  0.5950  0.0525 -0.2484
15624TIP3    H168363   6.522   5.748  15.971 -0.8697 -0.5472 -1.4290
15624TIP3    H268364   6.549   5.891  16.012  1.8028 -1.3289 -0.2617
15625TIP3   OH268365   5.083   5.997   4.570  0.0723  0.1168  0.3659
15625TIP3    H168366   5.107   6.061   4.637  1.4620 -2.2128  2.2470
15625TIP3    H268367   5.146   6.013   4.499  0.8694  0.3718  1.1098
15626TIP3   OH268368   4.628   2.074   5.256  0.9588  0.2795  0.0417
15626TIP3    H168369   4.592   2.067   5.344  0.1154  0.2664 -0.2959
15626TIP3    H268370   4.636   1.984   5.226  2.4171  0.2007  0.5404
15627TIP3   OH268371   3.299   5.382  15.317 -0.3099  1.2625 -0.2388
15627TIP3    H168372   3.255   5.342  15.243  1.3292  0.6490 -0.9234
15627TIP3    H268373   3.391   5.359  15.306  0.1459  2.1519  1.3510
15628TIP3   OH268374   5.740   1.523   1.099 -0.0889 -0.0973 -0.2878
15628TIP3    H168375   5.790   1.604   1.113  0.7882 -0.4080 -1.4971
15628TIP3    H268376   5.774   1.462   1.164  0.9886 -0.2333 -0.9486
15629TIP3   OH268377   0.355   3.714   2.052  0.1640 -0.1918  0.6988
15629TIP3    H168378   0.295   3.779   2.088  0.7426  0.3302  0.7283
15629TIP3    H268379   0.441   3.739   2.085  0.5021 -0.5332  0.0972
15630TIP3   OH268380   5.267   3.326   5.815  0.0421  0.3098 -0.3525
15630TIP3    H168381   5.197   3.268   5.785  0.8522  0.4115 -2.5912
15630TIP3    H268382   5.279   3.388   5.744  0.9894  1.6189  0.8949
15631TIP3   OH268383   3.049   2.833  14.176  0.0632  0.1751  0.5013
15631TIP3    H168384   3.051   2.917  14.222 -1.1773  0.0236  0.8539
15631TIP3    H268385   2.956   2.815  14.161  0.3595 -0.6197 -0.5364
15632TIP3   OH268386   5.847   5.889   2.927  0.5106 -0.3709 -0.4464
15632TIP3    H168387   5.930   5.881   2.975 -0.0243  0.4109  0.6601
15632TIP3    H268388   5.785   5.919   2.993 -1.2083 -3.0841 -0.7049
15633TIP3   OH268389   1.826   5.127  13.764  0.4679 -0.0024 -0.7195
15633TIP3    H168390   1.795   5.114  13.674 -0.2225  1.9185 -0.8162
15633TIP3    H268391   1.918   5.101  13.762  0.2777 -0.6517 -1.7985
15634TIP3   OH268392   6.417   5.549  14.439  0.6045 -0.4879  0.0758
15634TIP3    H168393   6.391   5.493  14.513 -1.5300 -1.5109 -1.3606
15634TIP3    H268394   6.346   5.612  14.430  1.4394  0.4184 -0.3612
15635TIP3   OH268395   1.045   2.288  11.427 -0.0904  0.5206  0.4534
15635TIP3    H168396   1.072   2.196  11.429  1.5846  0.9429 -0.6429
15635TIP3    H268397   1.086   2.327  11.504 -0.6191  0.3909  0.7990
15636TIP3   OH268398   0.043   4.278  10.529 -0.1001 -0.2288 -0.2245
15636TIP3    H168399   0.065   4.240  10.614 -0.0448 -0.9784 -0.5623
15636TIP3    H268400   0.128   4.296  10.488 -0.0988 -1.1588 -0.6696
15637TIP3   OH268401   2.685   4.821   2.079  0.2324  0.1361  0.5255
15637TIP3    H168402   2.591   4.804   2.089 -0.0445  1.2350  0.0006
15637TIP3    H268403   2.721   4.811   2.167 -0.5349  0.5779  0.9043
15638TIP3   OH268404   2.548   6.750  15.500  0.2670 -0.7282  0.2358
15638TIP3    H168405   2.453   6.749  15.511  0.1796  1.3989  0.0919
15638TIP3    H268406   2.562   6.738  15.406  0.0636  0.2510  0.0747
15639TIP3   OH268407   0.951   3.508  12.443 -0.5918  0.1970 -0.3311
15639TIP3    H168408   0.952   3.597  12.407 -0.1939  0.4589  0.3137
15639TIP3    H268409   1.028   3.467  12.404 -0.3571  0.3694 -0.0477
15640TIP3   OH268410   5.184   4.016  15.181 -0.6389  0.3641  0.5857
15640TIP3    H168411   5.272   4.050  15.168 -0.9856  1.9175  1.9009
15640TIP3    H268412   5.197   3.927  15.213  0.4002  0.1819 -0.2754
15641TIP3   OH268413   1.059   5.432   0.550 -0.5167 -0.7657 -0.2998
15641TIP3    H168414   0.982   5.482   0.575  0.5963  0.3077  1.1681
15641TIP3    H268415   1.049   5.416   0.456 -1.3976  1.3779 -0.6216
15642TIP3   OH268416   5.998   3.670   1.553 -0.1911  0.4299  0.1013
15642TIP3    H168417   6.035   3.581   1.549 -1.4516 -0.2047  1.6607
15642TIP3    H268418   5.920   3.666   1.498 -1.4096 -0.0814  1.7689
15643TIP3   OH268419   2.927   4.036  15.231 -0.7607  0.1450 -0.2082
15643TIP3    H168420   2.874   4.059  15.155 -0.2608  0.9751 -0.3166
15643TIP3    H268421   2.968   3.952  15.207  1.2761  1.5202 -1.8953
15644TIP3   OH268422   3.435   1.202   1.628 -0.0381 -0.1128 -0.2428
15644TIP3    H168423   3.391   1.133   1.676 -1.3246  1.1762  0.4989
15644TIP3    H268424   3.468   1.261   1.696 -0.8897  1.1389 -0.8803
15645TIP3   OH268425   6.400   0.695  13.083 -0.2616 -0.3862  0.5236
15645TIP3    H168426   6.495   0.692  13.094 -0.0537  1.7155 -0.2078
15645TIP3    H268427   6.387   0.682  12.989 -0.5216  1.2289  0.3111
15646TIP3   OH268428   5.701   4.889   2.747 -0.4080  0.3283 -0.4586
15646TIP3    H168429   5.617   4.935   2.754 -0.7326 -0.4354  1.0622
15646TIP3    H268430   5.677   4.797   2.743  0.3477  0.1318 -0.5560
15647TIP3   OH268431   0.051   2.184  13.052  0.1213 -0.7486  0.1167
15647TIP3    H168432   0.126   2.160  12.997 -0.2186  1.1531 -1.3166
15647TIP3    H268433  -0.025   2.155  13.002 -0.1560 -0.4315  0.3544
15648TIP3   OH268434   3.322   4.384   1.752  0.5757 -0.9143 -0.2071
15648TIP3    H168435   3.350   4.299   1.718  0.1432 -0.7397 -1.0188
15648TIP3    H268436   3.284   4.429   1.677 -0.1644 -0.4111  0.4534
15649TIP3   OH268437   5.838   5.105   4.689  0.0989 -0.1093 -0.4548
15649TIP3    H168438   5.840   5.116   4.594 -2.6462  0.2594 -0.5479
15649TIP3    H268439   5.781   5.029   4.703 -0.7603  0.7378  0.9091
15650TIP3   OH268440   1.089   5.796  16.185  0.2529 -0.5922  0.2291
15650TIP3    H168441   1.115   5.827  16.271  0.5533  1.3698 -0.5286
15650TIP3    H268442   0.994   5.810  16.182  0.1128 -1.4114  0.5088
15651TIP3   OH268443   5.744   4.214  14.616  0.2087 -0.3799 -0.0121
15651TIP3    H168444   5.786   4.218  14.702  1.5617 -0.7406 -0.6268
15651TIP3    H268445   5.661   4.168  14.632  0.9614 -1.4803  0.9119
15652TIP3   OH268446   5.671   4.710   3.243  0.1908  0.7372  0.5597
15652TIP3    H168447   5.602   4.648   3.265 -1.2290  1.4886 -1.4862
15652TIP3    H268448   5.720   4.721   3.325 -1.3311 -0.7764  1.7518
15653TIP3   OH268449   1.266   5.591  16.178  0.0650  0.4346  0.4944
15653TIP3    H168450   1.222   5.510  16.204 -0.6099  0.9369  0.9438
15653TIP3    H268451   1.198   5.658  16.180  0.5603  0.9744 -0.1199
15654TIP3   OH268452   0.769   6.148   2.630 -0.1309  0.1348 -0.0581
15654TIP3    H168453   0.844   6.153   2.688 -1.3211 -1.5096  1.7588
15654TIP3    H268454   0.804   6.166   2.543  1.8454  2.0167  1.0386
15655TIP3   OH268455   3.702   6.081   3.830 -0.3526  0.0115 -0.7546
15655TIP3    H168456   3.628   6.142   3.824 -1.8944 -1.7329 -0.4260
15655TIP3    H268457   3.733   6.089   3.920  0.3845  1.2962 -1.1023
15656TIP3   OH268458   5.821   1.491   0.501  0.4269 -0.3486 -0.0124
15656TIP3    H168459   5.767   1.432   0.448 -0.6650  0.2321  0.4202
15656TIP3    H268460   5.882   1.433   0.547 -0.0174 -1.0505 -0.2944
15657TIP3   OH268461   1.176   1.062   3.934  0.2134 -0.1733 -0.5699
15657TIP3    H168462   1.133   0.978   3.947 -0.0085 -0.0784 -0.6775
15657TIP3    H268463   1.186   1.070   3.839 -2.2757  1.1276 -0.8351
15658TIP3   OH268464   4.297   4.349  15.858 -0.8528 -0.1735  0.2699
15658TIP3    H168465   4.387   4.377  15.876 -1.3132  0.6677  1.4334
15658TIP3    H268466   4.249   4.431  15.849 -1.6028 -0.6198  0.1874
15659TIP3   OH268467   0.123   0.876  13.016 -0.1348  0.1462  0.1737
15659TIP3    H168468   0.179   0.802  13.041 -0.7836  0.0115  1.2767
15659TIP3    H268469   0.136   0.884  12.921 -0.4120 -1.6828 -0.0559
15660TIP3   OH268470   1.205   0.955  13.163 -0.0282  0.5667  0.6361
15660TIP3    H168471   1.291   0.920  13.189  0.5053  1.8681  0.6786
15660TIP3    H268472   1.226   1.025  13.102 -1.0459  1.2171  1.0205
15661TIP3   OH268473   4.760   0.105  15.826 -0.1023 -0.2946  0.2246
15661TIP3    H168474   4.680   0.091  15.774  0.1091  2.6751 -1.1097
15661TIP3    H268475   4.733   0.167  15.894  0.7929 -0.1410  0.4484
15662TIP3   OH268476   2.688   1.801   1.916  0.0564 -0.0122 -0.3963
15662TIP3    H168477   2.687   1.897   1.922  0.8425 -0.0770  1.2910
15662TIP3    H268478   2.607   1.773   1.959 -0.5910 -0.0964 -1.6376
15663TIP3   OH268479   3.962   2.195  17.041  0.8550 -0.9870  0.6432
15663TIP3    H168480   4.017   2.166  17.114  2.2928 -0.3176 -0.1193
15663TIP3    H268481   3.965   2.291  17.046 -0.2618 -0.9426  0.5855
15664TIP3   OH268482   3.990   0.327   3.909 -0.2438 -0.0632 -0.7047
15664TIP3    H168483   3.980   0.232   3.920 -0.4713 -0.1231 -1.4141
15664TIP3    H268484   4.058   0.336   3.842  0.6304  0.2932  0.2088
15665TIP3   OH268485   2.227   4.024  17.099 -0.1017  0.5577 -0.8707
15665TIP3    H168486   2.188   3.953  17.048  0.3139 -0.4097  0.0955
15665TIP3    H268487   2.271   4.079  17.035 -0.9890  0.3031 -1.7127
15666TIP3   OH268488   5.370   5.760  16.521 -0.6847  0.5350  0.0676
15666TIP3    H168489   5.315   5.720  16.589  0.2277 -1.4777 -0.2890
15666TIP3    H268490   5.453   5.713  16.528 -1.0317 -0.8881 -3.4079
15667TIP3   OH268491   5.868   5.894  12.627 -0.4333 -0.6734  0.3585
15667TIP3    H168492   5.884   5.969  12.570 -0.8863 -0.0289  1.0505
15667TIP3    H268493   5.926   5.908  12.702 -0.3192 -1.1595  0.3625
15668TIP3   OH268494   5.649   2.390   5.796  0.7571  0.4657 -0.4735
15668TIP3    H168495   5.617   2.399   5.886  0.5962 -1.3204 -0.3260
15668TIP3    H268496   5.744   2.391   5.804  0.8039 -1.8287  0.0335
15669TIP3   OH268497   3.956   5.973   4.498 -0.2716  0.0609 -0.1299
15669TIP3    H168498   4.014   5.957   4.424 -1.9259 -1.4317 -1.1932
15669TIP3    H268499   4.001   5.935   4.573 -0.3461 -2.2098 -1.1613
15670TIP3   OH268500   4.466   5.704  11.618 -0.3312 -0.4646  0.0132
15670TIP3    H168501   4.483   5.689  11.711 -1.1731 -0.3532  0.1903
15670TIP3    H268502   4.372   5.721  11.613 -0.2214 -0.0668 -0.8093
15671TIP3   OH268503   4.859   1.835  12.508  0.5251 -0.1275 -0.0807
15671TIP3    H168504   4.877   1.782  12.586 -0.0328  0.6069  0.5700
15671TIP3    H268505   4.793   1.897  12.537  2.5747  2.2713 -0.2357
15672TIP3   OH268506   1.522   2.186   2.323 -0.1156 -0.0828 -0.1751
15672TIP3    H168507   1.469   2.231   2.388 -0.3564  0.4478 -0.7339
15672TIP3    H268508   1.562   2.113   2.372 -0.5253  0.1246  0.4899
15673TIP3   OH268509   5.717   6.772   3.484  0.1970 -0.6952 -0.2429
15673TIP3    H168510   5.680   6.860   3.497 -2.1703 -1.6633 -0.0644
15673TIP3    H268511   5.738   6.742   3.573 -0.8388 -1.0521 -0.1102
15674TIP3   OH268512   3.959   0.642   5.085 -0.1925 -0.1306 -0.6709
15674TIP3    H168513   4.048   0.610   5.072  0.1403  0.5745 -0.2012
15674TIP3    H268514   3.961   0.731   5.050 -1.3204 -0.8582 -2.7270
15675TIP3   OH268515   6.511   6.712  13.969  0.1517  0.4020  0.3871
15675TIP3    H168516   6.443   6.648  13.990 -0.1021  0.9860  1.3956
15675TIP3    H268517   6.569   6.667  13.908  1.0089 -1.4365  2.4356
15676TIP3   OH268518   5.339   1.716  11.502  0.6728 -0.0809 -1.0756
15676TIP3    H168519   5.336   1.643  11.441 -0.4039 -0.3362 -0.7352
15676TIP3    H268520   5.266   1.773  11.475 -0.0209 -0.3574  0.1494
15677TIP3   OH268521   1.038   6.369   3.724 -0.6232  0.0958  0.0151
15677TIP3    H168522   0.966   6.338   3.669 -1.0590 -1.6089  1.4153
15677TIP3    H268523   1.023   6.326   3.809  2.4411 -0.9524  0.1683
15678TIP3   OH268524   4.354   4.194   3.823 -0.1390  0.3317  0.3596
15678TIP3    H168525   4.263   4.184   3.795  0.3302  0.2774 -1.2273
15678TIP3    H268526   4.405   4.181   3.744  1.3288 -0.6261  1.4171
15679TIP3   OH268527   6.372   3.548  16.957 -0.3487 -0.7488  0.0841
15679TIP3    H168528   6.443   3.599  16.995  0.6086 -2.0319  0.0689
15679TIP3    H268529   6.383   3.559  16.862 -0.9970  0.1217  0.0949
15680TIP3   OH268530   5.951   5.247  14.330 -0.2826  0.4685  0.0424
15680TIP3    H168531   5.915   5.256  14.242  0.6595  0.4527 -0.3494
15680TIP3    H268532   5.917   5.163  14.361  0.0810  0.0617 -0.6413
15681TIP3   OH268533   5.841   1.318  12.770 -0.4768 -0.1391  0.1088
15681TIP3    H168534   5.844   1.287  12.679 -0.9316 -0.7842  0.3057
15681TIP3    H268535   5.918   1.279  12.812 -0.9935 -0.9420  0.3301
15682TIP3   OH268536   3.829   0.895   1.139 -0.0413  0.5663  0.1912
15682TIP3    H168537   3.744   0.930   1.166  0.0772  0.3766  0.8231
15682TIP3    H268538   3.838   0.921   1.047 -0.4400  1.2374  0.3425
15683TIP3   OH268539   1.938   6.721   0.413  0.8051 -0.4070  0.1531
15683TIP3    H168540   1.954   6.750   0.503 -0.5925  2.1947 -0.3502
15683TIP3    H268541   2.025   6.720   0.373  1.1881  0.8907  0.8738
15684TIP3   OH268542   4.568   3.586  11.978 -0.0064  0.6898 -0.0357
15684TIP3    H168543   4.528   3.508  11.939 -1.0072  1.4331 -0.5481
15684TIP3    H268544   4.660   3.583  11.950  0.0054 -0.3784  0.0918
15685TIP3   OH268545   6.600   2.256  14.984  0.7476  0.2365  0.3386
15685TIP3    H168546   6.625   2.299  15.066 -0.7533 -0.2909  1.1064
15685TIP3    H268547   6.592   2.164  15.008  2.3113 -0.2718 -0.9141
15686TIP3   OH268548   1.205   4.310  15.665  0.1650  0.1338  0.1382
15686TIP3    H168549   1.137   4.246  15.645 -0.5939  0.9902 -0.0621
15686TIP3    H268550   1.220   4.356  15.582  1.1990 -0.2286  0.1054
15687TIP3   OH268551   2.889   0.329   4.977  0.2905 -0.0644  0.2521
15687TIP3    H168552   2.953   0.372   5.034 -0.0749  1.9953 -0.8195
15687TIP3    H268553   2.854   0.399   4.922 -2.3291 -1.2660  0.2418
15688TIP3   OH268554   2.817   1.866   4.780 -0.5252 -0.4471 -0.0676
15688TIP3    H168555   2.891   1.881   4.720  0.2244 -0.6006  0.7909
15688TIP3    H268556   2.770   1.792   4.741 -1.4376  0.9438 -1.7201
15689TIP3   OH268557   1.452   0.290  11.620  0.2356  0.5603 -0.2273
15689TIP3    H168558   1.446   0.280  11.525  4.5105 -2.9151 -0.4294
15689TIP3    H268559   1.522   0.354  11.632 -1.4653  2.3631  0.8029
15690TIP3   OH268560   2.143   0.673  11.574  0.5558 -0.2016  0.3313
15690TIP3    H168561   2.153   0.624  11.493 -1.4194  0.0363 -0.1139
15690TIP3    H268562   2.147   0.765  11.547  0.9298 -0.1157  0.6670
15691TIP3   OH268563   5.428   3.157  17.059 -0.0446  0.0847 -0.2267
15691TIP3    H168564   5.365   3.207  17.111 -0.8827 -1.0151 -0.1492
15691TIP3    H268565   5.507   3.154  17.113 -0.8953 -1.0195  1.0002
15692TIP3   OH268566   1.579   1.086  15.211 -0.1542 -0.1608 -0.6170
15692TIP3    H168567   1.589   1.009  15.267 -1.0285  0.3997  0.3621
15692TIP3    H268568   1.560   1.050  15.124 -2.4221 -1.1046  0.1768
15693TIP3   OH268569   3.611   2.241   1.919  0.2953  0.0042  0.0419
15693TIP3    H168570   3.522   2.230   1.950  0.4459 -1.5322  0.0151
15693TIP3    H268571   3.663   2.252   1.998  0.0649  1.2071  0.0433
15694TIP3   OH268572   1.463   5.385   1.972  0.5945 -0.2227 -0.2844
15694TIP3    H168573   1.469   5.342   2.058  2.9061 -0.4571 -0.4779
15694TIP3    H268574   1.522   5.334   1.916  2.0056  2.0334 -1.0142
15695TIP3   OH268575   1.387   1.718  17.144  0.0989 -0.2505 -0.4916
15695TIP3    H168576   1.417   1.765  17.066 -1.4413  1.9691  0.1585
15695TIP3    H268577   1.431   1.762  17.216 -1.5655  0.3946  0.1630
15696TIP3   OH268578   6.053   1.770  13.806 -0.3605 -0.1533 -0.3062
15696TIP3    H168579   5.983   1.757  13.870  0.0100 -2.9475 -0.3544
15696TIP3    H268580   6.117   1.825  13.852 -0.1834 -1.9328  1.7303
15697TIP3   OH268581   5.161   3.953  12.738  0.2401  0.6810 -0.1772
15697TIP3    H168582   5.208   3.956  12.654 -0.1206 -0.1755 -0.4195
15697TIP3    H268583   5.106   3.875  12.731 -0.6946  1.2792  0.3802
15698TIP3   OH268584   5.872   1.449   4.188  0.1640 -0.2230 -0.5667
15698TIP3    H168585   5.781   1.423   4.176  0.5268 -1.6637 -0.3983
15698TIP3    H268586   5.890   1.508   4.115 -1.3529  1.4175  0.3034
15699TIP3   OH268587   6.681   2.329  11.728 -0.2853  0.4158 -0.1828
15699TIP3    H168588   6.748   2.261  11.734 -0.0646  0.5751 -0.8222
15699TIP3    H268589   6.628   2.317  11.807  0.5590  0.3711  0.3878
15700TIP3   OH268590   4.221   6.017   6.146  0.0813 -0.2181 -0.0077
15700TIP3    H168591   4.150   6.001   6.084  0.0003  1.4326 -0.3858
15700TIP3    H268592   4.300   5.990   6.100 -0.2322 -1.6815  0.2623
15701TIP3   OH268593   3.381   1.523  12.184  0.1399 -0.1342 -0.1258
15701TIP3    H168594   3.462   1.473  12.181  0.3289  0.1026  0.6564
15701TIP3    H268595   3.329   1.481  12.253  0.8035  1.4314  1.4195
15702TIP3   OH268596   3.457   0.407  10.563 -0.0742 -0.3473 -0.1974
15702TIP3    H168597   3.452   0.317  10.594  2.9109 -0.0463  1.5572
15702TIP3    H268598   3.394   0.454  10.618  0.6614 -0.8676  1.1278
15703TIP3   OH268599   4.821   3.813   6.467  0.3065  0.3386  0.1801
15703TIP3    H168600   4.878   3.833   6.541  0.7915 -0.1861 -0.0436
15703TIP3    H268601   4.738   3.787   6.506  0.2519  0.9943  0.5142
15704TIP3   OH268602   4.702   0.270   0.210  0.9216 -0.4778 -0.3854
15704TIP3    H168603   4.722   0.346   0.155 -1.1020  1.7360  1.6709
15704TIP3    H268604   4.642   0.217   0.157  0.4204  0.6580 -0.9943
15705TIP3   OH268605   1.461   0.510   5.502  0.0420  0.2353 -0.4448
15705TIP3    H168606   1.541   0.461   5.523 -0.9718 -0.5197  1.9799
15705TIP3    H268607   1.492   0.592   5.464  1.9919  0.0327  0.5861
15706TIP3   OH268608   3.972   3.174  14.647  0.1039 -0.4127  0.0752
15706TIP3    H168609   3.967   3.191  14.553  0.3239 -1.4468 -0.1291
15706TIP3    H268610   4.052   3.124  14.659  0.5563  0.4794  0.9477
15707TIP3   OH268611   4.175   3.109  12.710 -0.1840 -0.2746 -0.7346
15707TIP3    H168612   4.088   3.125  12.745  0.0424  0.7452 -0.6270
15707TIP3    H268613   4.177   3.156  12.627  0.4250  0.1040 -0.5088
15708TIP3   OH268614   5.448   5.736  15.256 -0.3063  0.5316  0.1779
15708TIP3    H168615   5.506   5.801  15.217 -1.2534  2.0460  1.1577
15708TIP3    H268616   5.506   5.678  15.305  0.4715  1.4479  0.3659
15709TIP3   OH268617   2.989   3.718  10.934  0.1417 -0.1757 -0.4578
15709TIP3    H168618   2.977   3.738  11.027 -1.3207 -3.7483  0.2739
15709TIP3    H268619   3.080   3.690  10.927  0.7732  1.7355 -0.5455
15710TIP3   OH268620   2.920   2.212  13.526 -0.4693  0.0040  0.2820
15710TIP3    H168621   2.949   2.132  13.570 -0.0580 -0.1767 -0.2988
15710TIP3    H268622   2.914   2.188  13.433 -0.6194  0.5688  0.1376
15711TIP3   OH268623   5.303   2.712   5.021 -0.7552  0.1388 -0.0785
15711TIP3    H168624   5.240   2.685   4.955 -0.9166  0.2038  0.0482
15711TIP3    H268625   5.363   2.637   5.029 -1.2688 -0.2338  0.3584
15712TIP3   OH268626   6.093   3.838   3.676  0.1228 -0.4813 -0.4645
15712TIP3    H168627   6.027   3.882   3.623  0.6565  0.1164 -0.6394
15712TIP3    H268628   6.051   3.756   3.703 -1.1999  0.5067  0.5875
15713TIP3   OH268629   0.250   3.121   4.052  0.2485  0.2872  0.0255
15713TIP3    H168630   0.315   3.110   3.983  0.4724 -4.1570  0.6634
15713TIP3    H268631   0.175   3.069   4.023 -0.7068  0.4902  1.9361
15714TIP3   OH268632   6.298   3.213  12.593 -0.1224  0.3019  0.6349
15714TIP3    H168633   6.267   3.245  12.508  0.9200 -0.5379 -0.0866
15714TIP3    H268634   6.265   3.123  12.598 -0.5628  0.4950  1.3403
15715TIP3   OH268635   2.587   0.555  11.819 -0.1132 -0.7987 -0.3275
15715TIP3    H168636   2.665   0.500  11.824 -0.7440 -1.6309  0.9391
15715TIP3    H268637   2.533   0.527  11.893 -0.3652  1.7063  0.5440
15716TIP3   OH268638   6.198   0.649  16.139 -0.3133  0.2033 -0.0919
15716TIP3    H168639   6.150   0.659  16.057  1.6294  1.7450 -1.1291
15716TIP3    H268640   6.173   0.726  16.191  1.6942  1.6342 -1.0859
15717TIP3   OH268641   3.105   5.236   4.308 -0.0617 -0.3195  0.3325
15717TIP3    H168642   3.095   5.330   4.318 -0.4263 -0.3673  0.4282
15717TIP3    H268643   3.173   5.226   4.240 -0.9968  0.0183 -0.6764
15718TIP3   OH268644   4.175   1.914  16.572 -0.0483 -0.1992 -0.0620
15718TIP3    H168645   4.115   1.982  16.543  0.3069 -0.1706 -0.7415
15718TIP3    H268646   4.138   1.883  16.655  0.5728  1.8687  1.0692
15719TIP3   OH268647   1.417   1.450  14.468  0.1432  0.4797 -0.4032
15719TIP3    H168648   1.339   1.404  14.437  0.1904  0.2450 -0.1776
15719TIP3    H268649   1.387   1.497  14.546  0.0235  1.0706 -0.7999
15720TIP3   OH268650   6.173   5.020   2.901 -0.3372 -0.2529  0.0292
15720TIP3    H168651   6.121   5.084   2.950  0.4141 -0.4081  1.0611
15720TIP3    H268652   6.164   4.939   2.950 -2.4432 -1.3942 -2.0345
15721TIP3   OH268653   0.976   3.898   6.482  0.2035  0.3194 -0.4550
15721TIP3    H168654   0.880   3.896   6.478  0.0444 -0.8458  2.0188
15721TIP3    H268655   0.997   3.977   6.531  0.5598  0.8437 -1.4317
15722TIP3   OH268656   6.595   4.335  12.948 -0.5385  0.0354 -0.0254
15722TIP3    H168657   6.588   4.290  12.864 -2.1949 -1.5782  0.9205
15722TIP3    H268658   6.524   4.399  12.947 -0.6047 -0.0349  0.1858
15723TIP3   OH268659   4.492   1.656  12.095 -0.4829  0.8933 -0.2821
15723TIP3    H168660   4.436   1.732  12.111  1.4681  1.9120  2.6381
15723TIP3    H268661   4.502   1.615  12.181  0.7546 -1.0331 -1.2796
15724TIP3   OH268662   2.277   3.276  17.135  0.1443  0.2260 -0.0019
15724TIP3    H168663   2.267   3.208  17.202 -0.1971  1.2279  1.0018
15724TIP3    H268664   2.209   3.256  17.070 -0.0827 -0.2833  0.3818
15725TIP3   OH268665   5.234   4.796  16.858 -0.2126  0.9197 -0.8855
15725TIP3    H168666   5.143   4.772  16.841 -0.4181  1.2485 -0.2795
15725TIP3    H268667   5.232   4.839  16.944  0.5800  0.5239 -0.6608
15726TIP3   OH268668   2.241   5.435   1.302  0.7145  0.1109 -0.0349
15726TIP3    H168669   2.234   5.343   1.274  1.2655  0.4820 -1.5195
15726TIP3    H268670   2.334   5.456   1.291  0.7309  0.6446  1.0129
15727TIP3   OH268671   6.197   2.557   5.943  0.2874  0.0532 -0.6909
15727TIP3    H168672   6.216   2.519   6.029  0.0850 -1.6419 -1.3616
15727TIP3    H268673   6.277   2.546   5.893 -0.3668 -1.2521 -1.4884
15728TIP3   OH268674   2.758   6.226  11.763  0.1682  1.0275 -0.0025
15728TIP3    H168675   2.725   6.136  11.773  0.4498  0.7583 -1.4078
15728TIP3    H268676   2.802   6.227  11.679 -0.3024  2.6408 -0.2702
15729TIP3   OH268677   2.436   4.465   2.010  0.3648 -0.5692 -0.3173
15729TIP3    H168678   2.463   4.522   2.082 -0.1379  0.2844 -0.7760
15729TIP3    H268679   2.444   4.520   1.932 -1.4815 -0.6412 -0.6151
15730TIP3   OH268680   2.945   2.200  14.143  0.1144  0.2826  0.6919
15730TIP3    H168681   2.874   2.209  14.208 -0.4177  2.1467 -0.0694
15730TIP3    H268682   2.919   2.127  14.088 -1.3936  1.0884  0.2766
15731TIP3   OH268683   6.382   6.432   2.048  0.1543  0.2880  0.0071
15731TIP3    H168684   6.363   6.428   1.955  0.2774 -0.4469  0.0085
15731TIP3    H268685   6.298   6.458   2.088 -0.3211 -0.8904 -0.1775
15732TIP3   OH268686   4.601   3.005  13.694 -0.2574 -0.2697 -0.5603
15732TIP3    H168687   4.650   3.087  13.689  0.1618 -0.3769  1.1084
15732TIP3    H268688   4.589   2.990  13.788  0.1577 -2.3838 -0.7986
15733TIP3   OH268689   3.742   5.754  14.169  0.1529  0.0068 -0.2041
15733TIP3    H168690   3.668   5.806  14.139  1.8108  2.6602 -0.0371
15733TIP3    H268691   3.719   5.730  14.259 -1.1059 -0.4900 -0.6395
15734TIP3   OH268692   6.554   5.773   1.280 -0.1651 -0.7019  0.1654
15734TIP3    H168693   6.515   5.860   1.270  1.3183 -0.2197 -1.9375
15734TIP3    H268694   6.509   5.719   1.215  0.8130 -0.8095 -0.4299
15735TIP3   OH268695   6.196   0.336  12.464  0.1584  0.4569 -0.0691
15735TIP3    H168696   6.134   0.359  12.534  1.1727  0.0682  0.9938
15735TIP3    H268697   6.190   0.241  12.457  0.7777  0.3918  0.2014
15736TIP3   OH268698   0.973   2.380  17.019  0.2222 -0.3744 -0.5009
15736TIP3    H168699   0.896   2.431  17.044  0.0341 -0.4428 -0.9327
15736TIP3    H268700   1.047   2.432  17.048  0.0241 -1.2367  1.8057
15737TIP3   OH268701   1.862   3.917   0.055 -0.1926  0.1557  0.3670
15737TIP3    H168702   1.814   3.973   0.116  0.0107  1.0434 -0.2661
15737TIP3    H268703   1.865   3.967  -0.027  0.5952 -0.4790 -0.0140
15738TIP3   OH268704   2.517   5.861  13.602 -0.1383 -0.4738 -0.4568
15738TIP3    H168705   2.599   5.910  13.601 -0.3414 -0.0988  0.4727
15738TIP3    H268706   2.475   5.886  13.684 -0.8620 -1.1984 -0.5951
15739TIP3   OH268707   2.955   3.137   0.130 -0.3325  0.2353  0.3979
15739TIP3    H168708   2.874   3.184   0.110  0.5895  0.9879 -1.7993
15739TIP3    H268709   3.023   3.204   0.130  0.6004 -0.6765  0.0321
15740TIP3   OH268710   0.662   0.094   1.587 -0.2837 -0.1326  0.1190
15740TIP3    H168711   0.676   0.155   1.514  1.3281 -1.7424 -0.9996
15740TIP3    H268712   0.570   0.071   1.582 -0.6078  1.1319 -0.2804
15741TIP3   OH268713   1.629   3.187  14.571  0.1976  0.3481  0.3587
15741TIP3    H168714   1.543   3.227  14.567  0.1455  0.1437 -1.8655
15741TIP3    H268715   1.611   3.094  14.585 -0.3026 -0.3897 -3.8808
15742TIP3   OH268716   6.250   3.332   2.783 -0.0229 -0.3590  0.6772
15742TIP3    H168717   6.257   3.270   2.710  0.1122  0.1641  0.2423
15742TIP3    H268718   6.242   3.417   2.742  0.8795  0.0285  1.2724
15743TIP3   OH268719   5.140   1.784  11.176  0.4043  0.5897  0.2653
15743TIP3    H168720   5.104   1.807  11.090 -1.2000 -0.1141  0.7158
15743TIP3    H268721   5.221   1.737  11.157  0.1968  0.6653 -0.8440
15744TIP3   OH268722   2.511   0.322   5.866 -0.4298 -0.1723 -0.0465
15744TIP3    H168723   2.469   0.385   5.924 -0.9690 -0.2167 -0.3843
15744TIP3    H268724   2.532   0.247   5.923  0.6357  0.4823  0.4538
15745TIP3   OH268725   0.316   6.428  12.631 -0.1892 -0.0776 -0.6721
15745TIP3    H168726   0.408   6.403  12.631 -0.1853 -0.0688 -1.0382
15745TIP3    H268727   0.275   6.370  12.565 -0.2564  0.5924 -1.2342
15746TIP3   OH268728   1.984   6.349  12.403  0.3483 -0.1442 -0.2462
15746TIP3    H168729   1.985   6.284  12.473  0.1047 -1.1814 -1.1688
15746TIP3    H268730   1.935   6.423  12.439 -0.9692 -1.2020  0.2155
15747TIP3   OH268731   5.296   5.548  15.091 -0.2107 -0.1165  0.0190
15747TIP3    H168732   5.314   5.608  15.164 -2.6748 -0.7237  1.2113
15747TIP3    H268733   5.243   5.479  15.129  0.8806 -2.0523 -1.7716
15748TIP3   OH268734   4.847   6.356   2.341 -0.8083 -0.4744 -0.3540
15748TIP3    H168735   4.919   6.410   2.373 -1.9925  1.6165 -1.0284
15748TIP3    H268736   4.873   6.332   2.252  0.0359 -1.6682  0.1912
15749TIP3   OH268737   2.190   2.692   3.539 -0.2661  0.3962 -0.3729
15749TIP3    H168738   2.131   2.699   3.614  1.3320  1.1594  0.8641
15749TIP3    H268739   2.170   2.606   3.501 -0.9762 -0.0937  1.0350
15750TIP3   OH268740   4.943   2.546   0.322 -0.2801 -0.0309  0.4199
15750TIP3    H168741   4.899   2.632   0.323  1.1563  1.0596 -4.2290
15750TIP3    H268742   5.030   2.564   0.357 -0.1627  0.3043 -0.0331
15751TIP3   OH268743   3.657   1.719   1.300 -0.1852  0.9002  0.1542
15751TIP3    H168744   3.572   1.683   1.326  0.6288 -0.3900  1.1636
15751TIP3    H268745   3.699   1.742   1.382  1.2422 -0.4252 -0.1500
15752TIP3   OH268746   0.627   1.760  10.509  0.0537 -0.2418 -0.2075
15752TIP3    H168747   0.644   1.839  10.561  0.5107 -1.5113  1.6873
15752TIP3    H268748   0.712   1.717  10.502 -0.2148 -0.6551 -1.0788
15753TIP3   OH268749   5.414   3.353  11.475  0.3837 -0.2625 -0.2508
15753TIP3    H168750   5.476   3.331  11.544 -0.6598  0.5225  1.0027
15753TIP3    H268751   5.401   3.271  11.427  0.5378 -1.0510  0.9976
15754TIP3   OH268752   0.035   6.426  14.667  0.0500  0.2744 -0.0404
15754TIP3    H168753   0.028   6.486  14.593  2.0373 -0.4765 -0.8875
15754TIP3    H268754   0.124   6.438  14.700 -0.0843 -0.9727  0.8673
15755TIP3   OH268755   6.072   2.881   0.011  0.3996  0.0553  0.4637
15755TIP3    H168756   6.069   2.787   0.027 -1.3881 -0.0654 -0.2480
15755TIP3    H268757   6.117   2.918   0.087 -0.5499 -1.2028  1.6787
15756TIP3   OH268758   6.251   5.910  14.226  0.4199  0.4312 -0.3619
15756TIP3    H168759   6.341   5.936  14.207  0.5633  2.0281  2.0515
15756TIP3    H268760   6.213   5.986  14.270 -1.7773 -0.6205 -0.2923
15757TIP3   OH268761   4.234   1.389   5.305  0.1909 -0.9170 -0.3565
15757TIP3    H168762   4.162   1.452   5.317  0.1939 -0.9591 -0.1111
15757TIP3    H268763   4.216   1.348   5.220  0.5586 -0.1013 -0.8380
15758TIP3   OH268764   0.876   2.775   0.678  0.7073 -0.0767  0.2114
15758TIP3    H168765   0.933   2.726   0.738  1.5338 -1.0761 -1.3482
15758TIP3    H268766   0.937   2.818   0.617 -0.1113  1.0752  0.1658
15759TIP3   OH268767   5.134   6.309  14.775 -0.0345  0.0133 -0.2600
15759TIP3    H168768   5.054   6.274  14.736 -1.2174  1.6768  0.6002
15759TIP3    H268769   5.139   6.399  14.744  3.0060 -0.7498 -2.4859
15760TIP3   OH268770   0.675   4.729  15.913  0.2737  0.4237  0.1000
15760TIP3    H168771   0.664   4.824  15.907  1.7577  0.6577  0.8231
15760TIP3    H268772   0.738   4.707  15.844  1.3275  0.2283  1.1048
15761TIP3   OH268773   5.126   0.006   5.616  0.2383 -0.2964 -0.0606
15761TIP3    H168774   5.186  -0.069   5.608  2.6527  1.6502 -1.3437
15761TIP3    H268775   5.174   0.069   5.670 -1.3702  0.7251  0.2468
15762TIP3   OH268776   1.190   5.218   5.087 -0.8190 -0.0184 -0.3422
15762TIP3    H168777   1.284   5.219   5.103 -0.7897 -0.1204 -0.5040
15762TIP3    H268778   1.150   5.218   5.174 -0.6546 -1.6783 -0.2335
15763TIP3   OH268779   4.801   2.066   4.129  0.3087 -0.1749 -0.6047
15763TIP3    H168780   4.834   1.976   4.128  0.8408 -0.1357  2.5112
15763TIP3    H268781   4.737   2.068   4.200 -1.8727  1.3027 -2.4598
15764TIP3   OH268782   0.778   2.497  13.583 -0.6648 -0.0549 -0.0791
15764TIP3    H168783   0.741   2.461  13.502 -2.6086 -1.3916  1.3143
15764TIP3    H268784   0.764   2.428  13.648  1.8875  0.5075  1.1935
15765TIP3   OH268785   6.278   6.108  11.738  0.3690 -0.7490  0.4901
15765TIP3    H168786   6.295   6.021  11.774 -1.6664 -2.3823 -2.0983
15765TIP3    H268787   6.191   6.101  11.698  1.2165  1.6351 -2.1369
15766TIP3   OH268788   2.309   2.062   4.513  0.6553  0.4617  0.1756
15766TIP3    H168789   2.345   2.150   4.529 -0.8396  0.8308  1.7266
15766TIP3    H268790   2.383   2.003   4.528  1.7690  1.4364 -1.2002
15767TIP3   OH268791   2.947   0.351   3.439 -0.0664  0.2509 -0.2727
15767TIP3    H168792   3.034   0.391   3.433 -0.2872  0.9016  0.6971
15767TIP3    H268793   2.905   0.394   3.513 -0.5302 -1.3766  0.4717
15768TIP3   OH268794   6.770   2.928  11.380  0.0690  0.3958  0.1536
15768TIP3    H168795   6.686   2.958  11.345 -0.0667 -0.5321 -0.3494
15768TIP3    H268796   6.835   2.983  11.336 -0.2455  0.8252  0.2202
15769TIP3   OH268797   1.660   6.647  15.330  0.3012 -0.0468 -0.4347
15769TIP3    H168798   1.718   6.685  15.264 -1.1222 -0.8970 -2.2824
15769TIP3    H268799   1.572   6.670  15.300 -0.3934 -0.3420  1.2832
15770TIP3   OH268800   0.007   1.308   2.639  0.3709 -0.3822  0.6695
15770TIP3    H168801  -0.005   1.403   2.639  1.0594 -0.2818 -0.3436
15770TIP3    H268802  -0.052   1.276   2.708 -0.3628  0.7113  0.5680
15771TIP3   OH268803   3.625   5.755  12.911  0.7275 -0.7948  0.2493
15771TIP3    H168804   3.569   5.804  12.970 -0.9622 -2.6710  0.3045
15771TIP3    H268805   3.577   5.750  12.829  1.9165 -0.3861 -0.5028
15772TIP3   OH268806   6.471   5.128  12.870  0.0901  0.0496  0.0804
15772TIP3    H168807   6.458   5.219  12.896 -3.1069 -0.4189  0.5190
15772TIP3    H268808   6.488   5.132  12.776  1.0299  1.1201  0.2733
15773TIP3   OH268809   4.906   4.640   3.713 -0.0050 -0.1829  0.2831
15773TIP3    H168810   4.963   4.564   3.702 -0.6662 -0.5577 -0.6948
15773TIP3    H268811   4.860   4.623   3.795  0.6074 -0.3184  0.6082
15774TIP3   OH268812   6.572   2.574   6.077 -0.5923 -0.4614 -0.1916
15774TIP3    H168813   6.542   2.569   5.986  1.1561  0.0607 -0.8448
15774TIP3    H268814   6.596   2.485   6.100  0.4064 -0.3727 -0.8051
15775TIP3   OH268815   2.660   6.447  12.932 -0.3559  1.0587 -0.0968
15775TIP3    H168816   2.659   6.390  13.009 -0.8941 -0.4627 -1.1738
15775TIP3    H268817   2.612   6.525  12.959 -1.6324  0.0204  0.7397
15776TIP3   OH268818   2.026   2.638   1.469 -0.3235 -0.0085 -0.0521
15776TIP3    H168819   2.066   2.724   1.454 -1.4054  0.6085  0.4502
15776TIP3    H268820   2.085   2.576   1.427  1.6925  0.7509  1.4964
15777TIP3   OH268821   0.337   3.255  11.518  0.2666 -0.6214  0.7227
15777TIP3    H168822   0.261   3.265  11.575 -0.5825 -1.6517 -0.1807
15777TIP3    H268823   0.328   3.167  11.482 -0.0007  0.4516 -2.0723
15778TIP3   OH268824   4.726   3.261  15.969 -0.2183  0.1060 -0.3472
15778TIP3    H168825   4.679   3.322  15.912 -0.6238  2.0434  1.9178
15778TIP3    H268826   4.807   3.242  15.922  0.1042  2.7383 -1.0006
15779TIP3   OH268827   0.679   1.127   4.648  0.0538 -0.2627  0.2079
15779TIP3    H168828   0.621   1.196   4.680  0.2213 -0.5825  1.2312
15779TIP3    H268829   0.654   1.115   4.556 -0.7905  0.3196  0.3528
15780TIP3   OH268830   5.131   2.112   1.028 -0.8176  0.0125 -0.3355
15780TIP3    H168831   5.080   2.108   1.109 -0.5853 -1.7981 -0.2415
15780TIP3    H268832   5.142   2.206   1.012 -1.7747  0.4207  1.1460
15781TIP3   OH268833   3.921   2.421  13.641 -0.1816  0.1744 -0.5068
15781TIP3    H168834   3.868   2.496  13.670  0.0551  0.0081  0.3575
15781TIP3    H268835   4.005   2.460  13.616  0.8970 -0.0541  2.4311
15782TIP3   OH268836   5.756   4.451  16.445  0.0887 -0.1329 -0.0364
15782TIP3    H168837   5.676   4.442  16.496  0.0424 -2.0817 -0.3870
15782TIP3    H268838   5.726   4.478  16.358 -0.1118 -0.1641  0.0216
15783TIP3   OH268839   5.169   4.224  13.364 -0.4972  0.1204  0.1932
15783TIP3    H168840   5.122   4.155  13.410 -0.4800 -0.8380 -1.1726
15783TIP3    H268841   5.231   4.178  13.307  0.3906  1.2957  0.1548
15784TIP3   OH268842   5.216   1.890  12.436 -0.4457  0.8157 -0.9627
15784TIP3    H168843   5.155   1.880  12.363  0.3360 -0.6862 -1.4637
15784TIP3    H268844   5.205   1.810  12.487  0.9012  0.6206 -0.9318
15785TIP3   OH268845   2.714   4.255   5.384  0.0790  0.4688  0.0663
15785TIP3    H168846   2.633   4.305   5.393  1.5570  2.8570  1.1197
15785TIP3    H268847   2.771   4.310   5.330  0.8635 -1.3719 -1.0839
15786TIP3   OH268848   5.577   6.097   0.850 -0.0657 -0.0859  0.1280
15786TIP3    H168849   5.577   6.036   0.776 -0.0325 -0.1960  0.2184
15786TIP3    H268850   5.606   6.180   0.812  0.4058 -0.2545  0.1097
15787TIP3   OH268851   1.608   5.210   4.820 -0.2239 -0.1557 -0.1873
15787TIP3    H168852   1.538   5.187   4.880  0.1850 -1.3859 -0.1529
15787TIP3    H268853   1.564   5.227   4.737 -0.5291 -1.5185 -0.3242
15788TIP3   OH268854   1.670   2.923  14.675 -0.7232 -0.3574  0.2190
15788TIP3    H168855   1.746   2.926  14.618 -1.5854  2.2921 -0.9388
15788TIP3    H268856   1.622   2.844  14.647  0.9008 -1.3547  0.1290
15789TIP3   OH268857   1.031   6.699  15.050  0.0586 -0.3700  0.1140
15789TIP3    H168858   0.996   6.725  14.965 -3.4579 -0.4692  1.3625
15789TIP3    H268859   1.092   6.769  15.074  0.7025 -0.0815 -2.1836
15790TIP3   OH268860   6.168   2.648  15.105  0.2429 -0.1286  0.7705
15790TIP3    H168861   6.099   2.632  15.040 -0.3607  0.4120  1.2617
15790TIP3    H268862   6.155   2.579  15.170 -0.9010  0.9249  1.7069
15791TIP3   OH268863   6.809   2.943  14.172 -0.1783 -0.2900 -0.3640
15791TIP3    H168864   6.900   2.916  14.188 -0.2637 -1.3659 -1.5389
15791TIP3    H268865   6.766   2.933  14.257  1.0845  1.6620  0.6131
15792TIP3   OH268866   6.343   6.096   4.442  0.3635 -0.2315 -0.2922
15792TIP3    H168867   6.270   6.086   4.502  0.6995 -1.6268 -0.0890
15792TIP3    H268868   6.413   6.043   4.479  1.3754  0.7923 -0.6710
15793TIP3   OH268869   5.793   5.694   2.414  0.3909 -0.9851 -0.2463
15793TIP3    H168870   5.793   5.668   2.506 -0.3142  1.6153  0.5721
15793TIP3    H268871   5.886   5.699   2.391  0.6031 -0.6098  0.6499
15794TIP3   OH268872   3.459   4.242   0.721  0.4274 -0.0224  0.2131
15794TIP3    H168873   3.521   4.302   0.678  0.8735  0.4132  1.4245
15794TIP3    H268874   3.459   4.164   0.665  3.5474 -0.8296  1.1308
15795TIP3   OH268875   0.815   4.243  14.148  0.1589 -0.1878 -0.6774
15795TIP3    H168876   0.768   4.269  14.227  1.7876 -2.5719  1.2550
15795TIP3    H268877   0.798   4.313  14.085 -3.0548  0.7389  0.9819
15796TIP3   OH268878   3.260   3.934  13.612 -0.2301  0.6799  0.6351
15796TIP3    H168879   3.215   4.018  13.604 -2.0677 -0.3696 -0.8927
15796TIP3    H268880   3.208   3.885  13.676 -0.7678 -0.2082 -0.4457
15797TIP3   OH268881   4.206   3.133  13.092  0.0310 -0.0316  0.1586
15797TIP3    H168882   4.180   3.099  13.007 -1.3563  0.3387  0.4030
15797TIP3    H268883   4.218   3.227  13.078  2.1362 -0.2901 -0.1238
15798TIP3   OH268884   3.963   6.408  16.089  0.2446 -0.1551  0.0613
15798TIP3    H168885   3.976   6.502  16.073 -2.1174  0.4588  1.3030
15798TIP3    H268886   3.956   6.370  16.001  0.0414  1.0295 -0.4611
15799TIP3   OH268887   6.488   1.254  12.487 -0.5928 -0.6507 -0.0867
15799TIP3    H168888   6.427   1.238  12.559 -0.7903  0.4277  0.0108
15799TIP3    H268889   6.508   1.167  12.452 -1.2570 -1.1090  0.6399
15800TIP3   OH268890   2.857   1.743  13.718  0.2982  0.5910  0.9056
15800TIP3    H168891   2.922   1.673  13.711 -0.1445  0.2015  0.5620
15800TIP3    H268892   2.809   1.724  13.798 -2.3766 -1.8015 -1.0379
15801TIP3   OH268893   1.388   4.407   0.096  0.0791  0.6038 -0.0786
15801TIP3    H168894   1.456   4.474   0.094  0.7936 -0.1099 -0.0612
15801TIP3    H268895   1.418   4.340   0.035  0.1269 -0.4071  1.0132
15802TIP3   OH268896   3.148   2.184   3.512 -0.3799  0.2728  0.1216
15802TIP3    H168897   3.095   2.152   3.585  1.4741 -1.4820  0.7754
15802TIP3    H268898   3.120   2.131   3.437  0.4594 -0.7533  0.4981
15803TIP3   OH268899   6.628   6.813   6.625  0.2302  0.0861  0.1757
15803TIP3    H168900   6.582   6.885   6.669 -0.7979 -0.4024 -0.0700
15803TIP3    H268901   6.570   6.788   6.553  1.5021  0.3320 -0.9827
15804TIP3   OH268902   5.191   3.200   4.766  0.0856  0.9192  0.3597
15804TIP3    H168903   5.114   3.175   4.716 -0.6776  1.7346  1.0990
15804TIP3    H268904   5.222   3.119   4.806 -1.4171  0.8608  1.4572
15805TIP3   OH268905   1.373   1.200   1.550 -0.1080 -0.4443 -0.1312
15805TIP3    H168906   1.370   1.252   1.470  0.7596  0.3163  0.3062
15805TIP3    H268907   1.331   1.256   1.616  0.6493 -0.3674  0.3015
15806TIP3   OH268908   2.183   2.213  13.184 -0.3811 -0.1570 -0.3207
15806TIP3    H168909   2.262   2.223  13.237 -1.5051  0.0618  1.3955
15806TIP3    H268910   2.171   2.298  13.142  0.1198 -0.0890 -0.3223
15807TIP3   OH268911   6.587   0.376  16.180  0.3860  0.1472 -0.3970
15807TIP3    H168912   6.682   0.376  16.167  0.4723 -0.6447  0.1949
15807TIP3    H268913   6.569   0.461  16.222  0.3313  1.9258 -3.6996
15808TIP3   OH268914   1.968   2.311  11.651  0.3135 -0.2029  0.2193
15808TIP3    H168915   1.906   2.267  11.593  1.2583 -0.8591 -0.3169
15808TIP3    H268916   1.935   2.293  11.739  0.3234 -1.4699 -0.0122
15809TIP3   OH268917   3.000   1.928  14.368 -0.4459 -0.5036 -0.2561
15809TIP3    H168918   3.077   1.979  14.393  0.5388 -1.6037 -0.9189
15809TIP3    H268919   3.036   1.846  14.335 -1.9083 -0.9490 -0.8088
15810TIP3   OH268920   2.391   0.195  14.971  0.2513 -0.1436  0.0631
15810TIP3    H168921   2.353   0.282  14.955 -1.0152 -0.6348  0.2281
15810TIP3    H268922   2.382   0.183  15.066  0.1467 -0.5603  0.0032
15811TIP3   OH268923   0.290   4.139  11.812  0.7339  0.0033  0.1376
15811TIP3    H168924   0.268   4.168  11.724 -0.7262  1.7703  1.0093
15811TIP3    H268925   0.353   4.204  11.843 -0.1511  0.4755  1.0078
15812TIP3   OH268926   4.453   2.165  12.143  0.3000  0.4029  0.1614
15812TIP3    H168927   4.375   2.221  12.143  2.3464  3.5400 -0.9710
15812TIP3    H268928   4.465   2.142  12.050  1.5946  1.4115  0.0477
15813TIP3   OH268929   4.663   6.416  11.718 -0.4093 -0.2261  0.0502
15813TIP3    H168930   4.587   6.413  11.776 -0.2777 -0.2309  0.2243
15813TIP3    H268931   4.723   6.350  11.754 -0.5327 -0.5809 -0.3837
15814TIP3   OH268932   1.300   3.673  15.162 -0.0138  0.2161  0.1445
15814TIP3    H168933   1.286   3.580  15.143  0.7462 -0.2637  1.7763
15814TIP3    H268934   1.218   3.715  15.136 -0.4726 -0.9449 -0.3505
15815TIP3   OH268935   6.481   5.189  12.604 -0.2473 -0.0385  0.2261
15815TIP3    H168936   6.547   5.250  12.568  1.8611 -1.0450  2.1186
15815TIP3    H268937   6.471   5.123  12.536  0.1747  0.5062 -0.3871
15816TIP3   OH268938   5.950   3.613  10.850  0.3843  0.3766  0.1985
15816TIP3    H168939   5.880   3.572  10.799  1.1953  0.1333 -0.7491
15816TIP3    H268940   6.018   3.546  10.854  0.7968  0.8189  0.6082
15817TIP3   OH268941   2.014   2.575  16.493  0.0940 -0.0223 -0.0875
15817TIP3    H168942   2.040   2.626  16.570 -0.5840 -0.0148  0.1423
15817TIP3    H268943   2.097   2.543  16.456  0.3932 -0.5370  0.9930
15818TIP3   OH268944   5.320   3.280  11.162  0.4796  0.2453 -0.5632
15818TIP3    H168945   5.224   3.282  11.161  0.4674  1.8423  0.1603
15818TIP3    H268946   5.346   3.336  11.089  0.8402  0.3955 -0.3262
15819TIP3   OH268947   1.078   3.593   3.357  0.1781 -0.0583 -0.5791
15819TIP3    H168948   1.130   3.518   3.326 -1.1370 -0.4850 -1.8296
15819TIP3    H268949   1.090   3.593   3.452 -0.1882 -2.1725 -0.4936
15820TIP3   OH268950   3.895   6.078   2.766 -0.2593  0.3473 -0.0319
15820TIP3    H168951   3.931   6.135   2.698 -2.9110 -0.1793 -2.0510
15820TIP3    H268952   3.821   6.128   2.802 -0.9316 -0.6915  0.0788
15821TIP3   OH268953   2.184   4.457  13.741 -0.5293 -0.0137 -0.0332
15821TIP3    H168954   2.114   4.396  13.764  1.8601 -3.2029 -0.5703
15821TIP3    H268955   2.189   4.454  13.646  1.2279 -0.9897  0.0567
15822TIP3   OH268956   0.878   0.319  12.509 -0.3306 -0.1326  0.0416
15822TIP3    H168957   0.871   0.353  12.419 -1.4671 -0.6935 -0.0941
15822TIP3    H268958   0.804   0.260  12.518  1.2495 -2.1595  0.4581
15823TIP3   OH268959   0.287   0.210  14.340 -0.0493  0.2623  0.0075
15823TIP3    H168960   0.278   0.262  14.260  0.7913  0.9042  0.3080
15823TIP3    H268961   0.215   0.239  14.396  0.2363  0.9006  0.0537
15824TIP3   OH268962   1.047   1.375  12.164  0.3436  0.4828 -0.3615
15824TIP3    H168963   1.030   1.462  12.129  0.8713  0.4527 -0.7040
15824TIP3    H268964   1.139   1.376  12.188  0.6198 -0.2905 -1.3036
15825TIP3   OH268965   3.995   4.455   0.194  0.1581 -0.3668  0.3763
15825TIP3    H168966   4.088   4.455   0.172  0.2979 -0.9376  0.9200
15825TIP3    H268967   3.956   4.389   0.137  0.2200 -0.6443  0.6514
15826TIP3   OH268968   2.942   1.079   3.810 -0.1051  0.1073  0.6151
15826TIP3    H168969   2.868   1.128   3.774 -0.2869  0.0144  0.8546
15826TIP3    H268970   3.005   1.074   3.739 -1.1013 -1.4376 -0.2259
15827TIP3   OH268971   4.395   4.826   5.564 -0.4859  0.2762 -0.1011
15827TIP3    H168972   4.317   4.865   5.524 -1.1652  0.6622  1.5166
15827TIP3    H268973   4.361   4.764   5.628  0.4786  1.4234  1.6038
15828TIP3   OH268974   0.145   0.337  14.559  0.4786  0.4546 -0.0187
15828TIP3    H168975   0.119   0.276  14.628 -0.0297 -0.3513 -0.8805
15828TIP3    H268976   0.082   0.409  14.565 -0.1369 -0.0528 -0.2017
15829TIP3   OH268977   0.703   5.816   0.937  0.1484 -0.3007 -0.6423
15829TIP3    H168978   0.686   5.800   0.845 -2.0663  1.3647 -0.6013
15829TIP3    H268979   0.624   5.860   0.969  2.0770  2.0184  1.2877
15830TIP3   OH268980   6.161   4.296  10.509 -0.2516 -0.2770 -0.3446
15830TIP3    H168981   6.239   4.352  10.515 -0.0837 -0.6134  1.0123
15830TIP3    H268982   6.112   4.315  10.589 -1.2283 -0.5634 -0.8668
15831TIP3   OH268983   2.442   4.772   4.498  0.4221  0.2786  0.0306
15831TIP3    H168984   2.458   4.687   4.458  1.1330  0.7707 -0.7798
15831TIP3    H268985   2.491   4.834   4.443 -0.0289  1.1999  0.6352
15832TIP3   OH268986   1.031   4.519   5.060  0.4328  0.2517 -0.3745
15832TIP3    H168987   1.034   4.498   5.153 -0.8691 -1.1768 -0.6045
15832TIP3    H268988   1.080   4.449   5.017  1.2148  1.0194 -0.7630
15833TIP3   OH268989   3.257   5.967  14.984  0.0818 -0.3270  0.0998
15833TIP3    H168990   3.289   6.049  15.024  0.2468 -0.2884 -0.1077
15833TIP3    H268991   3.336   5.927  14.946  0.2373 -1.2036  1.2786
15834TIP3   OH268992   4.314   0.374   3.066  0.4077 -0.2360  0.4322
15834TIP3    H168993   4.390   0.319   3.044 -0.6802 -1.2720 -0.9075
15834TIP3    H268994   4.352   0.457   3.094  2.0506 -0.9680  0.4952
15835TIP3   OH268995   6.166   1.168  11.125  0.1630 -0.2966 -0.5202
15835TIP3    H168996   6.096   1.123  11.078 -2.5479  0.5708  2.3405
15835TIP3    H268997   6.154   1.261  11.101 -0.0643 -0.0801  0.4104
15836TIP3   OH268998   1.948   2.983  15.082  0.3420 -0.1406  0.3632
15836TIP3    H168999   1.918   3.040  15.012  0.7630 -1.8532 -1.2965
15836TIP3    H269000   1.885   2.996  15.153 -1.1217  0.3547 -0.9847
15837TIP3   OH269001   6.570   6.399  14.599  0.0501  0.3128  0.4115
15837TIP3    H169002   6.598   6.417  14.689  3.1707 -1.4055 -0.0492
15837TIP3    H269003   6.652   6.380  14.553 -1.6129 -0.5898 -2.3677
15838TIP3   OH269004   4.561   3.497  10.265 -0.0198  0.5803  0.3678
15838TIP3    H169005   4.592   3.585  10.246  1.8137  0.0824  0.8284
15838TIP3    H269006   4.606   3.442  10.201 -0.7408 -0.0865  0.4215
15839TIP3   OH269007   3.660   5.450   3.954 -0.4855  0.0205  0.3671
15839TIP3    H169008   3.574   5.418   3.926  0.6849 -1.5514 -1.7792
15839TIP3    H269009   3.681   5.399   4.032 -0.2253 -1.9682 -0.9225
15840TIP3   OH269010   5.863   4.427   3.326  0.0609 -0.5734  0.2531
15840TIP3    H169011   5.773   4.409   3.353  0.2138  0.1459  1.3258
15840TIP3    H269012   5.902   4.341   3.312 -1.5894 -0.9288 -3.1608
15841TIP3   OH269013   3.257   2.438  15.399 -0.1506  0.1706 -0.4144
15841TIP3    H169014   3.257   2.511  15.337  0.7598  0.6668  0.1358
15841TIP3    H269015   3.166   2.433  15.430 -0.3025  0.8334 -0.7317
15842TIP3   OH269016   0.871   6.485   1.480  0.5651 -0.9759  0.2671
15842TIP3    H169017   0.781   6.453   1.480  0.7587 -1.5441 -0.3446
15842TIP3    H269018   0.875   6.544   1.556  0.6502 -3.7269  2.5771
15843TIP3   OH269019   3.956   1.825   5.269 -0.3938  0.2431  0.2490
15843TIP3    H169020   3.898   1.859   5.336  0.5124  0.1093  1.1228
15843TIP3    H269021   3.905   1.830   5.188 -1.9851 -0.8186  1.1284
15844TIP3   OH269022   5.327   6.402  17.083 -0.2746 -0.1958  0.1487
15844TIP3    H169023   5.254   6.343  17.103  0.1567 -0.8123 -0.0519
15844TIP3    H269024   5.378   6.355  17.017  1.5091 -0.7737  1.8527
15845TIP3   OH269025   5.471   4.768  17.141 -0.1167 -0.5654 -0.4158
15845TIP3    H169026   5.397   4.718  17.175 -0.3831  0.4368  0.5459
15845TIP3    H269027   5.450   4.859  17.161 -0.2981  0.1278 -3.3537
15846TIP3   OH269028   0.470   2.411  14.608 -0.6484  0.0278 -0.0230
15846TIP3    H169029   0.452   2.361  14.529  0.5191  0.6251 -0.6985
15846TIP3    H269030   0.457   2.502  14.582  1.3780  0.3664 -0.0559
15847TIP3   OH269031   3.211   1.345   3.955 -0.7631  0.1329  0.0988
15847TIP3    H169032   3.274   1.418   3.952  0.0923 -0.5911  0.0426
15847TIP3    H269033   3.168   1.347   3.869  1.9794 -1.7368 -1.4831
15848TIP3   OH269034   3.882   3.158   4.077  0.3603 -0.6402  0.2919
15848TIP3    H169035   3.885   3.065   4.055 -3.1869 -0.9626  0.5350
15848TIP3    H269036   3.870   3.203   3.994  1.9308 -0.3609  0.1893
15849TIP3   OH269037   3.830   2.291  11.304  0.1863  0.7509  0.3650
15849TIP3    H169038   3.910   2.332  11.272 -0.3376  0.8837 -0.8330
15849TIP3    H269039   3.840   2.288  11.399  2.2727 -0.6272  0.1532
15850TIP3   OH269040   0.890   4.350   2.321  0.1783  0.0788 -0.0045
15850TIP3    H169041   0.970   4.380   2.278 -0.2849  0.7809 -0.3970
15850TIP3    H269042   0.917   4.330   2.410  0.6798  0.8898  0.0369
15851TIP3   OH269043   1.861   1.891   1.603 -0.0149 -0.4327  0.2839
15851TIP3    H169044   1.821   1.960   1.550  1.5706 -0.2841 -0.7807
15851TIP3    H269045   1.881   1.933   1.686  0.1088  0.1451 -0.0292
15852TIP3   OH269046   1.561   6.276  15.054 -0.7213 -0.8151  0.4608
15852TIP3    H169047   1.504   6.305  15.125 -2.6527  2.8889 -2.3154
15852TIP3    H269048   1.502   6.246  14.986  0.9833 -2.3854 -0.4234
15853TIP3   OH269049   6.121   1.142   4.950  0.2598 -0.0812  0.4019
15853TIP3    H169050   6.158   1.164   4.865 -0.2087 -2.3361 -0.4431
15853TIP3    H269051   6.052   1.207   4.964  1.5959  1.5009  0.0004
15854TIP3   OH269052   2.782   0.573  16.672  0.5190  0.2778 -1.0373
15854TIP3    H169053   2.798   0.482  16.647  1.6288 -0.1054  0.8879
15854TIP3    H269054   2.700   0.570  16.722  1.7675 -0.1458  1.1190
15855TIP3   OH269055   2.433   5.844   4.655 -0.3610 -0.3623  0.2835
15855TIP3    H169056   2.417   5.875   4.566 -2.7915 -1.4167  0.2798
15855TIP3    H269057   2.398   5.913   4.711 -0.0817 -0.3165  0.4027
15856TIP3   OH269058   4.596   2.591  14.086 -0.2956 -0.2505  0.9946
15856TIP3    H169059   4.657   2.602  14.159  2.1838  0.8011 -1.0705
15856TIP3    H269060   4.617   2.505  14.050  0.0549  0.1419  0.2329
15857TIP3   OH269061   3.951   6.450   0.729  0.4888 -0.2349 -0.3572
15857TIP3    H169062   3.939   6.525   0.788  0.5096  0.8245 -1.6402
15857TIP3    H269063   3.922   6.374   0.780 -0.6694  0.7883  0.5806
15858TIP3   OH269064   3.873   4.098  13.809 -0.0685 -0.5781 -0.4528
15858TIP3    H169065   3.912   4.163  13.751 -2.0861  0.2388 -0.9942
15858TIP3    H269066   3.945   4.038  13.831  1.8086  1.6373 -0.1618
15859TIP3   OH269067   4.664   5.904  12.335 -0.1263  0.2159  0.0299
15859TIP3    H169068   4.597   5.956  12.290 -1.2920 -1.1350  0.1381
15859TIP3    H269069   4.622   5.820  12.351  1.9294 -1.0627 -0.8325
15860TIP3   OH269070   1.669   0.086  12.103  0.2961 -0.8201  0.0411
15860TIP3    H169071   1.586   0.038  12.107  1.5855 -3.2602 -0.5684
15860TIP3    H269072   1.681   0.105  12.010 -0.5532  1.4733  0.3431
15861TIP3   OH269073   1.914   5.621  16.087  0.6783  0.1670 -0.1501
15861TIP3    H169074   1.827   5.658  16.071  0.5967  0.0076 -0.0806
15861TIP3    H269075   1.929   5.561  16.013 -0.8092 -2.5893  1.6127
15862TIP3   OH269076   4.393   5.956  15.350  0.0118  0.7346  0.2421
15862TIP3    H169077   4.460   5.900  15.311  0.2965  1.2945 -0.0928
15862TIP3    H269078   4.430   5.983  15.434  0.3725  1.3267 -0.0959
15863TIP3   OH269079   5.796   4.754   3.005  0.4280 -0.2171  0.0327
15863TIP3    H169080   5.753   4.745   3.090  0.5989 -1.3773  0.0121
15863TIP3    H269081   5.733   4.717   2.943  0.2674  0.7075 -0.3720
15864TIP3   OH269082   2.508   6.801   1.547  0.1227 -0.0633  1.1353
15864TIP3    H169083   2.450   6.825   1.619  0.5304  3.3395  0.4987
15864TIP3    H269084   2.455   6.810   1.468  0.1991 -1.9293  0.8222
15865TIP3   OH269085   2.628   2.374   2.049 -0.9474  0.3478  0.2350
15865TIP3    H169086   2.687   2.423   2.106 -0.7909  0.8031 -0.3121
15865TIP3    H269087   2.544   2.376   2.095 -0.9766  1.2348  0.1630
15866TIP3   OH269088   1.424   2.676  11.506  0.4112  0.4722 -0.6609
15866TIP3    H169089   1.339   2.676  11.462  0.0621 -0.8946 -0.0538
15866TIP3    H269090   1.479   2.620  11.451  0.2475 -0.4631  0.0970
15867TIP3   OH269091   6.342   3.877  16.048 -0.1771 -0.2774 -0.3531
15867TIP3    H169092   6.411   3.943  16.045 -0.5912  0.2373  0.8045
15867TIP3    H269093   6.369   3.817  16.118 -0.4964 -0.5350 -0.4480
15868TIP3   OH269094   4.138   0.565   1.936 -0.4419 -0.1458 -0.2724
15868TIP3    H169095   4.232   0.562   1.954 -0.1186  0.5227 -1.7209
15868TIP3    H269096   4.132   0.555   1.841 -1.6569  2.5851 -0.5524
15869TIP3   OH269097   3.039   4.272  15.952  0.5899 -0.0915 -0.0098
15869TIP3    H169098   2.995   4.324  16.019  2.9066 -0.5183  1.9946
15869TIP3    H269099   3.038   4.327  15.873 -1.6580  0.6890  0.4988
15870TIP3   OH269100   4.616   4.403   2.779 -0.2957 -0.4688 -0.3228
15870TIP3    H169101   4.558   4.458   2.726 -0.5589  0.2017  0.6368
15870TIP3    H269102   4.563   4.326   2.801 -0.3633 -0.4976 -0.5867
15871TIP3   OH269103   6.766   1.187   3.000  0.1595  0.2962 -0.1106
15871TIP3    H169104   6.693   1.226   2.953 -0.0499  1.1054  0.8375
15871TIP3    H269105   6.741   1.095   3.011  0.7018 -0.1926 -2.4537
15872TIP3   OH269106   5.776   0.500  16.608 -0.4264 -0.0229  0.4232
15872TIP3    H169107   5.858   0.490  16.559 -0.4186 -3.1157  0.8415
15872TIP3    H269108   5.711   0.526  16.542  0.2142 -1.0396 -0.6519
15873TIP3   OH269109   3.474   0.932  11.777 -0.3057  0.4624 -0.0721
15873TIP3    H169110   3.558   0.968  11.750 -0.3451  0.0990 -0.6993
15873TIP3    H269111   3.432   1.003  11.826  0.7736  0.3191  1.1273
15874TIP3   OH269112   2.016   1.065   4.323  0.4742  0.1424  0.6167
15874TIP3    H169113   2.022   1.022   4.237  0.0607 -0.4413  0.8691
15874TIP3    H269114   2.007   1.158   4.303 -0.3840 -0.0583 -0.0111
15875TIP3   OH269115   5.286   5.129  15.102  0.6019  0.2496 -0.5256
15875TIP3    H169116   5.361   5.169  15.146  1.9587 -0.9920 -1.5912
15875TIP3    H269117   5.215   5.134  15.166  1.1269  2.8757 -0.0603
15876TIP3   OH269118   1.574   6.324  11.177 -0.0744  0.3063  0.1321
15876TIP3    H169119   1.531   6.401  11.213  0.1508  0.2346  0.5542
15876TIP3    H269120   1.667   6.337  11.196 -0.1840 -0.7951  1.6048
15877TIP3   OH269121   0.777   0.756  14.429  0.3273 -0.1464 -0.0736
15877TIP3    H169122   0.769   0.661  14.419 -1.1209 -0.2005  1.1395
15877TIP3    H269123   0.783   0.790  14.340  1.0738 -1.3849 -0.5142
15878TIP3   OH269124   3.251   6.746  16.448 -0.0933  0.6538 -0.5282
15878TIP3    H169125   3.336   6.707  16.430 -0.3166  0.3158 -0.8501
15878TIP3    H269126   3.230   6.797  16.370 -0.6037 -0.0094 -0.8364
15879TIP3   OH269127   3.825   4.262   0.062 -0.1363 -0.5470 -0.1828
15879TIP3    H169128   3.770   4.281  -0.014  1.4567  1.9279 -0.8336
15879TIP3    H269129   3.885   4.193   0.032 -1.4524 -1.7477 -0.1395
15880TIP3   OH269130   2.814   2.643  12.317  0.1245 -0.3581 -0.2539
15880TIP3    H169131   2.878   2.628  12.387 -0.6705  0.9132  0.7812
15880TIP3    H269132   2.747   2.698  12.357 -1.4665 -1.3762 -1.4066
15881TIP3   OH269133   0.324   5.072   1.720  0.9405 -0.0764 -0.0825
15881TIP3    H169134   0.379   5.087   1.643  0.9622  0.7449  0.0840
15881TIP3    H269135   0.385   5.064   1.793  0.9134 -0.7398 -0.1235
15882TIP3   OH269136   0.930   6.476   5.623 -0.1925 -0.0828  0.7070
15882TIP3    H169137   0.962   6.391   5.653 -0.6731  0.0325  1.5984
15882TIP3    H269138   1.008   6.528   5.607  0.1877 -1.2218 -1.5679
15883TIP3   OH269139   1.030   5.559  12.581  0.5796 -0.6257  0.0360
15883TIP3    H169140   1.075   5.534  12.501 -0.7649  0.1181 -1.0042
15883TIP3    H269141   0.941   5.526  12.570  0.3394 -0.4220  1.1876
15884TIP3   OH269142   5.021   2.681   0.052  0.5011 -0.2296 -0.2219
15884TIP3    H169143   5.110   2.645   0.047  1.4576  1.8350  0.5531
15884TIP3    H269144   5.008   2.697   0.146  0.0927  1.2108 -0.4960
15885TIP3   OH269145   3.377   5.746   4.996 -0.1181 -0.1567  0.4348
15885TIP3    H169146   3.333   5.824   4.962 -1.3587 -1.7635 -1.8907
15885TIP3    H269147   3.356   5.745   5.089 -0.2118  2.1425  0.4940
15886TIP3   OH269148   3.315   4.155  16.177 -0.6108  0.1865  0.3604
15886TIP3    H169149   3.295   4.249  16.175 -1.3198  0.0228 -0.7257
15886TIP3    H269150   3.324   4.135  16.271 -0.1720  1.3811  0.5903
15887TIP3   OH269151   0.660   4.980   5.018 -0.0649 -0.8599  0.5179
15887TIP3    H169152   0.743   5.010   5.056 -0.3832 -0.7161  1.0968
15887TIP3    H269153   0.633   4.908   5.074  1.0010 -2.7077 -1.1956
15888TIP3   OH269154   5.292   5.811   5.765 -0.1410  0.6618 -0.3443
15888TIP3    H169155   5.267   5.743   5.828  1.3458 -0.0605 -0.5006
15888TIP3    H269156   5.298   5.765   5.682  0.3621  1.0948 -0.5510
15889TIP3   OH269157   2.230   1.035  13.089 -0.2451 -0.7152  0.6232
15889TIP3    H169158   2.148   1.035  13.040  0.2724 -0.1741 -0.2619
15889TIP3    H269159   2.255   1.127  13.093 -0.1294 -0.7810  1.6769
15890TIP3   OH269160   1.677   0.111   5.394  0.6354 -0.3577 -0.3937
15890TIP3    H169161   1.714   0.086   5.310  3.1488 -0.9541  0.7999
15890TIP3    H269162   1.751   0.140   5.446 -0.7700 -0.3451  1.7476
15891TIP3   OH269163   1.420   6.813   3.342 -0.8486  0.0005  0.3630
15891TIP3    H169164   1.435   6.891   3.394 -0.1182  0.1553 -0.0750
15891TIP3    H269165   1.500   6.761   3.350 -1.9824 -1.6179  2.1540
15892TIP3   OH269166   4.873   3.346  14.816 -0.4191  0.4014  0.1171
15892TIP3    H169167   4.896   3.254  14.806  0.7710  0.7305 -0.4081
15892TIP3    H269168   4.892   3.385  14.731 -3.7097  0.6209 -0.6279
15893TIP3   OH269169   0.480   3.857  10.819  0.1232 -0.1394 -0.3702
15893TIP3    H169170   0.398   3.809  10.802 -0.8348  1.5855 -0.8167
15893TIP3    H269171   0.467   3.896  10.906  0.9219 -0.7177  0.0195
15894TIP3   OH269172   5.735   1.070  16.579  0.0763 -0.8398  0.4098
15894TIP3    H169173   5.641   1.088  16.573 -0.0943 -2.1891 -1.9622
15894TIP3    H269174   5.752   1.006  16.511  2.9130  0.0398  0.1488
15895TIP3   OH269175   5.197   3.686   4.228 -0.0453 -0.1378 -0.5066
15895TIP3    H169176   5.108   3.667   4.259  0.3159 -0.2821  0.4887
15895TIP3    H269177   5.205   3.635   4.147 -0.6989 -0.5272 -0.3390
15896TIP3   OH269178   2.480   5.328  13.087 -0.5789 -0.2166  0.3192
15896TIP3    H169179   2.434   5.289  13.012 -0.4435 -1.7262  0.9796
15896TIP3    H269180   2.427   5.404  13.110 -1.0196 -0.1429 -0.8649
15897TIP3   OH269181   0.123   4.248  13.471 -0.5475 -0.4177 -0.1360
15897TIP3    H169182   0.092   4.203  13.392  1.3587  0.9147 -1.7587
15897TIP3    H269183   0.199   4.298  13.441  0.8144 -0.5566  2.7648
15898TIP3   OH269184   6.242   5.736  12.620  0.0511 -0.2986  0.6348
15898TIP3    H169185   6.160   5.732  12.668  0.5936  0.6626  1.6912
15898TIP3    H269186   6.272   5.645  12.616 -1.2523 -0.7285 -0.1654
15899TIP3   OH269187   5.665   5.334  13.932  0.3603  0.2663  0.0890
15899TIP3    H169188   5.602   5.293  13.990 -1.9985 -1.2944 -3.2592
15899TIP3    H269189   5.749   5.292  13.952 -0.7373 -1.5377  1.0844
15900TIP3   OH269190   0.578   6.333  12.958  0.0155  0.2737 -0.6740
15900TIP3    H169191   0.629   6.308  12.882  1.3456 -1.3893  0.6856
15900TIP3    H269192   0.628   6.302  13.033 -2.2516 -0.0881  0.8185
15901TIP3   OH269193   6.417   4.218   0.627 -0.0088  0.3628  0.4028
15901TIP3    H169194   6.389   4.215   0.536 -0.3232 -0.5496  0.5163
15901TIP3    H269195   6.337   4.233   0.676  0.2721  1.6802  0.4906
15902TIP3   OH269196   0.241   6.001   4.924 -0.5191  0.5526 -0.3370
15902TIP3    H169197   0.197   5.988   5.008 -1.2207 -0.4044 -0.8453
15902TIP3    H269198   0.259   5.913   4.892  0.3823  0.9183 -0.8723
15903TIP3   OH269199   0.555   3.817   0.500 -0.1032 -0.2546  0.4215
15903TIP3    H169200   0.466   3.797   0.470 -0.1275 -0.9661  0.9224
15903TIP3    H269201   0.568   3.909   0.478 -0.2084 -0.6531 -1.4776
15904TIP3   OH269202   3.613   6.038  14.099 -0.0109  0.0089 -0.7057
15904TIP3    H169203   3.532   6.027  14.049 -0.5002  0.3817 -0.0176
15904TIP3    H269204   3.590   6.099  14.170  0.9232  0.2769 -0.6113
15905TIP3   OH269205   1.492   2.036  13.604  0.8091  0.0629 -0.9152
15905TIP3    H169206   1.533   2.074  13.526 -0.2785  0.8106 -1.1561
15905TIP3    H269207   1.445   1.959  13.571  0.9369 -0.0322 -0.8742
15906TIP3   OH269208   1.296   5.701   2.577  0.2478  0.5387 -0.1526
15906TIP3    H169209   1.300   5.795   2.594  2.7776  0.2793  1.0780
15906TIP3    H269210   1.274   5.662   2.661 -0.3412 -0.0357 -0.5581
15907TIP3   OH269211   1.441   5.336  16.463 -0.1307  0.3570 -0.4777
15907TIP3    H169212   1.494   5.297  16.394 -0.1175 -1.3690  0.4518
15907TIP3    H269213   1.466   5.289  16.542 -2.3423  0.1394  0.1557
15908TIP3   OH269214   3.955   2.317   4.616  0.2307 -0.0405 -0.2895
15908TIP3    H169215   3.933   2.242   4.670 -1.2955  1.0694  0.7068
15908TIP3    H269216   4.012   2.370   4.671 -0.8469  0.8042  0.0456
15909TIP3   OH269217   3.117   4.178  17.152 -0.1890 -0.0038 -0.6691
15909TIP3    H169218   3.129   4.216  17.239  0.7092 -0.3115 -0.6528
15909TIP3    H269219   3.127   4.252  17.092  1.7634 -0.2189 -0.6532
15910TIP3   OH269220   2.139   3.780   3.929 -0.3999  0.5905 -0.4006
15910TIP3    H169221   2.058   3.832   3.931  0.2222  1.5809  0.7803
15910TIP3    H269222   2.137   3.730   4.011  0.7685  1.5996  0.2767
15911TIP3   OH269223   2.526   3.651  11.633 -0.6538  0.0787  0.3608
15911TIP3    H169224   2.557   3.675  11.546  1.0055  3.2597  1.6569
15911TIP3    H269225   2.566   3.566  11.651 -2.1477 -1.3472 -2.3874
15912TIP3   OH269226   2.393   6.318  12.585  0.2539  0.2965  0.7457
15912TIP3    H169227   2.303   6.349  12.577 -0.2665 -1.3261 -0.3473
15912TIP3    H269228   2.386   6.241  12.642  0.5274 -1.1645 -1.0721
15913TIP3   OH269229   4.967   2.071   0.410 -0.3422  0.1635  0.9447
15913TIP3    H169230   4.940   2.160   0.386 -1.3381 -0.7447 -1.6551
15913TIP3    H269231   5.058   2.081   0.438 -0.2668  1.9572  0.2438
15914TIP3   OH269232   0.720   4.145  12.997  0.9092 -0.2318  0.9093
15914TIP3    H169233   0.634   4.170  12.961  0.1050 -1.4344  1.9029
15914TIP3    H269234   0.750   4.075  12.939 -0.4000 -2.1889  2.4257
15915TIP3   OH269235   1.775   5.430   3.338  0.1112 -0.2669 -0.2988
15915TIP3    H169236   1.781   5.511   3.389 -0.9690 -0.5177  0.2515
15915TIP3    H269237   1.846   5.438   3.273  0.8428  0.5267  0.5583
15916TIP3   OH269238   1.217   3.251  16.227  0.0734 -0.1792  0.2788
15916TIP3    H169239   1.259   3.198  16.159  2.4072  0.8669  0.8080
15916TIP3    H269240   1.192   3.332  16.182  1.3066  0.3723  0.5443
15917TIP3   OH269241   3.661   0.290   5.516  0.6225 -0.4885  0.1588
15917TIP3    H169242   3.609   0.365   5.487  0.7647 -1.0593 -1.7336
15917TIP3    H269243   3.710   0.322   5.591  0.1476  1.1048 -0.1746
15918TIP3   OH269244   3.108   3.219   1.198 -0.5075  0.1504 -0.6164
15918TIP3    H169245   3.163   3.279   1.247 -2.0936  0.4241  0.9793
15918TIP3    H269246   3.148   3.133   1.212  0.0467  0.4544 -0.3051
15919TIP3   OH269247   4.045   1.232  16.202  0.0193 -0.1027 -0.1641
15919TIP3    H169248   4.048   1.190  16.288  0.3082 -0.2047 -0.2201
15919TIP3    H269249   3.997   1.171  16.146 -1.2313  0.5042  0.2121
15920TIP3   OH269250   0.389   2.558   3.092  0.3955 -0.3636 -0.6998
15920TIP3    H169251   0.386   2.645   3.132  0.9442 -0.1034 -1.2140
15920TIP3    H269252   0.302   2.546   3.055  0.1809 -0.2128 -0.2551
15921TIP3   OH269253   0.719   5.416   3.868  0.2767 -0.1380  0.5827
15921TIP3    H169254   0.803   5.371   3.864 -0.6792 -1.9557 -0.2094
15921TIP3    H269255   0.666   5.373   3.801 -0.6910  2.2812 -0.3271
15922TIP3   OH269256   0.387   6.339   0.140  0.2282 -0.2872 -0.0532
15922TIP3    H169257   0.332   6.308   0.068  0.4256 -0.0066 -0.3275
15922TIP3    H269258   0.477   6.331   0.106  0.3969 -1.1904  0.5564
15923TIP3   OH269259   5.451   6.447  15.806 -0.3783  0.3960  0.6482
15923TIP3    H169260   5.464   6.382  15.875  1.6002  0.6664  0.6007
15923TIP3    H269261   5.517   6.426  15.740 -1.8093  0.5358 -0.8837
15924TIP3   OH269262   5.084   3.394  15.353 -0.6734 -0.3665  0.7746
15924TIP3    H169263   5.015   3.432  15.298 -1.5360 -0.8282  1.5071
15924TIP3    H269264   5.150   3.463  15.361 -1.3895  0.3436  0.6324
15925TIP3   OH269265   0.152   2.623   1.672 -0.1203 -0.1373  0.0909
15925TIP3    H169266   0.134   2.683   1.599  1.4037 -0.7771 -0.8714
15925TIP3    H269267   0.093   2.651   1.742  1.3404  3.2489  0.1251
15926TIP3   OH269268   6.238   1.368   5.633 -0.3440  0.1797 -0.6451
15926TIP3    H169269   6.287   1.305   5.685 -0.4219  0.2376 -0.5024
15926TIP3    H269270   6.303   1.404   5.572  0.0355  1.0253  0.2423
15927TIP3   OH269271   4.185   5.064   2.513 -0.2820  0.8212  0.1344
15927TIP3    H169272   4.166   4.972   2.534 -1.9193  1.1612  0.2934
15927TIP3    H269273   4.204   5.104   2.597  3.4361  0.0742 -0.1945
15928TIP3   OH269274   5.461   3.001   1.834 -0.3453 -0.2991 -0.1439
15928TIP3    H169275   5.506   3.062   1.893  1.0918  0.8927 -2.3171
15928TIP3    H269276   5.527   2.934   1.814 -1.1467 -1.2680  0.3417
15929TIP3   OH269277   0.982   4.449  13.476  0.4131  0.5401  0.5815
15929TIP3    H169278   1.028   4.527  13.447 -1.0113  1.2160  0.0667
15929TIP3    H269279   1.051   4.384  13.489  1.6911  2.0384  1.6055
15930TIP3   OH269280   1.004   6.327   1.668  0.2500 -0.0452  0.4989
15930TIP3    H169281   0.967   6.369   1.590 -1.3083 -0.8006  0.7820
15930TIP3    H269282   1.074   6.271   1.635  2.6589  2.9225  0.1352
15931TIP3   OH269283   5.669   6.310  14.750  0.5080 -0.2551 -0.2418
15931TIP3    H169284   5.703   6.346  14.832  0.7496 -1.3836  0.1832
15931TIP3    H269285   5.746   6.307  14.692  0.7115 -0.9545  0.0491
15932TIP3   OH269286   5.290   2.209  11.965 -0.0398 -0.0734  0.1395
15932TIP3    H169287   5.303   2.178  12.055 -2.1805  1.8713  1.2325
15932TIP3    H269288   5.277   2.304  11.974  1.1666  0.4035 -2.4303
15933TIP3   OH269289   6.578   0.114  14.687 -0.7602 -0.4391 -0.1283
15933TIP3    H169290   6.521   0.122  14.610 -1.1700 -0.8795  0.1229
15933TIP3    H269291   6.521   0.134  14.761  0.1358  2.1976 -0.0372
15934TIP3   OH269292   5.468   3.247  12.080 -0.0025 -0.3694 -0.4577
15934TIP3    H169293   5.479   3.282  11.991 -1.9969 -0.6419 -0.8607
15934TIP3    H269294   5.397   3.299  12.117 -0.0898 -1.1455  0.4944
15935TIP3   OH269295   6.755   3.467   0.502  0.0612 -0.0175 -0.6115
15935TIP3    H169296   6.781   3.559   0.493 -1.3096  0.2387 -2.5850
15935TIP3    H269297   6.703   3.465   0.582 -0.7242  1.1450 -1.0673
15936TIP3   OH269298   6.463   4.571  15.146 -0.4208  0.1068  0.5429
15936TIP3    H169299   6.434   4.661  15.162 -1.1734 -0.4557  2.6623
15936TIP3    H269300   6.445   4.525  15.228 -0.8799 -2.2062 -0.7777
15937TIP3   OH269301   3.034   6.187   0.235 -0.0886 -0.0542 -0.3225
15937TIP3    H169302   2.940   6.187   0.217 -0.4210 -3.3760  0.7957
15937TIP3    H269303   3.075   6.165   0.152 -0.2833  0.9984 -0.7170
15938TIP3   OH269304   5.474   5.711   6.412  0.5812 -0.1068  0.5411
15938TIP3    H169305   5.534   5.660   6.467 -1.0643 -0.2298  2.3127
15938TIP3    H269306   5.387   5.683   6.439 -0.3604  2.4433  0.3954
15939TIP3   OH269307   2.415   0.281  13.243 -0.7450  0.4800 -0.7530
15939TIP3    H169308   2.429   0.332  13.323  1.0536 -1.4135  0.2329
15939TIP3    H269309   2.345   0.220  13.266 -0.5263  0.2250 -0.7628
15940TIP3   OH269310   2.499   0.451  11.446 -0.4440  0.0845  0.0719
15940TIP3    H169311   2.477   0.371  11.398  0.9399 -0.5759  0.4861
15940TIP3    H269312   2.535   0.420  11.529  0.7082  1.1116 -0.0231
15941TIP3   OH269313   3.500   0.310   4.615 -0.4462 -0.0228  0.4493
15941TIP3    H169314   3.490   0.257   4.536  2.2143 -0.5771  0.3986
15941TIP3    H269315   3.498   0.247   4.687 -1.0536  0.2696  0.6950
15942TIP3   OH269316   3.346   1.305  11.654 -0.0606  0.5369 -0.1738
15942TIP3    H169317   3.265   1.357  11.647  0.4491  1.3086 -0.5119
15942TIP3    H269318   3.315   1.216  11.668 -0.9876  0.7550 -0.6896
15943TIP3   OH269319   3.583   2.374  14.237  0.1476 -0.3253 -0.7419
15943TIP3    H169320   3.646   2.425  14.186  0.9565 -1.3236 -0.7832
15943TIP3    H269321   3.499   2.419  14.225  0.4482 -0.1414 -2.4052
15944TIP3   OH269322   3.436   6.341  11.691 -0.1275 -0.4165  0.4687
15944TIP3    H169323   3.482   6.283  11.753  1.0638  0.6576  0.6280
15944TIP3    H269324   3.404   6.413  11.746  2.2058  1.3166 -0.2753
15945TIP3   OH269325   1.139   5.550  14.013 -0.1855  0.4009 -0.6317
15945TIP3    H169326   1.172   5.471  14.056 -1.1922 -0.3602 -1.2254
15945TIP3    H269327   1.215   5.608  14.009  0.4321 -0.3061  0.3323
15946TIP3   OH269328   6.170   3.944   0.537 -0.3971  0.0203 -0.5385
15946TIP3    H169329   6.130   4.003   0.473 -0.0726  0.1207 -0.6547
15946TIP3    H269330   6.204   3.871   0.484 -1.7885 -0.8481 -0.2859
15947TIP3   OH269331   1.632   1.243   0.963 -0.1849  0.0726  0.2697
15947TIP3    H169332   1.678   1.319   0.928  1.4846 -0.7444  0.5598
15947TIP3    H269333   1.671   1.168   0.918 -1.2377 -0.6772  0.5573
15948TIP3   OH269334   2.609   6.225   4.997  0.0627 -0.1667  0.2824
15948TIP3    H169335   2.580   6.137   5.019  1.2112  0.1546  3.5886
15948TIP3    H269336   2.704   6.223   5.006 -0.0065  1.8731  3.0671
15949TIP3   OH269337   3.995   0.773   3.274  0.5606  0.0208 -0.3965
15949TIP3    H169338   3.986   0.764   3.368  0.6879  0.9313 -0.2938
15949TIP3    H269339   3.919   0.727   3.238  0.7137 -0.6597  0.1280
15950TIP3   OH269340   0.176   1.416  12.601  0.1946  0.0562 -0.5447
15950TIP3    H169341   0.189   1.388  12.510 -0.3221  2.1994 -1.3323
15950TIP3    H269342   0.085   1.395  12.620 -0.0980  0.8521 -1.0202
15951TIP3   OH269343   0.240   4.248  13.892 -0.2452  0.4868  0.5637
15951TIP3    H169344   0.278   4.321  13.843  0.1308 -0.3798 -0.4785
15951TIP3    H269345   0.241   4.174  13.830 -1.5297 -0.1529  1.2575
15952TIP3   OH269346   2.469   0.896   4.243  0.2026 -0.0100  0.1335
15952TIP3    H169347   2.521   0.850   4.309 -0.4980  0.7403  1.2467
15952TIP3    H269348   2.395   0.932   4.291  1.4494  3.5537 -0.3216
15953TIP3   OH269349   5.082   5.216   2.273 -0.3199  0.0317  0.1100
15953TIP3    H169350   5.012   5.242   2.332 -0.9772  2.4742 -1.5776
15953TIP3    H269351   5.038   5.171   2.201  0.1859 -0.8748  0.3565
15954TIP3   OH269352   1.511   4.208  16.621  0.3413 -0.2426  0.6592
15954TIP3    H169353   1.419   4.219  16.597  0.1512 -1.2215  0.8706
15954TIP3    H269354   1.541   4.296  16.643 -0.6001  0.0615  0.7762
15955TIP3   OH269355   5.256   5.085   6.401 -0.1357 -0.8377 -0.0787
15955TIP3    H169356   5.208   5.051   6.325 -0.3352 -0.7434  0.0039
15955TIP3    H269357   5.238   5.023   6.471 -2.1894  0.4872  0.6478
15956TIP3   OH269358   1.347   6.751   5.757  0.0927 -0.0993  0.5301
15956TIP3    H169359   1.354   6.688   5.828 -1.0168  0.0339  0.7695
15956TIP3    H269360   1.432   6.795   5.756  0.8738 -1.5612  0.3751
15957TIP3   OH269361   3.442   5.455  13.382  0.5958  0.1574  0.5962
15957TIP3    H169362   3.522   5.408  13.405  0.9385  0.0091 -0.8035
15957TIP3    H269363   3.413   5.495  13.464  2.0503  0.1360  1.1505
15958TIP3   OH269364   1.103   2.026   2.930 -0.2392  0.3443  1.0184
15958TIP3    H169365   1.170   2.025   2.998  0.2179 -1.2815  0.5845
15958TIP3    H269366   1.146   1.988   2.853 -0.9233  1.5831 -0.0238
15959TIP3   OH269367   2.104   6.604   3.312  0.0202 -0.6560  0.0001
15959TIP3    H169368   2.081   6.678   3.256 -0.7430  0.1992  1.3742
15959TIP3    H269369   2.169   6.640   3.372 -0.7101 -0.9417  0.9859
15960TIP3   OH269370   2.229   0.029  14.722  0.0224 -0.0404 -0.3010
15960TIP3    H169371   2.315   0.067  14.741  0.0333 -0.1281 -0.1709
15960TIP3    H269372   2.167   0.097  14.748  0.0496 -0.0091 -0.3178
15961TIP3   OH269373   0.672   5.498  11.793  0.1500  0.1757  0.6416
15961TIP3    H169374   0.712   5.564  11.736 -0.8358 -0.0679 -0.3797
15961TIP3    H269375   0.673   5.538  11.880  1.9399  0.4549  0.5349
15962TIP3   OH269376   3.891   2.387   1.674  0.2785 -0.1328  0.0235
15962TIP3    H169377   3.973   2.436   1.675 -0.1652  0.6321  1.3270
15962TIP3    H269378   3.871   2.372   1.766 -1.8347  1.0648 -0.1626
15963TIP3   OH269379   0.986   1.637   4.251 -0.0470 -0.0832 -0.3799
15963TIP3    H169380   1.046   1.712   4.258  0.5176 -0.6800  1.9175
15963TIP3    H269381   1.030   1.577   4.191  0.7647  0.2869 -0.1713
15964TIP3   OH269382   4.591   2.640  16.279  0.1318  0.0255  0.4793
15964TIP3    H169383   4.593   2.571  16.213 -0.7890  0.2455  0.2131
15964TIP3    H269384   4.549   2.600  16.355  1.7452 -0.4182  1.1810
15965TIP3   OH269385   0.569   4.203   5.085  0.1798 -0.4818  0.3210
15965TIP3    H169386   0.533   4.114   5.084  0.1248 -0.4611 -1.1482
15965TIP3    H269387   0.661   4.192   5.058  0.5571 -0.2257  1.4391
15966TIP3   OH269388   5.057   4.308   2.001  0.0350  0.3290  0.8122
15966TIP3    H169389   5.088   4.235   1.949  1.8453  1.5268  0.1106
15966TIP3    H269390   5.136   4.351   2.032 -0.9428  0.0093  4.1687
15967TIP3   OH269391   0.723   4.787   1.924 -0.2534 -0.1816  0.2553
15967TIP3    H169392   0.774   4.715   1.962 -0.5794  0.1034  1.2794
15967TIP3    H269393   0.655   4.744   1.872  0.8846 -0.5680 -0.9628
15968TIP3   OH269394   0.422   0.605  11.883  0.1295  0.0233  0.1096
15968TIP3    H169395   0.342   0.577  11.927 -0.2466  0.2503 -0.4219
15968TIP3    H269396   0.475   0.526  11.877 -0.7342 -0.4881 -0.9831
15969TIP3   OH269397   4.561   2.679  15.981 -0.1610 -0.3564  0.1199
15969TIP3    H169398   4.656   2.665  15.978 -0.0554  0.4372 -0.5459
15969TIP3    H269399   4.550   2.757  16.035 -0.5167 -0.9826  0.9833
15970TIP3   OH269400   5.166   3.994  15.596 -0.2850  0.2423 -0.1496
15970TIP3    H169401   5.260   3.978  15.582  0.2969  0.8813  2.5093
15970TIP3    H269402   5.126   3.978  15.510  2.1714 -0.5548 -1.2371
15971TIP3   OH269403   0.896   6.710   4.479 -0.3365  0.2431  0.1676
15971TIP3    H169404   0.834   6.778   4.453 -1.2624 -0.7374 -0.3006
15971TIP3    H269405   0.979   6.737   4.439 -0.1236  2.1765  1.7613
15972TIP3   OH269406   2.457   2.571   5.541 -0.6315  0.2600 -0.4489
15972TIP3    H169407   2.403   2.533   5.472 -0.9044 -0.3330  0.0936
15972TIP3    H269408   2.523   2.504   5.560 -0.9118  0.1888  0.2758
15973TIP3   OH269409   3.669   0.205   5.242  0.0783  0.0965  0.7227
15973TIP3    H169410   3.702   0.170   5.324  0.4024 -0.6028  0.2989
15973TIP3    H269411   3.584   0.243   5.264 -1.2156 -2.6567  0.8523
15974TIP3   OH269412   1.422   0.396   3.042  0.4929 -0.0530  0.1202
15974TIP3    H169413   1.343   0.345   3.028  0.6426 -0.7911  1.7008
15974TIP3    H269414   1.401   0.483   3.007 -0.5494 -0.5826 -0.6166
15975TIP3   OH269415   0.481   3.492   1.633 -0.3754 -0.0385 -0.0963
15975TIP3    H169416   0.413   3.426   1.641  0.1209 -0.5494 -0.0593
15975TIP3    H269417   0.501   3.516   1.724 -1.8036  1.4769 -0.1347
15976TIP3   OH269418   6.418   1.927  11.084 -0.1014 -0.0227  0.1934
15976TIP3    H169419   6.390   1.974  11.163 -1.4600 -0.0182 -0.2669
15976TIP3    H269420   6.402   1.988  11.013 -0.6110 -0.6686 -0.2635
15977TIP3   OH269421   5.383   0.703  15.895  0.0344 -0.1796  0.4927
15977TIP3    H169422   5.388   0.628  15.954  0.1831 -1.4035 -1.0357
15977TIP3    H269423   5.457   0.693  15.836 -1.1723 -0.0715 -1.1176
15978TIP3   OH269424   1.535   6.580  11.286  0.2624 -0.3606 -0.6130
15978TIP3    H169425   1.519   6.639  11.359  1.5547 -1.8885  0.9855
15978TIP3    H269426   1.572   6.636  11.217  2.4495  0.6024  1.2128
15979TIP3   OH269427   0.588   1.752  11.839  0.4531 -0.2811 -0.5126
15979TIP3    H169428   0.660   1.753  11.902 -2.7409 -0.5192  3.5249
15979TIP3    H269429   0.552   1.841  11.843 -0.5434 -0.6470 -1.0537
15980TIP3   OH269430   1.896   2.148  17.157 -0.0483 -0.3923 -0.3312
15980TIP3    H169431   1.843   2.216  17.116 -0.2232 -0.6158 -0.4808
15980TIP3    H269432   1.876   2.069  17.107  1.0238 -0.3321 -0.8914
15981TIP3   OH269433   5.909   2.449  13.878  0.1597 -0.4516 -0.1592
15981TIP3    H169434   5.820   2.484  13.868  0.0557 -0.8134 -0.5350
15981TIP3    H269435   5.896   2.356  13.894  0.5080 -0.6777 -1.1605
15982TIP3   OH269436   4.111   0.848   1.833 -0.3423  0.6257 -0.4849
15982TIP3    H169437   4.034   0.878   1.784 -2.1532  1.4560  2.5944
15982TIP3    H269438   4.089   0.760   1.860 -1.2792  1.5853  2.1862
15983TIP3   OH269439   6.259   2.914   5.329  0.3524  0.7125  0.4255
15983TIP3    H169440   6.239   2.872   5.413  0.0605 -0.5199 -0.2468
15983TIP3    H269441   6.346   2.882   5.307 -0.0745  0.0664 -0.3354
15984TIP3   OH269442   1.972   3.916   5.061 -0.1160 -0.2574 -0.1572
15984TIP3    H169443   1.946   3.832   5.099  0.9252 -0.8364 -0.6679
15984TIP3    H269444   2.050   3.942   5.111 -0.1147  0.1329 -0.3595
15985TIP3   OH269445   4.970   3.541  16.545 -0.4239  0.2654 -0.1959
15985TIP3    H169446   4.914   3.491  16.604 -0.2298 -1.6403 -1.5370
15985TIP3    H269447   5.043   3.483  16.526 -0.7947  0.5270 -2.7727
15986TIP3   OH269448   3.608   0.155   3.774  0.0913  0.4887  0.2332
15986TIP3    H169449   3.599   0.102   3.853 -0.3812  0.0417 -0.1159
15986TIP3    H269450   3.703   0.166   3.763  0.2315 -1.0432 -0.1966
15987TIP3   OH269451   0.053   6.159  14.027  0.8157 -0.5456  0.4594
15987TIP3    H169452   0.030   6.199  14.111  0.2453 -0.4222  0.2474
15987TIP3    H269453   0.045   6.230  13.964  1.9405 -0.4584  0.3944
15988TIP3   OH269454   5.662   6.588   3.297  0.3157  0.3372  0.1124
15988TIP3    H169455   5.679   6.661   3.357  0.2170  0.7513 -0.3578
15988TIP3    H269456   5.616   6.628   3.223  0.2090 -0.2124 -0.1215
15989TIP3   OH269457   1.295   3.910  16.188 -0.1594 -0.2121 -0.1407
15989TIP3    H169458   1.347   3.870  16.118 -0.4026  0.8384 -0.9480
15989TIP3    H269459   1.231   3.964  16.143  1.3227  2.6139  0.8392
15990TIP3   OH269460   6.324   4.481  13.870  0.3697 -0.1073  0.1038
15990TIP3    H169461   6.294   4.519  13.787 -2.1245  0.7395  1.2852
15990TIP3    H269462   6.317   4.552  13.933  3.7675 -0.2712  0.8315
15991TIP3   OH269463   1.350   2.223  15.419  0.6897  0.4003  0.4859
15991TIP3    H169464   1.262   2.186  15.427  0.7704  0.5855  2.9979
15991TIP3    H269465   1.336   2.310  15.381 -0.1199  0.1147  0.1120
15992TIP3   OH269466   1.791   6.468  16.774 -0.6718 -0.4460 -0.0346
15992TIP3    H169467   1.726   6.404  16.800 -3.3879  1.4538 -1.5871
15992TIP3    H269468   1.804   6.453  16.680 -1.0675  0.9465 -0.3438
15993TIP3   OH269469   3.712   2.283   3.720  0.0034 -0.0839  0.2722
15993TIP3    H169470   3.798   2.272   3.679  0.1169  0.0974  0.4624
15993TIP3    H269471   3.672   2.357   3.672 -0.0120 -0.1109  0.2431
15994TIP3   OH269472   0.096   3.848   4.219 -0.0365  0.2556  0.1953
15994TIP3    H169473   0.090   3.905   4.296  0.1576  1.1013 -0.3968
15994TIP3    H269474   0.016   3.795   4.223 -0.5504  1.0165  0.4288
15995TIP3   OH269475   3.705   0.387   4.812 -0.0627  0.0767 -0.0664
15995TIP3    H169476   3.679   0.423   4.727 -0.3271 -1.2291 -0.5630
15995TIP3    H269477   3.630   0.335   4.840 -0.1044  0.7590  1.1369
15996TIP3   OH269478   5.345   5.734  14.454 -0.0611 -0.1213  0.0987
15996TIP3    H169479   5.326   5.656  14.506 -0.2704  1.4566  2.5498
15996TIP3    H269480   5.343   5.806  14.517  1.0513  1.7767 -1.8892
15997TIP3   OH269481   1.922   0.690   3.080 -0.1132 -0.0006 -0.1320
15997TIP3    H169482   1.988   0.752   3.048 -0.7530  0.4863 -0.5471
15997TIP3    H269483   1.869   0.741   3.141  0.5792 -0.7010  1.0915
15998TIP3   OH269484   3.394   5.422   3.916 -0.4406  0.5352 -0.0858
15998TIP3    H169485   3.340   5.493   3.880 -0.0265  0.4685 -0.8564
15998TIP3    H269486   3.407   5.362   3.843 -0.6484 -0.2612  0.5217
15999TIP3   OH269487   6.729   3.262   3.728 -0.3594  0.1329 -0.1085
15999TIP3    H169488   6.667   3.322   3.687 -2.8051  0.6580  3.7992
15999TIP3    H269489   6.803   3.318   3.753  0.2404  0.1785 -1.8547
16000TIP3   OH269490   6.056   0.372   5.258  0.0844  0.1762 -0.0982
16000TIP3    H169491   6.088   0.365   5.348  0.5940  0.9195 -0.2126
16000TIP3    H269492   6.102   0.303   5.211  0.0135 -0.0458  0.1520
16001TIP3   OH269493   1.913   3.359   1.597  0.5841 -0.1368 -0.2879
16001TIP3    H169494   1.903   3.272   1.558  0.1289 -0.0846 -0.2885
16001TIP3    H269495   1.938   3.341   1.688  4.0045 -0.2777 -1.1142
16002TIP3   OH269496   2.694   5.302   3.075  0.5366  0.1707 -0.4481
16002TIP3    H169497   2.678   5.238   3.005 -0.6764  1.4048 -1.3364
16002TIP3    H269498   2.612   5.305   3.124  1.0976 -0.0550  0.5181
16003TIP3   OH269499   6.762   5.197   1.550  0.2155 -0.2227  0.2501
16003TIP3    H169500   6.808   5.181   1.632 -0.3371 -0.5689  0.4966
16003TIP3    H269501   6.706   5.273   1.568  0.4636  0.0102  0.0432
16004TIP3   OH269502   2.504   5.338  14.523  0.0450  0.0982 -0.0345
16004TIP3    H169503   2.474   5.301  14.606  0.8256  0.1347  0.2721
16004TIP3    H269504   2.516   5.431  14.542 -0.0395  0.1572 -0.2686
16005TIP3   OH269505   3.376   1.933   1.539  0.1365  0.0297 -0.1083
16005TIP3    H169506   3.407   1.973   1.457 -0.6427  0.3402 -0.2514
16005TIP3    H269507   3.437   1.965   1.605  0.6094 -0.0042 -0.5147
16006TIP3   OH269508   0.189   0.044  15.888 -0.2374 -0.3272 -0.4549
16006TIP3    H169509   0.135   0.112  15.927  1.2964  1.0166 -0.5605
16006TIP3    H269510   0.279   0.073  15.904  0.4524 -2.0505 -1.0141
16007TIP3   OH269511   3.387   3.374  14.597  0.0709 -0.5381  0.0064
16007TIP3    H169512   3.335   3.310  14.646 -1.0199  0.0563 -0.3191
16007TIP3    H269513   3.324   3.444  14.576  0.5065 -0.7080 -2.1197
16008TIP3   OH269514   2.256   6.640  13.554  0.2522 -0.6434 -0.9086
16008TIP3    H169515   2.279   6.639  13.461  0.7230 -0.7226 -0.7975
16008TIP3    H269516   2.300   6.718  13.589  0.6070 -0.9612 -0.6290
16009TIP3   OH269517   0.032   0.088   2.488 -0.3602  0.7751  0.2944
16009TIP3    H169518  -0.027   0.025   2.445  0.5271  0.4834 -0.5470
16009TIP3    H269519   0.040   0.056   2.577  0.5922 -0.7242 -0.2873
16010TIP3   OH269520   0.487   2.036  12.175 -0.7197 -0.1624 -0.2107
16010TIP3    H169521   0.496   2.121  12.218  1.0860  0.3300 -1.4381
16010TIP3    H269522   0.477   2.056  12.082 -0.7085 -1.2734 -0.4744
16011TIP3   OH269523   4.443   2.208  15.506 -0.0129 -0.2078 -0.4596
16011TIP3    H169524   4.494   2.191  15.426 -0.8440 -1.6075 -0.7209
16011TIP3    H269525   4.506   2.197  15.577  0.3534 -0.6412 -0.8449
16012TIP3   OH269526   5.963   3.260  14.398 -0.7519  0.3878  0.1629
16012TIP3    H169527   6.051   3.246  14.363 -0.2725  0.5812  1.2513
16012TIP3    H269528   5.977   3.296  14.485 -1.9120  0.0865  0.4957
16013TIP3   OH269529   6.747   6.069   5.758  0.9333  0.0548 -0.0423
16013TIP3    H169530   6.754   6.164   5.745 -0.2370 -0.1335 -2.7020
16013TIP3    H269531   6.758   6.057   5.852  0.3192  2.8941  0.4880
16014TIP3   OH269532   4.874   3.513   0.978  0.0986  0.8624 -0.4043
16014TIP3    H169533   4.808   3.521   0.909  1.2485  0.7736 -1.5323
16014TIP3    H269534   4.845   3.436   1.029  0.0063  0.0461 -1.6497
16015TIP3   OH269535   0.287   2.642  15.879  0.1588  0.6414 -0.1754
16015TIP3    H169536   0.238   2.654  15.798 -0.8515  0.7964  0.4402
16015TIP3    H269537   0.328   2.556  15.871 -1.8447 -0.3822  0.1105
16016TIP3   OH269538   5.785   5.512  10.887  0.0789 -0.1094  0.0583
16016TIP3    H169539   5.781   5.602  10.854  0.6195 -0.2215 -0.3407
16016TIP3    H269540   5.789   5.458  10.808  2.1566 -0.3410  0.2623
16017TIP3   OH269541   6.420   3.297   6.090  0.0601  0.1522  0.1779
16017TIP3    H169542   6.400   3.339   6.174 -1.7068 -0.1519 -0.0591
16017TIP3    H269543   6.473   3.222   6.114 -2.3055 -1.2752  1.3397
16018TIP3   OH269544   1.317   3.959   1.232  0.0335  0.4213  0.0585
16018TIP3    H169545   1.385   3.892   1.226 -1.5767 -1.1406 -2.9653
16018TIP3    H269546   1.283   3.950   1.321  2.5168  0.0657  1.0622
16019TIP3   OH269547   3.770   3.047  12.031  0.7098 -0.4639  0.2439
16019TIP3    H169548   3.740   3.128  12.073 -1.0076 -0.3759 -1.0414
16019TIP3    H269549   3.777   2.984  12.103 -3.8432 -0.8092  0.6446
16020TIP3   OH269550   0.235   6.456  14.373  0.0474  0.2272 -0.8001
16020TIP3    H169551   0.295   6.529  14.359 -0.6253  0.8118 -0.6668
16020TIP3    H269552   0.149   6.496  14.381  0.0818 -0.0722  3.4355
16021TIP3   OH269553   3.878   0.153  16.017  0.7601 -0.4821  0.3677
16021TIP3    H169554   3.884   0.058  16.019  1.8129 -0.4395 -0.0091
16021TIP3    H269555   3.915   0.181  16.101 -0.0495 -0.4144  0.7124
16022TIP3   OH269556   4.937   3.293   2.327 -0.0887 -0.3472 -0.3497
16022TIP3    H169557   4.987   3.362   2.371  1.4675 -0.5443 -1.6953
16022TIP3    H269558   4.858   3.282   2.380  0.1142  1.7442  0.4612
16023TIP3   OH269559   0.514   4.370  11.435  0.1150  0.1643 -0.0395
16023TIP3    H169560   0.559   4.455  11.441  1.4319 -0.5179  0.1054
16023TIP3    H269561   0.573   4.309  11.479 -1.4012 -0.6246  0.9754
16024TIP3   OH269562   4.495   5.585  14.254  0.0480  0.1713 -0.3315
16024TIP3    H169563   4.502   5.494  14.224  0.6805 -0.2659  1.0288
16024TIP3    H269564   4.494   5.578  14.350 -2.6552  1.4098 -0.1742
16025TIP3   OH269565   3.199   2.433   5.215  0.0164  0.3878 -0.0696
16025TIP3    H169566   3.198   2.364   5.281 -0.9089  0.6946  0.2515
16025TIP3    H269567   3.292   2.451   5.201  0.2333  0.1366  0.9545
16026TIP3   OH269568   2.649   4.432   2.866  0.2949 -0.4964 -0.3445
16026TIP3    H169569   2.578   4.490   2.839  0.3058  1.3275  3.0923
16026TIP3    H269570   2.612   4.381   2.938  2.0525 -0.4808  0.6119
16027TIP3   OH269571   5.233   0.980  13.103 -0.7162  0.4681  0.5555
16027TIP3    H169572   5.282   0.985  13.021 -1.5290 -0.6823 -0.0261
16027TIP3    H269573   5.247   0.890  13.134 -1.7036  0.4083  0.8503
16028TIP3   OH269574   6.327   4.627   3.296  0.0756  0.3729  0.4360
16028TIP3    H169575   6.249   4.591   3.253  1.3001 -0.3150 -1.3390
16028TIP3    H269576   6.312   4.721   3.299 -0.3232  0.3715 -0.9832
16029TIP3   OH269577   5.666   2.011   3.644  0.1607  0.3700  0.1156
16029TIP3    H169578   5.685   2.023   3.737 -0.1233  2.4712 -0.0602
16029TIP3    H269579   5.640   1.919   3.637 -1.9045  0.6801  2.4814
16030TIP3   OH269580   4.706   5.931  16.478  0.3698  0.0611  0.0718
16030TIP3    H169581   4.703   5.939  16.573  1.3995  0.6841  0.0686
16030TIP3    H269582   4.669   5.845  16.459 -0.4420  0.2033  0.9892
16031TIP3   OH269583   2.379   1.377  13.360  0.1979 -0.0979 -0.2885
16031TIP3    H169584   2.374   1.301  13.302 -1.6257  0.6369 -1.1506
16031TIP3    H269585   2.329   1.351  13.437  0.3001 -0.0829 -0.2180
16032TIP3   OH269586   4.079   5.683  15.883  0.1063  0.9493 -0.2817
16032TIP3    H169587   4.157   5.725  15.921  1.8394 -0.8204 -1.6541
16032TIP3    H269588   4.074   5.720  15.794  1.0819 -0.8719 -1.1634
16033TIP3   OH269589   2.448   2.385  13.021 -0.1921 -0.1232 -0.2832
16033TIP3    H169590   2.515   2.451  13.002 -0.5428  0.7673  1.4277
16033TIP3    H269591   2.384   2.431  13.075 -0.9553 -1.6176  0.1244
16034TIP3   OH269592   3.941   2.667   2.192  0.3901 -0.3549  0.1908
16034TIP3    H169593   3.882   2.605   2.151  0.8219  0.4639 -1.8179
16034TIP3    H269594   3.899   2.752   2.180  0.8367 -0.0164  0.9270
16035TIP3   OH269595   6.761   2.979  17.239  0.2279  0.6794 -0.1384
16035TIP3    H169596   6.674   2.978  17.281  0.4209  2.1781  0.3503
16035TIP3    H269597   6.799   2.894  17.262  0.3879  1.4757  2.9752
16036TIP3   OH269598   5.262   1.722   4.875 -0.1111  0.3144  0.1180
16036TIP3    H169599   5.334   1.775   4.910  0.7338 -1.1068  0.6457
16036TIP3    H269600   5.304   1.668   4.807 -0.4345 -1.2148  1.0837
16037TIP3   OH269601   4.916   3.378  14.558 -0.5201 -0.5167 -0.3537
16037TIP3    H169602   4.974   3.445  14.521 -0.8528  0.1228  0.2435
16037TIP3    H269603   4.940   3.297  14.513  0.4270 -0.1456 -0.5484
16038TIP3   OH269604   4.750   3.143  15.141 -0.1512 -0.5925 -0.4693
16038TIP3    H169605   4.744   3.048  15.129  0.1494 -0.4286 -2.1757
16038TIP3    H269606   4.686   3.179  15.081  1.5146  0.3478 -1.7745
16039TIP3   OH269607   6.649   5.554   3.526  0.0160 -0.2004 -0.2056
16039TIP3    H169608   6.692   5.639   3.533 -0.6043  0.0759  0.3124
16039TIP3    H269609   6.593   5.548   3.603  1.0136 -1.6407  0.4572
16040TIP3   OH269610   1.014   5.706   4.206 -0.2595  0.6701  0.4077
16040TIP3    H169611   1.034   5.615   4.183 -0.5665  0.6667  0.1333
16040TIP3    H269612   1.081   5.731   4.269  1.3210  1.0433 -1.3386
16041TIP3   OH269613   4.776   3.556  16.325  0.5620 -0.2345 -0.2631
16041TIP3    H169614   4.848   3.545  16.387  0.1928 -1.3369 -0.0008
16041TIP3    H269615   4.755   3.467  16.296  2.5127  0.3428 -4.0896
16042TIP3   OH269616   4.769   6.114  14.911  0.2762 -0.3517 -0.0113
16042TIP3    H169617   4.846   6.136  14.860  0.6976 -1.1083  0.2783
16042TIP3    H269618   4.743   6.027  14.879  1.3658 -1.4806  1.9588
16043TIP3   OH269619   0.895   3.726  12.042 -0.4091 -0.0984 -0.3436
16043TIP3    H169620   0.847   3.745  12.123 -1.0563  1.3052 -1.0214
16043TIP3    H269621   0.943   3.646  12.061 -0.3922  0.3031  1.5023
16044TIP3   OH269622   1.879   3.664   2.138 -0.3038 -0.3371 -0.3256
16044TIP3    H169623   1.911   3.629   2.221 -1.0541 -0.6965 -0.1741
16044TIP3    H269624   1.862   3.587   2.085 -2.3802 -0.2889  0.1603
16045TIP3   OH269625   0.000   6.129  13.154  0.2976  0.4322 -0.5603
16045TIP3    H169626  -0.026   6.214  13.191 -0.5718  0.0202 -0.2202
16045TIP3    H269627   0.008   6.146  13.060  1.8252  1.3119 -0.3125
16046TIP3   OH269628   5.650   0.194  12.589  0.1803 -0.4506 -0.9100
16046TIP3    H169629   5.577   0.252  12.610 -0.4940 -0.4608 -3.0003
16046TIP3    H269630   5.705   0.196  12.667 -1.0088  1.1601 -0.0463
16047TIP3   OH269631   5.224   1.316  13.031 -0.1449 -0.3206  0.1205
16047TIP3    H169632   5.196   1.246  13.090  1.2009 -0.4901  0.6034
16047TIP3    H269633   5.268   1.271  12.959 -1.2749 -0.0789 -0.7450
16048TIP3   OH269634   1.584   6.780   0.937  0.6175 -0.4342  0.2081
16048TIP3    H169635   1.677   6.767   0.953 -0.0159 -3.2821  2.3044
16048TIP3    H269636   1.547   6.799   1.023 -0.6866  1.3844 -0.6947
16049TIP3   OH269637   3.310   1.754   3.141  0.4421  0.0633 -0.3539
16049TIP3    H169638   3.314   1.725   3.232 -0.2846 -0.6810 -0.5392
16049TIP3    H269639   3.259   1.685   3.097  0.1389  0.7914 -1.1634
16050TIP3   OH269640   0.757   1.085  13.530 -0.2462  0.1756 -0.0550
16050TIP3    H169641   0.698   1.009  13.534  0.1911 -0.1731 -0.0525
16050TIP3    H269642   0.729   1.141  13.602 -1.9906  1.0825 -1.3692
16051TIP3   OH269643   0.799   5.853  13.648 -0.1560 -0.0647  0.3661
16051TIP3    H169644   0.795   5.784  13.582 -2.2016  0.5393 -0.2191
16051TIP3    H269645   0.723   5.837  13.704  0.4605  0.5685  1.4144
16052TIP3   OH269646   1.489   4.135  16.973 -0.2404  0.2479 -0.6040
16052TIP3    H169647   1.429   4.112  16.903 -1.5663  0.6937  0.3521
16052TIP3    H269648   1.525   4.220  16.946 -1.4277  0.8552 -0.3448
16053TIP3   OH269649   0.888   6.776  16.632 -0.6422  0.5929 -0.1118
16053TIP3    H169650   0.907   6.800  16.723 -0.3620 -2.1725  0.6564
16053TIP3    H269651   0.794   6.788  16.623 -1.1109 -1.4015  1.3855
16054TIP3   OH269652   5.087   4.898   1.453 -0.2508  0.1801 -0.2997
16054TIP3    H169653   5.057   4.809   1.436 -2.3596  0.7284  0.1782
16054TIP3    H269654   5.015   4.938   1.502  0.3806  2.3088 -0.9966
16055TIP3   OH269655   3.041   3.108  15.866  0.0036 -1.1935 -0.2568
16055TIP3    H169656   3.043   3.152  15.781 -1.9202  0.9061  0.6596
16055TIP3    H269657   2.987   3.030  15.851 -2.2351  0.3110 -0.5987
16056TIP3   OH269658   2.945   0.655  11.201 -0.4551 -0.6289 -0.0231
16056TIP3    H169659   3.036   0.638  11.228 -0.5247  0.7235  1.1398
16056TIP3    H269660   2.892   0.614  11.270 -0.7904 -2.1768 -1.1420
16057TIP3   OH269661   0.623   5.032  13.166 -0.3401  0.6182 -0.1638
16057TIP3    H169662   0.681   5.015  13.092 -1.7274 -0.7977 -0.9942
16057TIP3    H269663   0.640   5.123  13.189 -0.0856  1.2151 -2.4535
16058TIP3   OH269664   3.120   4.687   2.888 -0.3505  0.4964 -0.1599
16058TIP3    H169665   3.211   4.695   2.860 -0.7520  0.5651 -1.5308
16058TIP3    H269666   3.084   4.776   2.879 -1.0866  0.0884 -1.7163
16059TIP3   OH269667   0.502   6.504   1.864 -0.2203 -0.0308  0.2543
16059TIP3    H169668   0.421   6.548   1.838 -0.1367 -0.4675 -0.7962
16059TIP3    H269669   0.472   6.423   1.906 -0.3279 -0.5919 -0.8801
16060TIP3   OH269670   0.580   5.580  11.213 -0.8254  0.4852  0.3274
16060TIP3    H169671   0.658   5.586  11.158 -0.5453  0.4692  0.7195
16060TIP3    H269672   0.567   5.486  11.226 -0.8204  0.4927  0.3865
16061TIP3   OH269673   5.068   0.695   4.969  0.3471 -0.3194 -0.4192
16061TIP3    H169674   5.029   0.729   5.049  0.5402  2.9696 -1.5747
16061TIP3    H269675   5.160   0.682   4.992 -0.0354 -1.6087  0.4746
16062TIP3   OH269676   6.565   4.139   4.373 -0.1790 -0.4966 -0.0616
16062TIP3    H169677   6.578   4.057   4.326 -0.0657  0.0295 -0.9764
16062TIP3    H269678   6.470   4.151   4.375 -0.1792 -0.4630 -0.2636
16063TIP3   OH269679   6.479   5.880   4.210  0.3037  0.8274 -0.2572
16063TIP3    H169680   6.430   5.958   4.235  1.9291  1.8879 -0.1922
16063TIP3    H269681   6.529   5.857   4.288  0.5512  0.2933 -0.5659
16064TIP3   OH269682   5.272   5.928   1.731 -0.0669 -1.1598 -0.2181
16064TIP3    H169683   5.344   5.879   1.772 -0.9289 -2.1385  0.1593
16064TIP3    H269684   5.199   5.867   1.730 -1.7325  0.6548  1.8455
16065TIP3   OH269685   1.786   2.299  16.876  0.4744  0.2571 -0.3702
16065TIP3    H169686   1.695   2.289  16.845 -0.6349  2.5364  1.7691
16065TIP3    H269687   1.836   2.317  16.796 -1.4017  1.2638 -1.4049
16066TIP3   OH269688   4.317   1.130  15.957  0.3611  0.0284  0.2414
16066TIP3    H169689   4.392   1.085  15.918  0.7888 -0.2019  1.2951
16066TIP3    H269690   4.242   1.074  15.937  0.6089 -0.2104 -0.0249
16067TIP3   OH269691   1.578   6.254  17.129 -0.3945  0.7165  0.4261
16067TIP3    H169692   1.558   6.194  17.200  0.4002 -0.2861 -0.1860
16067TIP3    H269693   1.609   6.199  17.058  0.2702  1.8361 -0.1864
16068TIP3   OH269694   3.183   0.208  10.598 -0.0240  0.2957  0.2522
16068TIP3    H169695   3.273   0.175  10.598 -0.2175 -0.4308 -2.2299
16068TIP3    H269696   3.172   0.249  10.512 -1.9541  0.7511  0.6592
16069TIP3   OH269697   6.617   5.776  13.283  0.6204  0.4859  0.1241
16069TIP3    H169698   6.657   5.798  13.199 -1.7220  1.2339 -0.8731
16069TIP3    H269699   6.662   5.697  13.311  3.3242  1.7032 -0.4641
16070TIP3   OH269700   2.350   3.472  16.632 -0.5963 -0.3559  0.1008
16070TIP3    H169701   2.423   3.414  16.654 -0.5797 -0.2180  0.4141
16070TIP3    H269702   2.390   3.558  16.619 -0.6511 -0.3658 -0.1318
16071TIP3   OH269703   3.217   1.581   6.732  0.0895 -0.1994  0.4499
16071TIP3    H169704   3.123   1.593   6.721  0.2718 -0.1830 -1.4040
16071TIP3    H269705   3.242   1.519   6.663  1.2874 -1.0185  1.5646
16072TIP3   OH269706   0.932   2.962  16.664  0.1670 -0.0938 -0.0454
16072TIP3    H169707   0.999   2.986  16.728  0.0461 -1.7875  0.7943
16072TIP3    H269708   0.872   2.905  16.713  1.0915 -3.0594 -2.0351
16073TIP3   OH269709   0.934   1.575  13.397 -0.0760 -0.1441  0.4761
16073TIP3    H169710   0.851   1.620  13.383  0.6333  1.4355  1.1362
16073TIP3    H269711   0.926   1.537  13.484 -0.6410 -1.2751 -0.0460
16074TIP3   OH269712   3.748   3.071   0.703 -0.0224  0.2961 -0.5519
16074TIP3    H169713   3.675   3.044   0.759 -0.3047  1.5198 -0.2994
16074TIP3    H269714   3.754   3.003   0.637 -1.4891  0.2322 -0.6508
16075TIP3   OH269715   0.256   0.123   3.956 -0.0278 -0.3422  0.3635
16075TIP3    H169716   0.322   0.092   3.894  0.9835  0.9763  0.7376
16075TIP3    H269717   0.178   0.070   3.937  1.7631 -3.6073  1.4320
16076TIP3   OH269718   3.847   2.790  11.928  0.7277 -0.4474  0.3274
16076TIP3    H169719   3.936   2.786  11.963  0.6015 -0.1589  0.6910
16076TIP3    H269720   3.811   2.871  11.964  0.5068 -0.2728 -0.2695
16077TIP3   OH269721   6.139   3.445   0.844 -0.6707 -0.1153  0.8089
16077TIP3    H169722   6.050   3.472   0.822 -0.5239 -0.9316 -0.9699
16077TIP3    H269723   6.148   3.359   0.803  1.3101  0.4734 -0.1059
16078TIP3   OH269724   0.003   0.403   3.928 -0.2631  0.3821 -0.0122
16078TIP3    H169725  -0.031   0.379   4.013  0.1607 -0.0569  0.0381
16078TIP3    H269726  -0.047   0.350   3.866  0.7827 -0.7799  0.1100
16079TIP3   OH269727   6.574   6.251   0.163  0.0109 -0.3414 -0.4358
16079TIP3    H169728   6.557   6.227   0.072  1.3798 -2.6789 -0.1762
16079TIP3    H269729   6.669   6.261   0.168 -0.1571  1.0808  0.4775
16080TIP3   OH269730   1.621   1.076  10.833  0.2663 -0.5273 -0.3955
16080TIP3    H169731   1.559   1.105  10.766 -1.2635  1.2511  1.6365
16080TIP3    H269732   1.601   0.983  10.845  1.4786 -1.2616 -3.2126
16081TIP3   OH269733   4.159   0.217  15.025 -0.0954  0.3093 -0.8396
16081TIP3    H169734   4.171   0.159  14.950 -2.5257 -0.7782 -0.5143
16081TIP3    H269735   4.200   0.299  15.000  0.0450 -0.3580 -2.9311
16082TIP3   OH269736   4.914   6.009   0.290 -1.3158  0.3687  0.3986
16082TIP3    H169737   4.977   5.982   0.357  0.2963  0.0638 -1.1580
16082TIP3    H269738   4.877   5.927   0.258 -0.7044  0.3598 -0.3257
16083TIP3   OH269739   0.332   2.464  12.842  0.0894  0.1000  0.5652
16083TIP3    H169740   0.237   2.453  12.834  0.1237  1.0684 -2.0476
16083TIP3    H269741   0.344   2.502  12.929 -1.7078 -1.6663  1.6942
16084TIP3   OH269742   0.822   2.722  16.248  0.3636 -0.1356 -0.4224
16084TIP3    H169743   0.892   2.777  16.283 -0.9033  1.5817 -0.4356
16084TIP3    H269744   0.774   2.691  16.326  0.3079 -0.1448 -0.4588
16085TIP3   OH269745   2.300   0.867  14.606  0.4361  0.0389  0.4399
16085TIP3    H169746   2.295   0.830  14.518 -1.0821  0.9290  0.1173
16085TIP3    H269747   2.332   0.795  14.660 -0.6621 -1.1741 -0.4732
16086TIP3   OH269748   4.491   5.067   3.348  0.5053 -0.0477 -0.4581
16086TIP3    H169749   4.408   5.104   3.377  0.8814 -0.8397  1.8526
16086TIP3    H269750   4.487   5.070   3.253 -1.5605  1.2305 -0.3882
16087TIP3   OH269751   0.008   4.451  13.091  0.2064  0.8765  0.0736
16087TIP3    H169752  -0.070   4.397  13.079  0.5559  0.5479 -0.8019
16087TIP3    H269753   0.074   4.411  13.034  1.0323  1.1140  0.8446
16088TIP3   OH269754   1.884   2.771   4.133  0.3944 -0.1053  0.3001
16088TIP3    H169755   1.837   2.779   4.216 -1.1536  2.1876 -0.6906
16088TIP3    H269756   1.961   2.826   4.144 -0.6335  1.5113 -0.2512
16089TIP3   OH269757   3.663   6.039  13.649 -0.2328 -0.1219  0.5528
16089TIP3    H169758   3.583   6.013  13.695  0.3920 -1.5238  0.9098
16089TIP3    H269759   3.633   6.070  13.564 -1.2957  1.1792  1.3665
16090TIP3   OH269760   1.314   3.825   5.188  0.3140  0.2117  0.1904
16090TIP3    H169761   1.403   3.845   5.218 -0.1792  1.3581  0.9989
16090TIP3    H269762   1.267   3.804   5.269 -0.8088  2.3709  0.1643
16091TIP3   OH269763   1.546   4.643   0.048 -0.1892 -0.3009 -0.3711
16091TIP3    H169764   1.515   4.643  -0.042  2.4069 -0.5476 -1.3510
16091TIP3    H269765   1.562   4.735   0.068  2.6995 -0.4147 -1.5836
16092TIP3   OH269766   0.165   3.895  16.827 -0.2356  0.2800 -0.6537
16092TIP3    H169767   0.081   3.906  16.782 -0.1552  3.1989 -0.3234
16092TIP3    H269768   0.226   3.949  16.776  0.3376  1.9473  1.6306
16093TIP3   OH269769   2.926   2.413  15.231  0.1510  0.7235  0.1903
16093TIP3    H169770   2.934   2.334  15.284  2.1167  0.4032 -0.4947
16093TIP3    H269771   2.877   2.474  15.285  0.5468 -0.2091  1.6476
16094TIP3   OH269772   2.235   6.809   4.961  0.1194  0.1574  0.3178
16094TIP3    H169773   2.264   6.799   4.870 -0.9494 -1.9296  0.1633
16094TIP3    H269774   2.308   6.855   5.004  1.3396 -0.2517 -1.2211
16095TIP3   OH269775   0.862   4.384   5.559  0.2288 -0.0501  0.0722
16095TIP3    H169776   0.873   4.466   5.607 -0.1595 -0.3333  0.6638
16095TIP3    H269777   0.951   4.352   5.546  0.6084  1.7270 -2.4697
16096TIP3   OH269778   1.881   5.782  13.635 -0.3526  0.3154 -0.1463
16096TIP3    H169779   1.975   5.789  13.650  0.3264 -0.5507 -3.3329
16096TIP3    H269780   1.856   5.698  13.673  0.3819  0.0885 -0.1594
16097TIP3   OH269781   2.632   5.106   2.849  0.1587 -0.1245  0.2165
16097TIP3    H169782   2.679   5.091   2.767  0.4238  1.1877  0.0996
16097TIP3    H269783   2.619   5.019   2.886 -1.4980 -0.9421 -2.0550
16098TIP3   OH269784   6.448   3.027  15.119  0.3650  0.1063  0.0985
16098TIP3    H169785   6.360   3.016  15.156  0.0775  2.2263  0.1600
16098TIP3    H269786   6.492   2.944  15.139 -1.4078 -0.7892  0.6018
16099TIP3   OH269787   0.489   1.189  12.282  0.6458  0.5568 -0.2818
16099TIP3    H169788   0.534   1.261  12.327  1.4298 -0.5709  0.7918
16099TIP3    H269789   0.556   1.151  12.226 -0.2177  1.6894 -2.1729
16100TIP3   OH269790   0.240   5.368  10.998 -0.5190 -0.5868  0.2855
16100TIP3    H169791   0.156   5.411  11.008  0.2332  1.2092 -0.6689
16100TIP3    H269792   0.248   5.351  10.904  0.3050 -0.4633  0.3207
16101TIP3   OH269793   1.463   0.740  12.836  0.3689 -0.6051 -0.6820
16101TIP3    H169794   1.374   0.777  12.836  0.2254 -0.9446 -1.2821
16101TIP3    H269795   1.520   0.817  12.842  0.0655 -0.2842 -1.6992
16102TIP3   OH269796   1.999   1.092   2.978 -0.8367 -0.5022  0.3112
16102TIP3    H169797   1.945   1.052   3.047 -1.1993  0.4654  0.6075
16102TIP3    H269798   1.938   1.145   2.928 -0.0699  1.1737  1.0780
16103TIP3   OH269799   6.773   1.872   1.394  0.0493 -0.2422 -0.4091
16103TIP3    H169800   6.678   1.885   1.394 -0.1976 -1.2234  2.5186
16103TIP3    H269801   6.808   1.947   1.443  0.4852 -1.1610  0.7301
16104TIP3   OH269802   5.276   4.932   3.779  0.6017 -0.3409  0.1508
16104TIP3    H169803   5.188   4.958   3.752  1.4431  0.9704 -1.4761
16104TIP3    H269804   5.308   4.878   3.706  1.0413 -1.0718  0.8729
16105TIP3   OH269805   0.948   2.655  14.739  0.6051  0.1197 -0.6291
16105TIP3    H169806   0.976   2.743  14.763  0.7469 -0.3205  0.9468
16105TIP3    H269807   0.885   2.668  14.668 -1.0447  1.6627  1.0059
16106TIP3   OH269808   5.360   6.174   0.650 -0.2744 -0.5741  0.3069
16106TIP3    H169809   5.299   6.187   0.578 -0.5341 -2.8712  0.0316
16106TIP3    H269810   5.346   6.249   0.708 -1.9227 -0.0289 -0.7377
16107TIP3   OH269811   0.604   4.779   4.127 -0.1497  0.0661 -0.7987
16107TIP3    H169812   0.530   4.822   4.086 -1.0191 -0.7060 -0.0942
16107TIP3    H269813   0.610   4.694   4.083 -2.3354 -1.6243  1.8017
16108TIP3   OH269814   2.115   4.832  14.997  0.3718  0.2469 -0.0544
16108TIP3    H169815   2.061   4.765  15.040  0.2013 -0.0484 -0.7114
16108TIP3    H269816   2.200   4.826  15.041  0.3450 -0.3854 -0.0710
16109TIP3   OH269817   2.044   2.817  11.281  0.2107  0.2064  0.3276
16109TIP3    H169818   1.981   2.807  11.210 -0.0121  1.4593  0.3425
16109TIP3    H269819   2.110   2.750  11.263 -1.4392 -1.6208  0.7049
16110TIP3   OH269820   4.516   0.032   0.111  0.0692 -0.2150 -0.0056
16110TIP3    H169821   4.430   0.028   0.153 -0.2934 -0.8619 -0.7697
16110TIP3    H269822   4.548  -0.059   0.113 -0.0255 -0.2930 -1.2257
16111TIP3   OH269823   0.139   6.812  10.918  0.4239  0.1134  0.6199
16111TIP3    H169824   0.194   6.870  10.970  1.4400 -1.0070  0.8366
16111TIP3    H269825   0.153   6.725  10.956 -1.4762 -0.2246  0.6542
16112TIP3   OH269826   0.592   4.744   6.695  0.2468  0.0228  0.7357
16112TIP3    H169827   0.503   4.721   6.721 -0.1790  0.7326 -0.0341
16112TIP3    H269828   0.592   4.840   6.694  0.3930  0.0397 -1.2987
16113TIP3   OH269829   1.217   2.732   5.809 -0.4645  0.0156  0.3165
16113TIP3    H169830   1.152   2.758   5.743 -0.0219 -1.3334 -0.7069
16113TIP3    H269831   1.183   2.651   5.846  0.0318 -0.0324  0.6743
16114TIP3   OH269832   3.579   3.205  13.322 -0.0265  0.2259 -0.7463
16114TIP3    H169833   3.593   3.177  13.413 -2.3177  1.1859 -0.0059
16114TIP3    H269834   3.655   3.261  13.302 -0.4288  1.6368  1.3341
16115TIP3   OH269835   6.040   4.296  16.749 -0.1361  0.8745 -0.0468
16115TIP3    H169836   5.950   4.264  16.763  0.1255  0.2229  0.1684
16115TIP3    H269837   6.084   4.223  16.705  0.9650  0.2194  2.0576
16116TIP3   OH269838   2.146   2.495  13.101 -0.2767 -0.2547  0.3842
16116TIP3    H169839   2.135   2.586  13.073 -0.1847 -0.9320 -2.1254
16116TIP3    H269840   2.215   2.497  13.166  1.3625  1.2570 -1.2955
16117TIP3   OH269841   2.533   3.289  17.052 -0.4923 -0.4387  0.3645
16117TIP3    H169842   2.446   3.258  17.076 -0.6942 -1.2650 -1.2882
16117TIP3    H269843   2.559   3.235  16.977  0.9618  0.5477  0.0943
16118TIP3   OH269844   2.854   6.486  13.674 -0.4000  0.1335  0.1138
16118TIP3    H169845   2.915   6.515  13.606 -0.3396  0.3753  0.2729
16118TIP3    H269846   2.907   6.431  13.732 -0.5639 -0.4877 -0.3109
16119TIP3   OH269847   4.104   3.987   2.200 -0.0251  0.3540  0.0065
16119TIP3    H169848   4.139   3.976   2.288  0.8199 -1.5809 -0.5151
16119TIP3    H269849   4.044   3.913   2.188 -0.4116  0.8015 -0.9059
16120TIP3   OH269850   1.328   6.478   3.442  0.3461 -0.3275 -0.9818
16120TIP3    H169851   1.285   6.395   3.463  2.4586 -0.9228  1.6212
16120TIP3    H269852   1.316   6.532   3.519  2.6950  0.0775 -0.8134
16121TIP3   OH269853   0.250   2.136   1.943 -0.0986 -0.3251 -0.0991
16121TIP3    H169854   0.155   2.122   1.950 -0.1991 -0.4548 -1.4858
16121TIP3    H269855   0.287   2.049   1.952 -0.2246 -0.4952 -1.1711
16122TIP3   OH269856   1.971   2.762   6.145 -0.5407 -0.2958 -0.4639
16122TIP3    H169857   1.976   2.707   6.067 -0.8226 -0.7301 -0.1771
16122TIP3    H269858   2.033   2.833   6.128  0.1673 -0.9401 -0.6453
16123TIP3   OH269859   1.684   2.768  12.658 -0.4902 -0.6042 -0.2736
16123TIP3    H169860   1.671   2.759  12.564  0.6740 -0.5071 -0.4560
16123TIP3    H269861   1.668   2.681  12.693 -0.9915 -0.6270 -0.5429
16124TIP3   OH269862   2.073   4.028  16.727  0.0259 -0.0994 -0.1486
16124TIP3    H169863   2.053   3.978  16.807  0.4562  0.6802  0.4611
16124TIP3    H269864   2.012   4.102  16.731  0.5312  0.3186 -0.1755
16125TIP3   OH269865   0.142   2.828   1.439  0.1355  0.0842  0.5658
16125TIP3    H169866   0.215   2.776   1.404  0.0201 -0.2114  0.7580
16125TIP3    H269867   0.101   2.866   1.362  1.0188  0.9633  0.5154
16126TIP3   OH269868   2.194   0.122  13.306  0.1807 -0.1175  0.1839
16126TIP3    H169869   2.129   0.055  13.286  0.6172 -0.3179 -0.6043
16126TIP3    H269870   2.180   0.142  13.399 -1.8865  0.8043 -0.2621
16127TIP3   OH269871   4.730   2.115   5.556 -0.5022 -0.1815  0.3254
16127TIP3    H169872   4.716   2.161   5.638 -0.6258  0.0839  0.1588
16127TIP3    H269873   4.825   2.104   5.550 -0.3397  1.2328 -0.2509
16128TIP3   OH269874   5.505   2.098  12.565  0.1743 -0.0424  0.0064
16128TIP3    H169875   5.532   2.047  12.488  1.6239  0.2747  0.2791
16128TIP3    H269876   5.435   2.155  12.532 -1.9071 -2.5049 -0.2020
16129TIP3   OH269877   6.563   6.221  13.018 -0.2236  0.1480 -0.0073
16129TIP3    H169878   6.561   6.304  12.970  0.3224 -0.5948 -1.3535
16129TIP3    H269879   6.542   6.246  13.108 -0.4299  1.6981 -0.4472
16130TIP3   OH269880   5.360   5.970  12.498 -0.1065 -0.0916  0.8369
16130TIP3    H169881   5.285   5.912  12.490 -0.9833  0.6662  2.9748
16130TIP3    H269882   5.435   5.912  12.509 -0.3015 -0.8555 -1.4303
16131TIP3   OH269883   5.930   2.469  15.011 -0.0311  0.0495  0.1730
16131TIP3    H169884   5.965   2.387  14.975  2.0542  0.1966  1.6848
16131TIP3    H269885   5.837   2.468  14.987  0.3050 -1.9310 -1.3063
16132TIP3   OH269886   6.188   3.553   2.570 -0.0637 -0.6009  0.3801
16132TIP3    H169887   6.278   3.570   2.600 -0.2421 -0.3937  0.8024
16132TIP3    H269888   6.178   3.606   2.492 -0.3377  0.6109  1.2107
16133TIP3   OH269889   1.440   0.004  14.384 -0.2241  0.8447 -0.0600
16133TIP3    H169890   1.365   0.021  14.440 -0.8083  0.8981 -0.8428
16133TIP3    H269891   1.502  -0.042  14.440 -2.0007 -1.8628 -0.1215
16134TIP3   OH269892   4.503   6.718  11.451 -0.3243 -0.0702 -0.7059
16134TIP3    H169893   4.462   6.661  11.517  1.5993 -0.4020  0.2973
16134TIP3    H269894   4.469   6.805  11.470 -0.1394 -0.2389  0.4823
16135TIP3   OH269895   4.178   2.031   1.163 -0.3349 -0.0865  0.3193
16135TIP3    H169896   4.145   2.106   1.212 -0.3400  0.0215  0.1528
16135TIP3    H269897   4.101   1.975   1.150 -1.0539  1.3107 -2.1891
16136TIP3   OH269898   5.875   3.505  14.921 -0.7897  0.5176 -0.6704
16136TIP3    H169899   5.961   3.536  14.894  0.2187 -1.6855 -0.1667
16136TIP3    H269900   5.837   3.579  14.968 -0.0208  2.2080 -2.5510
16137TIP3   OH269901   5.961   1.035   2.476  0.6226 -0.2997  0.5942
16137TIP3    H169902   5.918   1.110   2.434 -2.5926 -0.9695  2.3235
16137TIP3    H269903   5.990   1.069   2.561  2.7405 -0.1461 -0.1259
16138TIP3   OH269904   2.567   1.578   4.904  0.1720  0.3963  0.7041
16138TIP3    H169905   2.474   1.573   4.927 -0.5882  0.9297 -1.9183
16138TIP3    H269906   2.600   1.490   4.920 -1.5074 -0.6031 -0.9749
16139TIP3   OH269907   6.261   5.006  16.344  0.0144  0.0495 -0.8453
16139TIP3    H169908   6.313   5.053  16.279  0.2015 -0.3601 -0.9944
16139TIP3    H269909   6.171   5.029  16.323  0.1808  2.5433  0.7713
16140TIP3   OH269910   3.451   5.836  15.575 -0.2100 -0.4695 -0.8989
16140TIP3    H169911   3.371   5.888  15.576 -0.2661 -0.5165 -1.7731
16140TIP3    H269912   3.423   5.750  15.546 -0.6736 -2.0444  3.4952
16141TIP3   OH269913   3.219   6.197   0.490 -0.1123 -0.4614 -0.2050
16141TIP3    H169914   3.182   6.165   0.408  0.6370  1.4531 -1.3668
16141TIP3    H269915   3.222   6.292   0.479  2.1732 -0.3193  1.0932
16142TIP3   OH269916   1.920   5.892  12.569 -0.1088  0.0019  0.0676
16142TIP3    H169917   1.875   5.929  12.645  0.8159  1.2263  0.0367
16142TIP3    H269918   1.998   5.946  12.558 -0.3514  0.0107 -1.9266
16143TIP3   OH269919   5.537   2.218   2.495  0.0170  0.0011 -0.2983
16143TIP3    H169920   5.477   2.144   2.484 -2.0455  1.7462 -1.6822
16143TIP3    H269921   5.483   2.288   2.531  2.0960  0.6803  1.7815
16144TIP3   OH269922   3.933   5.547   2.378 -0.5275 -0.0979  0.7291
16144TIP3    H169923   3.849   5.500   2.378 -0.4415 -0.2558  1.0036
16144TIP3    H269924   3.914   5.630   2.421 -0.8540  0.4439 -0.4451
16145TIP3   OH269925   6.494   1.777  14.437 -0.4250 -0.4299 -0.1763
16145TIP3    H169926   6.483   1.872  14.438  0.9025 -0.2087 -2.0180
16145TIP3    H269927   6.425   1.746  14.378 -0.7906 -0.6212  0.3424
16146TIP3   OH269928   2.040   5.956   2.140 -0.0728 -0.7202  0.2824
16146TIP3    H169929   1.999   5.899   2.075 -1.9207  1.3200 -0.4397
16146TIP3    H269930   1.967   5.990   2.192  1.3016 -2.0669  3.3706
16147TIP3   OH269931   6.325   6.541  13.666  0.2583 -0.5112 -0.3296
16147TIP3    H169932   6.264   6.480  13.624 -0.0413  0.0879 -0.7878
16147TIP3    H269933   6.328   6.514  13.757 -1.3555 -0.0518 -0.1066
16148TIP3   OH269934   4.046   3.314   5.685  0.3427  0.0906  0.0205
16148TIP3    H169935   4.018   3.251   5.752 -0.1587  1.6340  1.3384
16148TIP3    H269936   4.107   3.265   5.630  0.1478 -1.4697  1.1160
16149TIP3   OH269937   0.411   5.690   0.313  0.4566  0.7965  0.4943
16149TIP3    H169938   0.439   5.771   0.355  0.7135  0.5354  0.8324
16149TIP3    H269939   0.316   5.686   0.327  0.5884  0.5302  1.3752
16150TIP3   OH269940   4.066   1.086   1.036 -0.6008  0.1527 -0.0700
16150TIP3    H169941   4.022   1.025   0.977 -1.9813  0.3099  0.7776
16150TIP3    H269942   4.084   1.163   0.981 -2.3941  0.5267 -0.1812
16151TIP3   OH269943   6.477   6.723   6.434  0.1463  0.0056 -0.0554
16151TIP3    H169944   6.485   6.630   6.411 -0.6817  0.1257 -0.9061
16151TIP3    H269945   6.413   6.757   6.372  0.7794  1.2561 -0.0462
16152TIP3   OH269946   1.081   5.826  15.148  1.0123  0.4864  0.2717
16152TIP3    H169947   1.140   5.760  15.110  0.9496 -0.4716  1.7741
16152TIP3    H269948   1.013   5.775  15.192  0.2672  1.5751  0.4235
16153TIP3   OH269949   0.531   2.213  17.188 -0.1375  0.3402 -0.4551
16153TIP3    H169950   0.625   2.222  17.179 -0.2003  1.3371 -0.2741
16153TIP3    H269951   0.502   2.297  17.224 -1.2896  0.7411 -2.1437
16154TIP3   OH269952   4.679   0.326   3.470  0.2550  0.7548 -0.3005
16154TIP3    H169953   4.591   0.346   3.439 -0.0188  1.1169  0.6749
16154TIP3    H269954   4.692   0.384   3.545  0.7431 -0.3624  0.5070
16155TIP3   OH269955   2.124   0.652   5.151  0.2398  0.4254  0.3031
16155TIP3    H169956   2.199   0.621   5.101  0.3267  1.0336  0.0583
16155TIP3    H269957   2.048   0.634   5.095  0.4158  1.9562 -0.4727
16156TIP3   OH269958   0.256   4.813   0.155 -0.0923  0.5552 -0.0983
16156TIP3    H169959   0.336   4.828   0.204  0.1742 -1.8038  0.2828
16156TIP3    H269960   0.186   4.822   0.220 -0.0699  1.4283 -0.1810
16157TIP3   OH269961   3.935   3.568  11.241  0.7654 -0.3319 -0.5044
16157TIP3    H169962   3.945   3.661  11.220  0.4624 -0.3140 -0.5655
16157TIP3    H269963   4.009   3.526  11.197  1.3457 -0.0256  0.1618
16158TIP3   OH269964   4.800   4.632   5.817 -0.3839  0.7595  0.3662
16158TIP3    H169965   4.829   4.590   5.898  0.7413  1.3402  0.2784
16158TIP3    H269966   4.810   4.564   5.751 -0.2046  0.6399  0.5142
16159TIP3   OH269967   6.618   0.932  12.680 -0.1318  0.3344 -0.5677
16159TIP3    H169968   6.652   0.851  12.719  0.5947  0.0959 -1.6450
16159TIP3    H269969   6.613   0.994  12.754 -0.4582 -0.6098  0.2186
16160TIP3   OH269970   2.307   5.043   0.421 -0.0513 -0.4279  0.3234
16160TIP3    H169971   2.353   4.979   0.368  0.7474  0.7680 -0.4839
16160TIP3    H269972   2.224   5.001   0.444  0.4201 -1.7036 -0.2217
16161TIP3   OH269973   1.156   6.767  16.984 -0.6608 -0.7586  0.0442
16161TIP3    H169974   1.144   6.832  17.054  0.9812  0.6921 -0.9290
16161TIP3    H269975   1.077   6.776  16.930 -0.3479  0.6777 -0.2206
16162TIP3   OH269976   6.577   3.078   0.718  0.0525  0.2504 -0.5822
16162TIP3    H169977   6.606   3.046   0.632  0.6596  1.6368 -0.9107
16162TIP3    H269978   6.623   3.160   0.730 -0.7536  0.5430  0.6682
16163TIP3   OH269979   1.677   1.137   2.606  0.4564 -0.1803  0.1890
16163TIP3    H169980   1.692   1.191   2.528  0.6868  2.2318  1.8124
16163TIP3    H269981   1.753   1.079   2.609  1.7764  1.4464 -0.0431
16164TIP3   OH269982   1.572   4.842  11.341  0.1521  0.7286 -0.3217
16164TIP3    H169983   1.609   4.859  11.428 -0.1832 -1.7881  0.4013
16164TIP3    H269984   1.480   4.865  11.349 -0.0605 -0.2573  0.2880
16165TIP3   OH269985   0.441   0.304  12.484 -0.3880  0.0745 -0.0216
16165TIP3    H169986   0.369   0.347  12.438  0.3650  2.7113  1.0784
16165TIP3    H269987   0.519   0.351  12.455  0.6071 -1.0215  0.7602
16166TIP3   OH269988   0.070   5.514  16.964 -0.2221 -0.0654 -0.0415
16166TIP3    H169989   0.007   5.444  16.984 -0.4649  0.1717  0.0192
16166TIP3    H269990   0.016   5.586  16.933 -0.2920  1.1662  2.6240
16167TIP3   OH269991   6.701   5.122  11.038  0.6740 -0.2776 -0.3031
16167TIP3    H169992   6.608   5.132  11.055  0.7118 -1.6509  0.9057
16167TIP3    H269993   6.744   5.189  11.091  0.3872  0.4438 -0.9667
16168TIP3   OH269994   5.383   6.435   4.679 -0.4520  0.9142 -0.1942
16168TIP3    H169995   5.364   6.516   4.633  0.7844  1.2174 -0.2078
16168TIP3    H269996   5.367   6.455   4.771 -4.0393 -0.0161 -0.4627
16169TIP3   OH269997   1.446   0.151  14.839 -0.2163 -0.1024 -0.0424
16169TIP3    H169998   1.409   0.143  14.927  0.4409  0.5982  0.3083
16169TIP3    H269999   1.459   0.061  14.810  1.0604 -0.3594  1.2299
16170TIP3   OH270000   3.365   3.687   2.185  0.7114  0.1347 -0.1377
16170TIP3    H170001   3.433   3.671   2.251  1.0418  1.8574 -0.0324
16170TIP3    H270002   3.395   3.765   2.139 -0.8474  0.4819 -0.5888
16171TIP3   OH270003   3.350   6.576   1.361  0.0598 -0.1610 -0.2951
16171TIP3    H170004   3.293   6.510   1.322 -1.9553  0.4486  1.4572
16171TIP3    H270005   3.333   6.655   1.309 -0.2326 -0.1343 -0.1608
16172TIP3   OH270006   6.809   2.341   1.087 -0.4282  0.1012  0.3125
16172TIP3    H170007   6.846   2.427   1.108 -0.9893  0.4640 -0.1629
16172TIP3    H270008   6.716   2.350   1.105 -0.5708 -0.2553 -0.2456
16173TIP3   OH270009   3.691   2.489  12.575  0.2856 -0.0122 -1.0574
16173TIP3    H170010   3.709   2.423  12.642 -0.5038 -0.3643 -1.1849
16173TIP3    H270011   3.658   2.564  12.624  0.6505  0.0910 -0.9654
16174TIP3   OH270012   1.301   1.414  12.705 -0.1181 -0.1392 -0.0513
16174TIP3    H170013   1.206   1.406  12.698 -0.0531 -1.6797  0.4802
16174TIP3    H270014   1.333   1.324  12.701  1.4885  0.4327 -2.1686
16175TIP3   OH270015   2.991   6.399  17.065  0.5287 -0.1437  0.5908
16175TIP3    H170016   2.959   6.375  16.978  0.0960  0.2379  0.6452
16175TIP3    H270017   3.018   6.490  17.056 -0.5880  0.2514  1.1559
16176TIP3   OH270018   0.186   5.120   1.415 -0.2345 -0.2499  0.0051
16176TIP3    H170019   0.177   5.051   1.480 -4.3645  1.0248  1.0836
16176TIP3    H270020   0.150   5.083   1.334 -3.1828  0.6908  0.7779
16177TIP3   OH270021   1.195   3.696   1.174  0.1022  0.0963  0.4484
16177TIP3    H170022   1.147   3.779   1.168  1.1601  0.6919 -0.0073
16177TIP3    H270023   1.287   3.721   1.165  0.5349 -0.9902  1.6733
16178TIP3   OH270024   5.732   3.299   3.621  0.3620  0.0284 -0.1651
16178TIP3    H170025   5.736   3.395   3.625  1.4515 -0.0277  0.6156
16178TIP3    H270026   5.824   3.271   3.614  0.2810 -1.0177  2.0743
16179TIP3   OH270027   2.817   0.303  11.044 -0.3664 -0.2786  0.8536
16179TIP3    H170028   2.830   0.299  10.950 -1.9677  2.4050  0.4037
16179TIP3    H270029   2.906   0.300  11.081  0.2767 -1.3301 -0.6914
16180TIP3   OH270030   4.047   1.789   0.374 -0.3299 -0.2461 -0.2579
16180TIP3    H170031   4.087   1.767   0.459 -1.6692 -0.8649  0.2414
16180TIP3    H270032   4.017   1.879   0.384 -1.8081 -0.7907  0.4826
16181TIP3   OH270033   1.553   4.360  16.099 -0.1201 -0.9701  0.0628
16181TIP3    H170034   1.507   4.320  16.173  1.2285 -0.9412  0.9287
16181TIP3    H270035   1.564   4.451  16.124  0.7676 -1.0665  0.0585
16182TIP3   OH270036   1.333   4.152  12.260 -0.6513  0.5401 -0.1962
16182TIP3    H170037   1.295   4.065  12.244 -0.1897  0.3526 -0.3103
16182TIP3    H270038   1.258   4.208  12.281 -1.1140  0.4309 -1.4358
16183TIP3   OH270039   2.089   0.658  14.686 -0.4357  0.5529 -0.4069
16183TIP3    H170040   2.126   0.675  14.599 -0.7050  1.0536 -0.4286
16183TIP3    H270041   2.084   0.563  14.692 -0.2895  0.5125 -0.8865
16184TIP3   OH270042   5.005   2.256   0.663 -0.3108 -0.3169  0.0219
16184TIP3    H170043   5.045   2.230   0.580 -0.6171 -1.9873  0.3670
16184TIP3    H270044   5.075   2.302   0.709  0.1168 -0.1063 -0.8115
16185TIP3   OH270045   3.250   5.117   0.301  0.6661 -0.0297 -0.5360
16185TIP3    H170046   3.279   5.126   0.210 -1.3555  1.6928 -1.1104
16185TIP3    H270047   3.218   5.027   0.308  1.1555 -0.2818 -1.4183
16186TIP3   OH270048   2.646   0.186   3.555 -0.1557 -0.2969 -0.5418
16186TIP3    H170049   2.650   0.175   3.650  0.5933 -0.9308 -0.6351
16186TIP3    H270050   2.729   0.152   3.523 -0.0595  0.6612 -1.3651
16187TIP3   OH270051   1.399   6.368  15.263  0.0971  0.8939  0.9278
16187TIP3    H170052   1.361   6.293  15.310  1.7112 -1.4703 -1.3298
16187TIP3    H270053   1.328   6.399  15.206 -0.1290  0.1353  0.7965
16188TIP3   OH270054   1.486   3.747   1.170 -0.1393 -0.0962 -0.4418
16188TIP3    H170055   1.574   3.779   1.190  0.7748 -3.2595  1.2624
16188TIP3    H270056   1.489   3.726   1.076  1.9715 -2.6925  0.0842
16189TIP3   OH270057   6.063   3.254   0.665 -0.7452 -0.4582  0.0457
16189TIP3    H170058   6.135   3.192   0.652 -0.3450 -0.2568  1.1802
16189TIP3    H270059   6.039   3.281   0.576  1.6664  0.6951 -0.3494
16190TIP3   OH270060   2.710   5.062   1.363  0.1377  0.2653 -0.4334
16190TIP3    H170061   2.781   5.106   1.316 -0.6507 -0.3737 -2.3639
16190TIP3    H270062   2.630   5.105   1.329 -0.4400  2.1094  2.8718
16191TIP3   OH270063   2.492   2.127   0.220 -0.8317  0.5513  0.3685
16191TIP3    H170064   2.502   2.120   0.125 -0.6778 -2.4911  0.5053
16191TIP3    H270065   2.546   2.202   0.244  2.7343 -1.1455 -1.5487
16192TIP3   OH270066   1.902   4.027  14.905 -0.6392  0.2497 -0.4636
16192TIP3    H170067   1.897   4.107  14.852 -0.6867  1.4094  1.2356
16192TIP3    H270068   1.813   4.016  14.940 -0.5666 -0.4156 -0.4766
16193TIP3   OH270069   5.856   2.795  13.845 -0.3735 -0.2237 -0.4666
16193TIP3    H170070   5.814   2.835  13.769  0.3751  0.5631 -0.4863
16193TIP3    H270071   5.894   2.868  13.893  1.3855 -0.9261 -0.7148
16194TIP3   OH270072   2.891   4.394  11.359  0.1183  0.4564  0.0080
16194TIP3    H170073   2.975   4.353  11.335 -0.6628 -1.4857  0.4422
16194TIP3    H270074   2.916   4.476  11.400  1.7585  0.5384 -1.0438
16195TIP3   OH270075   3.009   0.413   1.454 -0.4168  0.1895 -0.0461
16195TIP3    H170076   3.064   0.466   1.512  1.1435  1.4109 -2.4591
16195TIP3    H270077   3.019   0.454   1.368 -1.1439 -2.6101 -1.5777
16196TIP3   OH270078   2.748   0.278   3.098  0.4592 -0.3346 -0.2804
16196TIP3    H170079   2.664   0.322   3.105  1.4154  2.2309 -2.9834
16196TIP3    H270080   2.752   0.247   3.007  2.3230 -0.6052 -0.1468
16197TIP3   OH270081   4.139   5.788  11.986 -0.2454 -0.1457 -0.7630
16197TIP3    H170082   4.175   5.729  12.053  0.2008  0.8561 -0.1037
16197TIP3    H270083   4.172   5.753  11.904  0.6700 -0.3733 -0.3132
16198TIP3   OH270084   0.009   6.228  12.511  0.7760  0.2763  0.8016
16198TIP3    H170085  -0.049   6.278  12.568  1.0365 -0.4151  1.6916
16198TIP3    H270086   0.017   6.281  12.432  1.6139  2.0037  1.9921
16199TIP3   OH270087   1.783   5.526   1.810 -0.1276  0.1190  0.3188
16199TIP3    H170088   1.743   5.558   1.891 -1.6726  0.5241 -0.5552
16199TIP3    H270089   1.717   5.468   1.772  1.3152 -1.5400  0.2232
16200TIP3   OH270090   2.830   0.042   1.011 -0.0748 -0.6078 -0.0454
16200TIP3    H170091   2.793   0.044   1.099 -2.6713 -1.0871 -1.0361
16200TIP3    H270092   2.820  -0.048   0.983  1.4001 -0.6185 -0.5943
16201TIP3   OH270093   4.097   0.538   0.466  0.0698  0.0679  0.0529
16201TIP3    H170094   4.172   0.581   0.425  1.2384 -2.6678 -0.8995
16201TIP3    H270095   4.022   0.565   0.415  1.1302 -1.0307 -2.2284
16202TIP3   OH270096   6.697   2.780  11.886  0.1837  0.0924  0.2873
16202TIP3    H170097   6.784   2.771  11.847 -0.1208 -0.3428 -0.2994
16202TIP3    H270098   6.643   2.716  11.840 -1.1422  2.2491 -1.3700
16203TIP3   OH270099   1.882   6.525   5.491  0.1360 -0.6598  0.2542
16203TIP3    H170100   1.973   6.499   5.497  0.3231 -0.0051  0.3403
16203TIP3    H270101   1.846   6.505   5.578  0.6127  0.5650  0.7613
16204TIP3   OH270102   2.144   1.065   5.109 -0.1368 -0.1424 -0.7571
16204TIP3    H170103   2.191   1.147   5.123 -1.6014  0.9514 -1.8333
16204TIP3    H270104   2.084   1.058   5.184  3.1859 -2.8007  1.9789
16205TIP3   OH270105   3.025   5.718  13.084  0.3151 -0.4398  0.4124
16205TIP3    H170106   2.993   5.705  13.173  1.0897 -1.9226  0.4991
16205TIP3    H270107   2.947   5.711  13.029 -0.3234  1.4380  1.0166
16206TIP3   OH270108   0.773   5.522   3.460 -0.0798 -0.1937 -0.8466
16206TIP3    H170109   0.704   5.458   3.480 -0.2830  0.4617  0.6555
16206TIP3    H270110   0.854   5.472   3.468 -0.2932 -0.5956 -1.0986
16207TIP3   OH270111   5.196   4.806   4.617 -0.5884 -0.0088 -0.1298
16207TIP3    H170112   5.231   4.807   4.528 -1.3377  4.2516 -0.6204
16207TIP3    H270113   5.256   4.861   4.667 -1.7784  0.1391  1.2268
16208TIP3   OH270114   2.397   3.197   3.782 -0.0782  0.4009 -0.3461
16208TIP3    H170115   2.484   3.234   3.796  0.1662 -0.2999 -0.0116
16208TIP3    H270116   2.410   3.128   3.717 -0.2882 -0.0674  0.1013
16209TIP3   OH270117   3.250   0.669   2.134  0.0237 -0.2386 -0.4200
16209TIP3    H170118   3.197   0.697   2.208 -0.1401  0.1844 -0.6941
16209TIP3    H270119   3.195   0.685   2.057  1.4336  2.6556 -0.9646
16210TIP3   OH270120   0.522   5.913   4.025 -0.2617 -0.2409 -0.2860
16210TIP3    H170121   0.473   5.899   4.106  0.9075  0.3378  0.5399
16210TIP3    H270122   0.569   5.831   4.010 -1.6464 -0.9171 -1.2536
16211TIP3   OH270123   5.911   1.059  13.859  0.2861 -0.0631  0.2148
16211TIP3    H170124   5.879   0.972  13.834 -0.4903 -0.4854  2.3628
16211TIP3    H270125   5.831   1.113  13.864  0.9433  1.4533 -3.1439
16212TIP3   OH270126   4.976   1.651  12.954  0.5838 -0.1381 -0.5577
16212TIP3    H170127   5.050   1.691  12.999 -0.9889  2.2340  0.1022
16212TIP3    H270128   4.918   1.622  13.025  0.4869 -1.2500 -1.0698
16213TIP3   OH270129   0.869   0.234   3.139  0.0710 -0.3398 -0.3959
16213TIP3    H170130   0.900   0.284   3.063 -1.4110 -0.3526 -1.0401
16213TIP3    H270131   0.806   0.292   3.181 -0.5446 -1.0910 -0.2772
16214TIP3   OH270132   4.964   4.939   4.452 -0.0744 -0.0212  0.0631
16214TIP3    H170133   5.027   5.011   4.462  0.5165 -0.0388 -2.8520
16214TIP3    H270134   4.975   4.887   4.532  2.1816  1.0837  0.5605
16215TIP3   OH270135   0.498   2.094   5.176  0.3623  0.2497  0.0552
16215TIP3    H170136   0.475   2.023   5.236  0.9072 -0.8484 -0.9946
16215TIP3    H270137   0.414   2.131   5.148  0.0992  0.7018  1.3797
16216TIP3   OH270138   6.329   0.285   3.355  0.6087  0.0446 -0.2791
16216TIP3    H170139   6.336   0.376   3.325  2.0282 -0.0873 -0.4402
16216TIP3    H270140   6.392   0.278   3.426  0.7597 -0.8971 -0.4900
16217TIP3   OH270141   5.123   2.893  16.821 -0.1301 -0.5474  0.0423
16217TIP3    H170142   5.100   2.876  16.913  0.5262  0.1072  0.3353
16217TIP3    H270143   5.196   2.954  16.826  0.4448 -1.1382 -0.9078
16218TIP3   OH270144   1.271   3.376   4.205  0.5244 -0.1471 -0.3345
16218TIP3    H170145   1.337   3.422   4.257  0.6298  1.3652 -1.7248
16218TIP3    H270146   1.300   3.387   4.114 -1.1348 -0.2736 -0.9100
16219TIP3   OH270147   1.928   5.082   1.123 -0.5084  0.1755  0.0422
16219TIP3    H170148   1.874   5.144   1.075 -0.3462 -0.5290 -1.0967
16219TIP3    H270149   1.986   5.137   1.176  0.4832  1.0724 -1.8720
16220TIP3   OH270150   1.166   1.232  15.741  0.3698 -0.0823 -0.5506
16220TIP3    H170151   1.256   1.226  15.707  0.1809  1.5981 -1.4833
16220TIP3    H270152   1.169   1.307  15.801 -0.7280  0.9909 -1.7832
16221TIP3   OH270153   2.598   1.953   5.832  0.3505  0.4275 -0.2304
16221TIP3    H170154   2.619   1.942   5.739  1.8642  0.2841  0.1137
16221TIP3    H270155   2.579   1.865   5.863  0.2158  0.4291 -0.3040
16222TIP3   OH270156   5.585   6.633  15.160  0.5185  0.1223  0.5657
16222TIP3    H170157   5.589   6.540  15.181 -2.4125  0.3281  2.5650
16222TIP3    H270158   5.511   6.641  15.100 -0.5875  1.3439  2.0264
16223TIP3   OH270159   3.875   4.294   1.165  0.1672  0.1434  0.2772
16223TIP3    H170160   3.923   4.283   1.247 -0.0845  0.1157  0.4226
16223TIP3    H270161   3.915   4.371   1.125  1.0013 -0.4646 -0.0875
16224TIP3   OH270162   4.479   0.832  14.871 -0.2278 -0.2176  0.7913
16224TIP3    H170163   4.505   0.766  14.935  0.1550  0.9807  1.9245
16224TIP3    H270164   4.513   0.914  14.906 -1.6384  0.7513  0.0022
16225TIP3   OH270165   4.380   1.035   6.367 -0.6165 -0.7512  0.4200
16225TIP3    H170166   4.374   1.005   6.458 -1.2486  2.6914  1.6885
16225TIP3    H270167   4.289   1.036   6.336 -0.4336 -1.6312 -0.1845
16226TIP3   OH270168   3.720   4.157  13.142 -0.1114 -0.7827 -0.0439
16226TIP3    H170169   3.709   4.106  13.062  0.2957  0.5390 -0.9839
16226TIP3    H270170   3.650   4.223  13.138  0.3889 -0.2213  0.2867
16227TIP3   OH270171   5.503   2.543   3.867  0.2575  0.1217 -0.7181
16227TIP3    H170172   5.422   2.578   3.830  0.2138  1.2616  0.4058
16227TIP3    H270173   5.546   2.501   3.793 -2.1129 -2.0106 -1.0298
16228TIP3   OH270174   3.484   3.988  13.944  0.3187  0.4128 -0.1720
16228TIP3    H170175   3.541   4.042  13.999  1.7026 -0.6274 -0.5201
16228TIP3    H270176   3.495   4.023  13.856 -2.7450  2.7903  0.2471
16229TIP3   OH270177   5.216   1.691  13.570  0.1787  0.6224  0.2103
16229TIP3    H170178   5.259   1.609  13.597  1.4800  1.0073 -0.5632
16229TIP3    H270179   5.134   1.662  13.530  0.4495 -0.2931  0.2768
16230TIP3   OH270180   4.466   6.298   2.825  0.1674 -0.0527 -0.1346
16230TIP3    H170181   4.441   6.210   2.797  0.7321  0.0843 -1.1380
16230TIP3    H270182   4.555   6.288   2.859  0.1630  0.1016 -0.0790
16231TIP3   OH270183   1.966   3.685  17.222 -0.1191  0.4134 -0.4888
16231TIP3    H170184   1.905   3.743  17.269 -1.0947 -0.2345 -0.9138
16231TIP3    H270185   1.921   3.601  17.219 -0.2896  0.5354 -2.9354
16232TIP3   OH270186   5.193   3.725  13.756 -1.1627 -0.2603  0.0167
16232TIP3    H170187   5.100   3.706  13.749 -1.6916  2.3951 -1.4610
16232TIP3    H270188   5.226   3.723  13.666  0.4212 -1.8741  0.5694
16233TIP3   OH270189   1.431   5.352   0.206  0.0493  0.3086  0.9044
16233TIP3    H170190   1.459   5.420   0.145 -2.3850  0.4784 -0.1291
16233TIP3    H270191   1.338   5.369   0.221 -0.0934 -1.4497  2.4207
16234TIP3   OH270192   4.537   2.751   3.475  0.7042 -0.4423 -0.1091
16234TIP3    H170193   4.558   2.736   3.383  1.7063 -1.7982  0.3041
16234TIP3    H270194   4.503   2.840   3.478 -0.4567 -0.7716 -1.9621
16235TIP3   OH270195   2.933   0.089   5.506 -0.0426  0.0482  0.4485
16235TIP3    H170196   2.927   0.133   5.591 -1.0993 -1.5240  1.2217
16235TIP3    H270197   2.843   0.074   5.479  0.2826 -0.0894 -0.6404
16236TIP3   OH270198   2.869   6.424  12.175  0.1552  0.2071  0.2410
16236TIP3    H170199   2.848   6.438  12.268 -0.0985 -1.3868  0.4446
16236TIP3    H270200   2.786   6.440  12.129 -0.1024 -0.4765  0.4556
16237TIP3   OH270201   3.678   4.197   0.913  0.3181  0.1500 -0.4945
16237TIP3    H170202   3.590   4.186   0.878 -0.1873  1.1321  0.4079
16237TIP3    H270203   3.732   4.220   0.838 -0.4259  0.6441 -0.8817
16238TIP3   OH270204   3.094   0.728   2.409  0.5644 -0.2836 -0.5175
16238TIP3    H170205   3.048   0.676   2.475 -0.2698 -1.2654 -1.8346
16238TIP3    H270206   3.061   0.817   2.421  0.7468 -0.3562  0.6518
16239TIP3   OH270207   2.210   6.080   5.391  0.3592  0.1292 -0.2387
16239TIP3    H170208   2.127   6.042   5.420  0.2923  0.1029 -0.4610
16239TIP3    H270209   2.273   6.008   5.399 -0.1172 -0.5914 -2.3413
16240TIP3   OH270210   4.345   6.664  14.226 -0.1715 -0.5808 -0.4710
16240TIP3    H170211   4.398   6.584  14.222  2.0331  0.6628  1.3234
16240TIP3    H270212   4.382   6.719  14.157 -1.2971 -0.8326 -1.3077
16241TIP3   OH270213   1.938   2.536  11.317  0.1945  0.0696 -0.0738
16241TIP3    H170214   2.024   2.497  11.332 -0.0581 -0.0937  1.0724
16241TIP3    H270215   1.913   2.572  11.402 -1.6406 -1.4515  0.0960
16242TIP3   OH270216   2.242   4.062  10.664 -0.3578 -0.5765  0.5986
16242TIP3    H170217   2.196   3.981  10.688 -0.3714 -1.4886 -2.1968
16242TIP3    H270218   2.171   4.123  10.641 -0.2857 -0.5995  0.3147
16243TIP3   OH270219   0.726   1.158  15.475  0.0292 -1.1974 -0.0381
16243TIP3    H170220   0.656   1.184  15.535  1.5280  0.8102  0.9914
16243TIP3    H270221   0.791   1.116  15.531  0.9979 -0.2138 -0.3776
16244TIP3   OH270222   5.882   6.252  14.542 -0.1897  0.0309  0.4667
16244TIP3    H170223   5.945   6.309  14.584 -0.5519  1.4516 -0.8118
16244TIP3    H270224   5.924   6.166  14.540  1.6454  0.8984 -0.2000
16245TIP3   OH270225   1.388   2.672   2.451  0.5367  0.1536  0.2237
16245TIP3    H170226   1.336   2.592   2.462  1.1953 -0.1888  0.8973
16245TIP3    H270227   1.430   2.661   2.365  2.2798 -1.2227  1.1770
16246TIP3   OH270228   1.524   2.436   4.579  0.0456  0.6021 -0.3178
16246TIP3    H170229   1.499   2.523   4.550  0.3700  0.9113  0.3089
16246TIP3    H270230   1.618   2.441   4.593  0.0550  0.1714 -0.2145
16247TIP3   OH270231   5.159   6.276  16.435  0.4839  0.1489  0.0812
16247TIP3    H170232   5.081   6.294  16.487  1.0677 -0.0542  1.0530
16247TIP3    H270233   5.142   6.190  16.396 -1.0551  1.3879 -2.2064
16248TIP3   OH270234   4.027   3.972  13.029  0.3745 -0.4909  0.6604
16248TIP3    H170235   4.034   3.894  12.974 -3.5116  0.2105 -1.1418
16248TIP3    H270236   3.961   3.950  13.094 -1.4900  1.4701 -0.4465
16249TIP3   OH270237   5.102   3.833  17.097 -0.0031 -0.0271 -0.1548
16249TIP3    H170238   5.068   3.806  17.012 -0.1680 -0.6029  0.0889
16249TIP3    H270239   5.192   3.859  17.081 -0.0537 -0.0737 -0.5100
16250TIP3   OH270240   6.029   6.039  10.639 -0.3401 -0.4083  0.0111
16250TIP3    H170241   5.976   6.118  10.624 -1.5859 -1.1055  0.5611
16250TIP3    H270242   6.031   5.995  10.554  1.1845  0.6665 -0.5497
16251TIP3   OH270243   2.926   3.267   4.363 -0.2595 -0.0924 -0.1466
16251TIP3    H170244   2.953   3.299   4.450  1.2592  0.3474 -0.7453
16251TIP3    H270245   2.943   3.341   4.305  0.0321 -0.8409 -1.0268
16252TIP3   OH270246   1.959   4.413   2.486  0.2725 -0.5757  0.3889
16252TIP3    H170247   2.017   4.346   2.451 -0.0620 -1.9013  2.2630
16252TIP3    H270248   1.974   4.413   2.580  0.3476  2.1087  0.4543
16253TIP3   OH270249   1.912   4.746  13.886  0.3402 -0.3922 -0.1065
16253TIP3    H170250   2.007   4.751  13.878  0.3775  0.0112  0.5693
16253TIP3    H270251   1.896   4.682  13.956  0.1756  1.0743  1.2396
16254TIP3   OH270252   1.063   4.324  17.010 -0.4138  0.6386  0.2516
16254TIP3    H170253   1.089   4.413  17.031 -0.0074  0.4814  0.4285
16254TIP3    H270254   1.131   4.292  16.950  0.1416  0.0268  1.1818
16255TIP3   OH270255   5.464   5.867   2.414  0.0102  0.1968 -0.5163
16255TIP3    H170256   5.415   5.946   2.435 -1.5607 -0.0386 -2.8940
16255TIP3    H270257   5.549   5.879   2.457 -0.3800  2.8870 -0.3344
16256TIP3   OH270258   2.423   5.196   0.643  0.0864 -0.1650 -0.6723
16256TIP3    H170259   2.362   5.192   0.717 -0.7167  1.2772 -1.1998
16256TIP3    H270260   2.397   5.124   0.586 -2.2833  1.3451 -1.6681
16257TIP3   OH270261   3.971   4.374   3.168  0.1265 -0.3487 -0.0061
16257TIP3    H170262   3.910   4.445   3.188 -0.0797 -0.0536 -1.5605
16257TIP3    H270263   4.048   4.418   3.132  0.5045 -0.8495  0.1775
16258TIP3   OH270264   3.155   0.884   5.609  0.4703  0.1424 -0.1247
16258TIP3    H170265   3.099   0.835   5.669  0.3143  1.5881  0.9492
16258TIP3    H270266   3.098   0.953   5.574  0.9998  0.2849 -0.7242
16259TIP3   OH270267   5.968   0.153  14.565 -0.0964 -0.2023  0.2801
16259TIP3    H170268   5.877   0.177  14.546  0.1408  1.7886  1.4254
16259TIP3    H270269   6.000   0.112  14.484 -1.1400  1.7367 -1.1712
16260TIP3   OH270270   1.303   6.012  13.286 -0.5393  0.3272 -0.3278
16260TIP3    H170271   1.238   6.055  13.230 -0.1654  2.2706  0.6356
16260TIP3    H270272   1.366   5.975  13.224 -1.5439  0.0754 -1.2335
16261TIP3   OH270273   1.141   6.642   5.617  0.1963 -0.0835  0.2501
16261TIP3    H170274   1.223   6.673   5.655 -0.2062  0.5032  0.6688
16261TIP3    H270275   1.116   6.711   5.555  0.2817 -0.5092 -0.2636
16262TIP3   OH270276   6.066   6.761  11.104 -0.5208  0.5338  0.1095
16262TIP3    H170277   5.978   6.729  11.085  0.3888 -1.0018 -1.9090
16262TIP3    H270278   6.053   6.844  11.149 -2.9945 -0.6312  1.7502
16263TIP3   OH270279   1.537   2.388  14.657 -0.0215 -0.2745  0.1051
16263TIP3    H170280   1.453   2.423  14.686 -0.8520 -1.1928 -1.0668
16263TIP3    H270281   1.593   2.394  14.734 -1.3250 -0.1389  1.0938
16264TIP3   OH270282   6.117   4.313   0.215  0.5063 -0.4226  0.5708
16264TIP3    H170283   6.210   4.331   0.226  0.5659  0.2683 -0.8425
16264TIP3    H270284   6.106   4.301   0.121 -0.6249 -1.7624  0.8466
16265TIP3   OH270285   2.815   1.231  16.505  0.1976  0.1690 -0.0301
16265TIP3    H170286   2.804   1.300  16.570  2.7802 -0.2456  0.9527
16265TIP3    H270287   2.847   1.155  16.554 -1.6060 -1.4817 -1.2209
16266TIP3   OH270288   4.897   4.008   4.804 -0.0092 -0.4929 -0.3175
16266TIP3    H170289   4.845   4.055   4.739  0.5711 -0.0508 -0.4740
16266TIP3    H270290   4.932   3.933   4.756  0.6066 -0.0438 -0.5995
16267TIP3   OH270291   6.384   3.687  15.187 -0.1794 -0.2260  0.2701
16267TIP3    H170292   6.410   3.602  15.222  1.4107  0.0712 -0.1074
16267TIP3    H270293   6.457   3.713  15.130 -1.1877  0.8294 -0.6009
16268TIP3   OH270294   0.314   4.561   0.089 -0.0208  0.1036 -0.2711
16268TIP3    H170295   0.294   4.653   0.108 -0.1544  0.1918 -0.8279
16268TIP3    H270296   0.405   4.562   0.060 -0.2912  0.1776 -1.1153
16269TIP3   OH270297   0.718   3.397   4.867 -0.2533 -0.0746  0.1620
16269TIP3    H170298   0.745   3.394   4.959 -2.8056  2.5705  1.1362
16269TIP3    H270299   0.624   3.379   4.870 -0.1430 -1.3338 -2.1499
16270TIP3   OH270300   3.505   3.929  12.535 -0.2670  0.0204 -0.3836
16270TIP3    H170301   3.458   3.895  12.612  0.9881 -0.6530  0.1243
16270TIP3    H270302   3.519   4.021  12.554 -0.8761  0.0974 -0.2875
16271TIP3   OH270303   1.730   5.382   3.712 -0.0663 -0.3440 -0.5252
16271TIP3    H170304   1.757   5.462   3.756 -0.9257  1.6062 -3.2721
16271TIP3    H270305   1.798   5.365   3.647 -1.2691 -0.1048 -1.9200
16272TIP3   OH270306   5.471   2.523  13.545  0.7586  0.2940  0.8697
16272TIP3    H170307   5.424   2.515  13.462  0.8782 -0.6679  0.8873
16272TIP3    H270308   5.563   2.537  13.519  0.8055 -0.0681  0.8399
16273TIP3   OH270309   4.791   1.831  15.238  0.5873 -0.2896  0.0207
16273TIP3    H170310   4.836   1.849  15.320 -1.5192  0.1345  1.1516
16273TIP3    H270311   4.860   1.834  15.171  2.3151 -0.4677  1.7270
16274TIP3   OH270312   6.412   1.526  13.099 -0.2483 -0.4626  0.1647
16274TIP3    H170313   6.453   1.583  13.163 -1.6787  1.5548 -0.5952
16274TIP3    H270314   6.454   1.549  13.016 -0.5545 -0.7940 -0.0860
16275TIP3   OH270315   1.970   4.288  12.767 -0.0676 -0.0175  0.2732
16275TIP3    H170316   1.971   4.230  12.691 -0.7292 -1.5064  1.3372
16275TIP3    H270317   1.879   4.317  12.773  0.1368  0.6767  0.0927
16276TIP3   OH270318   4.041   3.731  13.707 -0.0155  0.6584 -0.9404
16276TIP3    H170319   3.997   3.669  13.766  0.6243  3.0555  2.3314
16276TIP3    H270320   4.134   3.712  13.718  0.0802  0.2199 -2.3597
16277TIP3   OH270321   6.163   2.370   1.995 -0.0463 -0.0557  0.3500
16277TIP3    H170322   6.185   2.462   1.982 -0.4616 -0.0565 -0.3871
16277TIP3    H270323   6.175   2.329   1.910  2.3968 -1.1928  1.1666
16278TIP3   OH270324   3.525   6.597   0.039  0.5520  0.7027  0.1848
16278TIP3    H170325   3.601   6.552   0.077  0.1960  0.4835  0.6621
16278TIP3    H270326   3.561   6.674  -0.003  1.2671 -0.3587 -1.2292
16279TIP3   OH270327   6.652   2.128   6.505  0.1193 -0.0856 -0.2402
16279TIP3    H170328   6.741   2.145   6.537  1.7725 -1.0594 -3.7330
16279TIP3    H270329   6.633   2.038   6.532  1.1267 -0.6044 -1.1696
16280TIP3   OH270330   2.903   4.026  11.318  0.3027  0.6668  0.5965
16280TIP3    H170331   2.964   4.096  11.296  0.0979  0.6502 -0.0673
16280TIP3    H270332   2.822   4.049  11.272  0.5633 -0.5455 -0.5694
16281TIP3   OH270333   3.642   1.039  16.664 -0.2281  0.5008 -0.5220
16281TIP3    H170334   3.722   0.988  16.676 -0.5671  0.0494 -0.1144
16281TIP3    H270335   3.650   1.079  16.578  0.2421  0.1102 -0.6585
16282TIP3   OH270336   5.787   1.147  10.813 -0.4716  0.2801  0.1011
16282TIP3    H170337   5.851   1.192  10.758 -1.9831 -0.9868 -2.9258
16282TIP3    H270338   5.840   1.107  10.882  1.9615 -0.0475 -1.7941
16283TIP3   OH270339   4.965   5.339  14.611 -0.2398  0.0737  0.1802
16283TIP3    H170340   4.895   5.387  14.655 -0.1462  1.5088 -1.1513
16283TIP3    H270341   4.992   5.271  14.674 -1.9136  0.3330  1.2162
16284TIP3   OH270342   0.243   5.686   2.417 -0.2295 -0.2071 -0.0253
16284TIP3    H170343   0.299   5.756   2.450 -0.3554  0.1095 -0.4690
16284TIP3    H270344   0.277   5.668   2.329  1.0766 -2.0883  0.8011
16285TIP3   OH270345   6.576   2.165  12.213 -0.1684 -0.9110 -0.3498
16285TIP3    H170346   6.609   2.137  12.298  2.9626  0.5100 -0.9247
16285TIP3    H270347   6.520   2.240  12.232  0.3905 -0.6894  0.4768
16286TIP3   OH270348   0.415   6.197   2.337 -0.1440 -0.0524 -0.5673
16286TIP3    H170349   0.502   6.210   2.300 -0.7986 -1.5672 -2.8640
16286TIP3    H270350   0.408   6.103   2.350 -1.1088  0.1445  0.5548
16287TIP3   OH270351   0.414   6.603  11.133  0.5041  0.5402  0.7283
16287TIP3    H170352   0.389   6.518  11.169  0.1613  0.6483  0.7441
16287TIP3    H270353   0.502   6.619  11.168  0.7503 -0.0041  0.3802
16288TIP3   OH270354   5.413   0.032  17.044  0.0606 -0.5201  0.4938
16288TIP3    H170355   5.364  -0.001  16.969  0.2201  1.0394 -0.3282
16288TIP3    H270356   5.504   0.014  17.022  0.1687  0.6814 -0.0870
16289TIP3   OH270357   5.074   1.575   2.326 -0.4046  0.0543  0.2358
16289TIP3    H170358   5.024   1.619   2.394 -1.5954 -1.1539  0.1864
16289TIP3    H270359   5.029   1.492   2.312 -0.4761  0.4254 -2.3359
16290TIP3   OH270360   0.549   0.816   1.834  0.0916  0.4273  0.3591
16290TIP3    H170361   0.621   0.760   1.806  1.4228  2.4061 -0.4569
16290TIP3    H270362   0.532   0.791   1.925  0.8976 -1.0029  0.1339
16291TIP3   OH270363   1.052   0.152   5.933  0.8161  0.1857 -0.7066
16291TIP3    H170364   1.022   0.062   5.922  1.0566  0.0691 -0.4447
16291TIP3    H270365   1.103   0.150   6.014 -1.4448  1.1349  0.8480
16292TIP3   OH270366   5.907   5.024   2.527  0.2278  0.0668  1.0772
16292TIP3    H170367   5.952   4.998   2.607  0.8811 -1.3916  0.2786
16292TIP3    H270368   5.849   4.951   2.506 -0.4021  0.6963  0.5511
16293TIP3   OH270369   6.811   0.774  16.925 -0.2439  0.4435  0.1094
16293TIP3    H170370   6.728   0.745  16.887 -0.2563 -0.4649  0.8028
16293TIP3    H270371   6.808   0.869  16.920 -0.6464  0.3808 -1.2998
16294TIP3   OH270372   5.001   1.934  12.965 -0.2544 -0.0951  0.2674
16294TIP3    H170373   5.064   1.939  12.894 -0.6247 -2.6298 -0.3331
16294TIP3    H270374   4.956   1.850  12.952 -1.7244  0.2794  2.3421
16295TIP3   OH270375   6.193   6.237   1.549  0.5727 -0.2974  0.2516
16295TIP3    H170376   6.159   6.168   1.492 -1.2997  0.6202  0.1453
16295TIP3    H270377   6.153   6.317   1.515  0.5615  0.4711  1.9708
16296TIP3   OH270378   6.348   1.119   1.886  0.0255 -0.1715 -0.8264
16296TIP3    H170379   6.337   1.040   1.833 -0.5318 -0.7098  0.0753
16296TIP3    H270380   6.260   1.142   1.914  0.1390  0.9732 -1.3376
16297TIP3   OH270381   4.521   1.268   1.156  0.2640 -0.1004  0.4062
16297TIP3    H170382   4.456   1.241   1.092  0.4253  0.9843 -0.2442
16297TIP3    H270383   4.576   1.332   1.109 -0.7441  2.1736  2.1356
16298TIP3   OH270384   3.437   0.808  14.123  0.1093 -0.4095  0.4383
16298TIP3    H170385   3.468   0.886  14.168 -2.9793  0.7937  0.7870
16298TIP3    H270386   3.479   0.811  14.037  1.7968  0.3429  1.2496
16299TIP3   OH270387   6.012   1.951   6.138 -0.0724 -0.8378  0.2377
16299TIP3    H170388   5.999   2.029   6.085  1.3946 -0.5212  0.2962
16299TIP3    H270389   6.086   1.906   6.096  0.5946 -0.9917  1.5260
16300TIP3   OH270390   4.625   5.141   4.479 -0.2134  0.1488 -0.4192
16300TIP3    H170391   4.695   5.205   4.462  1.1905 -1.4536 -1.0383
16300TIP3    H270392   4.626   5.129   4.574  1.1121 -0.5951 -0.4966
16301TIP3   OH270393   0.278   3.505  13.208 -0.4844 -0.2697 -0.2796
16301TIP3    H170394   0.366   3.529  13.237 -1.1447 -0.4790  2.1994
16301TIP3    H270395   0.269   3.413  13.233 -1.5437 -0.1212 -0.0500
16302TIP3   OH270396   4.532   4.903   3.568 -0.2721  0.1533 -0.1637
16302TIP3    H170397   4.500   4.970   3.508  0.3826  1.3723  0.8069
16302TIP3    H270398   4.537   4.824   3.515  1.4698  1.4547 -2.0975
16303TIP3   OH270399   4.752   4.548  12.733  0.6379  0.2294  0.1534
16303TIP3    H170400   4.805   4.529  12.810  0.6228 -0.4985 -0.0085
16303TIP3    H270401   4.790   4.494  12.664  0.6433  0.8665 -0.3532
16304TIP3   OH270402   6.736   6.752  13.400  0.1549  0.7783 -0.0804
16304TIP3    H170403   6.693   6.743  13.485 -0.0782 -1.9128 -0.4141
16304TIP3    H270404   6.682   6.815  13.353 -1.5529 -0.0412  0.6917
16305TIP3   OH270405   2.682   0.798  12.612  0.2044  0.6622 -0.0740
16305TIP3    H170406   2.716   0.733  12.550  0.6313 -1.0957  1.8652
16305TIP3    H270407   2.757   0.821  12.667 -0.2699  1.7783  0.1346
16306TIP3   OH270408   6.025   3.496  12.208 -0.0451 -0.2274  0.5802
16306TIP3    H170409   6.045   3.558  12.139 -1.0851  0.1964  0.6385
16306TIP3    H270410   5.991   3.550  12.280 -1.9564 -0.9249  0.2520
16307TIP3   OH270411   3.670   3.452   1.655 -0.2963 -0.5026 -0.0087
16307TIP3    H170412   3.643   3.543   1.665  0.1128 -0.0359 -2.3667
16307TIP3    H270413   3.733   3.436   1.725 -1.2571  0.6471  1.1459
16308TIP3   OH270414   3.217   1.163  15.314  0.4910  0.2033  0.1466
16308TIP3    H170415   3.300   1.181  15.357  0.4283 -1.1149  0.8531
16308TIP3    H270416   3.241   1.132  15.227  0.6289  2.3816 -0.6765
16309TIP3   OH270417   2.463   2.410  14.695 -0.2784  0.4860  0.6622
16309TIP3    H170418   2.439   2.459  14.774 -0.4398 -2.3689  2.5004
16309TIP3    H270419   2.387   2.354  14.677 -1.2597  2.6425 -3.0339
16310TIP3   OH270420   3.153   2.030   2.396  0.3329  0.6521  0.2639
16310TIP3    H170421   3.069   2.073   2.413 -0.7599 -1.6346  1.0236
16310TIP3    H270422   3.163   2.035   2.301  0.2881  2.5390  0.3090
16311TIP3   OH270423   6.281   0.613  14.041  0.5959  0.2363  0.3392
16311TIP3    H170424   6.319   0.530  14.070 -0.3141 -0.2598  0.1476
16311TIP3    H270425   6.276   0.605  13.946 -1.3354 -0.3428  0.4399
16312TIP3   OH270426   5.809   4.976  13.529  0.3044  0.1163  0.1118
16312TIP3    H170427   5.864   5.053  13.545  0.7931  0.4131 -2.5771
16312TIP3    H270428   5.853   4.929  13.459 -1.0421 -1.5720  0.3488
16313TIP3   OH270429   4.179   1.587   2.213  0.2870 -0.0496 -0.2470
16313TIP3    H170430   4.237   1.659   2.238  0.1900  0.1549 -0.6123
16313TIP3    H270431   4.239   1.516   2.190  0.3814 -0.3477  0.8448
16314TIP3   OH270432   3.341   4.908  11.441 -0.0177 -0.1526 -0.6816
16314TIP3    H170433   3.324   4.826  11.487  1.3547  0.7963  1.6758
16314TIP3    H270434   3.261   4.924  11.391 -0.4006 -2.7788 -1.0573
16315TIP3   OH270435   2.892   4.871  12.843 -0.5363 -0.1241  0.2558
16315TIP3    H170436   2.838   4.793  12.835 -0.9695 -0.3972  4.1104
16315TIP3    H270437   2.867   4.910  12.926  1.0760  3.0861 -0.5716
16316TIP3   OH270438   6.756   1.626  14.202 -0.5972  0.2403  0.0508
16316TIP3    H170439   6.768   1.548  14.256 -1.6621  0.0274 -0.0031
16316TIP3    H270440   6.845   1.649  14.174 -0.2308 -0.7605  0.3343
16317TIP3   OH270441   4.641   3.304  16.246 -0.2982 -0.2440  0.4700
16317TIP3    H170442   4.546   3.310  16.250 -0.3145  1.7091 -0.9205
16317TIP3    H270443   4.661   3.307  16.152  1.1226 -0.7011  0.7388
16318TIP3   OH270444   0.239   3.946   1.644 -0.0122  0.3926 -0.0398
16318TIP3    H170445   0.186   4.012   1.600  0.3040  0.6226 -0.0747
16318TIP3    H270446   0.313   3.931   1.585  0.6269  0.9974  0.5959
16319TIP3   OH270447   5.099   1.665  16.606 -0.2025  0.7704 -0.0319
16319TIP3    H170448   5.033   1.729  16.632  0.5960  0.8955  1.8158
16319TIP3    H270449   5.066   1.582  16.641 -0.6846  0.3342 -1.4589
16320TIP3   OH270450   2.243   2.688  12.781 -0.3714  0.4365 -0.3307
16320TIP3    H170451   2.207   2.600  12.769 -0.0217  0.1713  0.5312
16320TIP3    H270452   2.200   2.741  12.713  0.9755 -0.8263 -2.2769
16321TIP3   OH270453   1.207   2.714   3.455  0.5263  0.2768 -0.6231
16321TIP3    H170454   1.300   2.725   3.438  0.8003  0.3159  0.8006
16321TIP3    H270455   1.187   2.777   3.524  0.5125 -2.7322  2.4128
16322TIP3   OH270456   1.082   2.326   3.574 -0.2477 -0.2851  0.0610
16322TIP3    H170457   1.135   2.404   3.590 -0.1884 -0.1909 -0.5633
16322TIP3    H270458   1.115   2.261   3.637  1.2572 -0.5310 -0.9324
16323TIP3   OH270459   0.634   5.262  10.521 -0.9767 -0.6825 -0.6282
16323TIP3    H170460   0.640   5.344  10.570 -1.8431 -0.7262 -0.4485
16323TIP3    H270461   0.632   5.289  10.429 -0.9969 -0.5180 -0.5789
16324TIP3   OH270462   5.773   4.726   4.207  0.1110 -0.1944 -0.8330
16324TIP3    H170463   5.867   4.722   4.186 -0.1216 -2.2415 -1.7449
16324TIP3    H270464   5.769   4.711   4.301  0.6518 -2.3960 -1.0901
16325TIP3   OH270465   1.603   4.603   2.134  0.1559  0.1164 -0.5411
16325TIP3    H170466   1.689   4.633   2.165 -0.2571 -0.0386  0.8186
16325TIP3    H270467   1.607   4.508   2.140 -1.3385  0.1114  3.2986
16326TIP3   OH270468   3.367   2.577  10.968 -0.0386  0.7756  0.4400
16326TIP3    H170469   3.375   2.671  10.951 -0.0524  0.5761 -0.7642
16326TIP3    H270470   3.456   2.543  10.959 -0.3223  0.3749 -1.1938
16327TIP3   OH270471   4.998   3.522   4.540  0.2921 -0.5207 -0.0733
16327TIP3    H170472   4.970   3.572   4.463 -2.1076  1.5059  1.9445
16327TIP3    H270473   4.968   3.432   4.521 -1.8287  0.2779 -0.8661
16328TIP3   OH270474   2.540   6.235  15.461 -0.0253 -0.0596  0.0227
16328TIP3    H170475   2.527   6.328  15.444  0.5582 -0.0783 -0.5402
16328TIP3    H270476   2.458   6.194  15.432  0.5195  0.0368 -1.7561
16329TIP3   OH270477   0.170   4.704  12.780 -0.2144 -0.0154  0.0844
16329TIP3    H170478   0.154   4.773  12.715  2.5917  1.2925  0.5940
16329TIP3    H270479   0.171   4.750  12.864  3.0615 -0.2757  0.3203
16330TIP3   OH270480   5.978   6.403   0.854  0.8937  0.1624 -0.2848
16330TIP3    H170481   5.984   6.426   0.947  1.2971 -0.7792 -0.0698
16330TIP3    H270482   6.055   6.443   0.814  1.2160 -0.2153 -0.0440
16331TIP3   OH270483   2.072   1.175  13.800 -0.5683 -0.6731  0.6816
16331TIP3    H170484   2.048   1.187  13.892 -0.4180 -2.1831  0.9433
16331TIP3    H270485   2.028   1.094  13.774 -0.1294 -0.5797 -0.4039
16332TIP3   OH270486   2.225   3.629  13.577  0.3556 -0.0380 -0.2659
16332TIP3    H170487   2.317   3.609  13.596  0.4025 -1.4069 -1.7119
16332TIP3    H270488   2.227   3.717  13.540  1.0636  0.0193 -0.1058
16333TIP3   OH270489   0.176   6.604  16.802 -0.3329 -0.4243 -0.1228
16333TIP3    H170490   0.197   6.637  16.715 -2.0526  1.1748  0.0009
16333TIP3    H270491   0.147   6.514  16.787  0.8012 -0.6642 -0.9922
16334TIP3   OH270492   1.635   5.902   1.299  0.7565  0.0664  0.3749
16334TIP3    H170493   1.630   5.863   1.212  0.3872 -1.0164  0.8610
16334TIP3    H270494   1.687   5.839   1.350  1.7282  1.1175  0.7120
16335TIP3   OH270495   0.089   2.309   1.676 -0.4729  0.6075  0.4991
16335TIP3    H170496   0.100   2.402   1.691 -1.0410  1.0903 -1.6736
16335TIP3    H270497   0.006   2.287   1.717 -1.4481  1.5979 -0.8502
16336TIP3   OH270498   5.230   5.281   6.035  0.1631  0.2374  0.1651
16336TIP3    H170499   5.317   5.315   6.016  0.2966  0.4571  1.1004
16336TIP3    H270500   5.196   5.339   6.104 -1.1083  0.7467 -0.8515
16337TIP3   OH270501   1.542   0.352  13.115 -0.9747 -0.2670  0.1290
16337TIP3    H170502   1.524   0.286  13.048 -1.1206  0.0537 -0.1530
16337TIP3    H270503   1.587   0.305  13.185  0.1461 -0.3980 -0.6666
16338TIP3   OH270504   2.921   5.464   1.269 -0.2503 -0.1982  0.8468
16338TIP3    H170505   2.854   5.414   1.315  0.4186 -2.1759 -0.1841
16338TIP3    H270506   3.003   5.421   1.293  0.7187  2.1890  2.1193
16339TIP3   OH270507   4.744   1.470   3.049  0.3029  0.4169 -0.0320
16339TIP3    H170508   4.804   1.542   3.067 -0.6575  0.9591  1.2190
16339TIP3    H270509   4.679   1.506   2.989  0.5284  0.2069 -0.4050
16340TIP3   OH270510   1.913   4.939   1.531 -0.1638  0.2749  0.0231
16340TIP3    H170511   1.837   4.984   1.494 -0.1488  0.3491  0.0810
16340TIP3    H270512   1.962   5.008   1.576  0.6428  0.4871 -1.1265
16341TIP3   OH270513   1.247   3.258  16.632  0.0789 -0.3883 -0.7165
16341TIP3    H170514   1.251   3.336  16.577 -1.9323  2.5136  2.7909
16341TIP3    H270515   1.339   3.238  16.651  0.6672  1.5840 -1.2481
16342TIP3   OH270516   4.507   3.560   1.187 -0.6941  0.5931 -0.5037
16342TIP3    H170517   4.539   3.642   1.149  0.3254  0.5231  0.1715
16342TIP3    H270518   4.425   3.543   1.141 -0.8213  1.8901 -0.7963
16343TIP3   OH270519   4.223   2.566   2.486  0.4440  0.1832 -0.3179
16343TIP3    H170520   4.289   2.606   2.429  0.1547  1.4450  0.1978
16343TIP3    H270521   4.212   2.477   2.452  1.1412  0.5248 -1.4778
16344TIP3   OH270522   6.146   6.224  12.052 -0.0713 -0.4589  0.4938
16344TIP3    H170523   6.160   6.140  12.008 -0.1462 -0.5439  0.6340
16344TIP3    H270524   6.091   6.203  12.127 -0.8249 -0.1438  0.0305
16345TIP3   OH270525   3.555   5.626  12.603  0.4405  0.1537  0.2525
16345TIP3    H170526   3.492   5.676  12.551 -0.8441 -1.2591  0.3813
16345TIP3    H270527   3.505   5.593  12.677  1.4990 -0.4484  0.7292
16346TIP3   OH270528   2.575   2.098  14.639  0.5883 -0.1040 -0.0015
16346TIP3    H170529   2.657   2.051  14.627  0.6572 -0.0203  0.1326
16346TIP3    H270530   2.563   2.102  14.734 -1.1668 -2.8383  0.0030
16347TIP3   OH270531   0.268   5.676   0.814  0.3651 -0.1742  0.6848
16347TIP3    H170532   0.226   5.761   0.828 -0.7061 -0.1625 -2.0112
16347TIP3    H270533   0.213   5.615   0.862 -0.0593  0.4073  0.9583
16348TIP3   OH270534   1.073   4.122   6.625 -0.1306 -0.0059 -0.4296
16348TIP3    H170535   1.018   4.199   6.625  0.7020  0.6613  1.4951
16348TIP3    H270536   1.083   4.099   6.717 -0.9573 -2.8946 -0.9431
16349TIP3   OH270537   0.151   5.115   3.130  0.1534  0.1750 -0.0598
16349TIP3    H170538   0.124   5.123   3.039 -0.7119  0.6231  0.2166
16349TIP3    H270539   0.220   5.180   3.141 -0.4302  0.8224 -0.1571
16350TIP3   OH270540   2.232   1.813  13.702 -0.1031  0.0227 -0.0116
16350TIP3    H170541   2.191   1.770  13.627 -0.5784 -0.0172  0.2692
16350TIP3    H270542   2.261   1.898  13.667  1.3948 -0.7390 -0.7272
16351TIP3   OH270543   3.013   0.490  12.224  0.7858 -0.0424  0.2010
16351TIP3    H170544   2.960   0.514  12.300  2.7544  1.4335  1.2050
16351TIP3    H270545   3.086   0.551  12.225  2.4290 -1.8406 -1.2217
16352TIP3   OH270546   6.502   2.790  13.689  0.0155  0.5567 -0.5585
16352TIP3    H170547   6.486   2.755  13.601  0.6902 -0.1713 -0.4020
16352TIP3    H270548   6.439   2.861  13.698  0.2653  0.9670 -1.8288
16353TIP3   OH270549   5.513   6.579   5.423  0.0572 -0.3012  0.6883
16353TIP3    H170550   5.459   6.505   5.449  0.1524 -0.5182  0.2773
16353TIP3    H270551   5.525   6.568   5.329 -2.8160  2.0739 -0.1052
16354TIP3   OH270552   6.523   0.651   2.261 -0.1982 -0.1213  0.7137
16354TIP3    H170553   6.493   0.673   2.349  0.7903 -1.8627  1.5253
16354TIP3    H270554   6.474   0.573   2.236  1.1193 -0.9639  0.6587
16355TIP3   OH270555   1.880   4.202  11.701  0.0714 -0.0347  0.2268
16355TIP3    H170556   1.846   4.212  11.791 -1.9381  1.9416 -0.6471
16355TIP3    H270557   1.919   4.286  11.681  2.5146 -1.1630 -0.0714
16356TIP3   OH270558   0.741   0.688  15.931  0.0917 -0.3765 -0.2103
16356TIP3    H170559   0.807   0.622  15.908  1.1825  0.7356 -0.3564
16356TIP3    H270560   0.772   0.725  16.013 -1.3245 -1.0660  0.6802
16357TIP3   OH270561   5.626   1.478  12.868  0.1329 -0.6387  0.6600
16357TIP3    H170562   5.601   1.411  12.932 -0.9776 -1.5083 -0.6287
16357TIP3    H270563   5.666   1.428  12.796 -0.8160  0.0585 -0.3744
16358TIP3   OH270564   5.606   4.893  12.045  0.2336  0.0473 -0.3760
16358TIP3    H170565   5.570   4.810  12.014  0.8595  0.2077 -1.5962
16358TIP3    H270566   5.676   4.868  12.106  1.8395 -0.4271 -2.2968
16359TIP3   OH270567   2.445   1.198  14.979  0.2842 -0.4294 -0.3625
16359TIP3    H170568   2.500   1.210  15.056 -0.1620 -0.3647 -0.0484
16359TIP3    H270569   2.405   1.284  14.964 -0.0172 -0.5692 -0.3643
16360TIP3   OH270570   1.401   4.681  11.118  1.0011  0.2542 -0.3724
16360TIP3    H170571   1.490   4.695  11.150  0.7832  2.8301 -0.7069
16360TIP3    H270572   1.398   4.729  11.035 -0.3287 -0.8957 -1.0241
16361TIP3   OH270573   5.270   1.940  10.875  0.3787  0.4242 -0.7723
16361TIP3    H170574   5.251   2.001  10.804 -0.9879  0.1856 -0.6539
16361TIP3    H270575   5.253   1.854  10.837 -1.9582  0.3618  0.2338
16362TIP3   OH270576   5.612   5.614   1.172  0.3664  0.1120 -0.1786
16362TIP3    H170577   5.645   5.527   1.195  0.3020  0.7030  2.4070
16362TIP3    H270578   5.690   5.665   1.151  0.5334 -0.1804 -0.2649
16363TIP3   OH270579   5.659   2.274  13.905  0.4964 -0.1549 -0.7537
16363TIP3    H170580   5.631   2.341  13.968  2.4471 -0.0678  0.0899
16363TIP3    H270581   5.593   2.205  13.912  0.7406 -0.2287  1.5504
16364TIP3   OH270582   1.860   6.440  13.226  0.3438  0.5813 -0.2405
16364TIP3    H170583   1.852   6.534  13.205 -2.7312  0.1723 -1.5555
16364TIP3    H270584   1.860   6.397  13.140  1.2062 -0.6518  0.3634
16365TIP3   OH270585   1.142   1.570  15.803  0.2835 -0.1217 -0.2739
16365TIP3    H170586   1.139   1.663  15.780 -1.4133 -0.8339 -3.5077
16365TIP3    H270587   1.182   1.528  15.726 -0.8810 -2.2618  0.2242
16366TIP3   OH270588   6.349   1.726  13.416  0.3425  0.1417 -0.0455
16366TIP3    H170589   6.260   1.699  13.394  0.7122 -1.1967 -0.0412
16366TIP3    H270590   6.339   1.788  13.488 -0.5980  0.2086 -0.2288
16367TIP3   OH270591   3.838   6.168   0.412  0.4231  0.2814  0.1237
16367TIP3    H170592   3.761   6.180   0.467  1.2581  1.2127  1.1324
16367TIP3    H270593   3.825   6.228   0.339 -0.3523 -0.4406 -0.3570
16368TIP3   OH270594   5.666   1.266   5.049 -0.1966 -0.1778  0.2600
16368TIP3    H170595   5.612   1.213   4.991  0.3048 -0.2554 -0.1391
16368TIP3    H270596   5.651   1.229   5.136  0.2835 -1.0926 -0.0365
16369TIP3   OH270597   3.617   6.248   5.210  0.2582  0.7305  0.0375
16369TIP3    H170598   3.612   6.257   5.115  0.4464 -2.5819 -0.3992
16369TIP3    H270599   3.571   6.166   5.229  2.7225 -0.2286  2.4526
16370TIP3   OH270600   0.554   1.461  13.018 -0.2959  0.3985 -0.2993
16370TIP3    H170601   0.496   1.483  12.945 -1.0758  1.1470  0.5166
16370TIP3    H270602   0.613   1.535  13.025 -0.9215  0.8381  0.4952
16371TIP3   OH270603   4.130   6.613  15.098  0.1893  0.3631  0.0351
16371TIP3    H170604   4.088   6.639  15.016  0.2230 -0.5914 -0.3004
16371TIP3    H270605   4.099   6.524  15.113 -0.2146  0.7039  1.3365
16372TIP3   OH270606   6.307   2.143  15.087 -0.0452 -0.5871  0.1221
16372TIP3    H170607   6.332   2.054  15.111  1.4066 -0.1387  0.3182
16372TIP3    H270608   6.307   2.191  15.170  0.5602 -0.0807 -0.1658
16373TIP3   OH270609   6.398   1.187   1.037  0.8737  0.1051  0.2461
16373TIP3    H170610   6.396   1.091   1.045  1.6208  0.0958  0.3831
16373TIP3    H270611   6.320   1.208   0.986  0.4581 -0.5379  0.5925
16374TIP3   OH270612   6.455   4.969  13.283  0.3837 -0.4469 -0.2983
16374TIP3    H170613   6.511   4.945  13.209 -1.7280 -0.4955 -1.9743
16374TIP3    H270614   6.495   5.048  13.319  0.7664  0.3573 -2.3720
16375TIP3   OH270615   1.979   0.788   4.290  0.3943  0.1295  0.2446
16375TIP3    H170616   2.013   0.786   4.200  2.9036 -0.2880  1.1112
16375TIP3    H270617   1.927   0.868   4.293  2.2299  1.4723 -0.9867
16376TIP3   OH270618   1.018   6.645   4.204  0.1022 -0.0013  1.1111
16376TIP3    H170619   1.077   6.679   4.272 -0.4187  0.5261  1.3109
16376TIP3    H270620   1.072   6.639   4.126 -0.2103  3.1284  0.5434
16377TIP3   OH270621   1.732   3.335  16.017  0.2127  0.3763 -0.6354
16377TIP3    H170622   1.736   3.251  15.972 -1.5936  0.5780 -1.2588
16377TIP3    H270623   1.824   3.359  16.031  0.8107 -0.4934 -2.6981
16378TIP3   OH270624   1.449   2.133  14.667  0.0432  0.0768  0.0450
16378TIP3    H170625   1.508   2.082  14.611 -0.3515 -0.0931 -0.2233
16378TIP3    H270626   1.468   2.224  14.645  1.5413  0.1055  1.3318
16379TIP3   OH270627   5.241   3.871   0.539  0.0598 -0.4341  0.4320
16379TIP3    H170628   5.247   3.951   0.486 -2.6393 -1.3213 -1.4243
16379TIP3    H270629   5.316   3.818   0.510  1.3407  0.9658  1.0133
16380TIP3   OH270630   3.211   1.592   3.681 -0.2231  0.2842 -0.2920
16380TIP3    H170631   3.131   1.639   3.704 -0.0124  0.1669  0.7127
16380TIP3    H270632   3.192   1.500   3.702 -0.1111  0.1303 -0.8414
16381TIP3   OH270633   1.539   0.999   1.583 -0.2298 -0.2689 -0.5231
16381TIP3    H170634   1.492   0.934   1.530  0.3230 -1.0277 -0.1099
16381TIP3    H270635   1.480   1.074   1.587 -1.8143 -1.5044  0.7119
16382TIP3   OH270636   2.606   3.083  14.950  0.1634 -0.3942 -0.0572
16382TIP3    H170637   2.615   3.091  14.855  0.0819  0.0676 -0.0252
16382TIP3    H270638   2.533   3.140  14.972  1.5682  1.2242  0.5598
16383TIP3   OH270639   3.035   4.938   2.782  0.1653  0.0195 -0.5227
16383TIP3    H170640   3.071   5.026   2.789  2.6510 -1.0215  0.9626
16383TIP3    H270641   2.950   4.951   2.740  0.4417  3.0925 -0.3879
16384TIP3   OH270642   6.026   4.924  16.185 -0.5648  0.1383  0.9854
16384TIP3    H170643   6.037   4.909  16.091  0.2937  1.8227  0.7751
16384TIP3    H270644   6.018   4.836  16.222  0.5495 -0.6442 -0.4924
16385TIP3   OH270645   4.686   4.952  14.265 -0.3150 -0.3784  0.8168
16385TIP3    H170646   4.740   4.874  14.277 -1.9503 -1.4052  1.8082
16385TIP3    H270647   4.742   5.024  14.295  0.3727 -1.4685  2.2525
16386TIP3   OH270648   1.140   3.846   5.761 -0.0685  0.1799 -0.0620
16386TIP3    H170649   1.206   3.911   5.784  0.7670 -0.9995  0.9843
16386TIP3    H270650   1.139   3.785   5.835 -0.2588 -1.4519 -1.3547
16387TIP3   OH270651   3.464   6.585   3.390 -1.0161 -0.6091  0.2018
16387TIP3    H170652   3.409   6.553   3.462  0.4011 -3.0566  0.3240
16387TIP3    H270653   3.462   6.514   3.325 -0.2877  0.4909 -1.0776
16388TIP3   OH270654   4.960   0.688   3.895  0.0171  0.2582 -0.3044
16388TIP3    H170655   4.917   0.641   3.966  1.1849  0.8851  0.8610
16388TIP3    H270656   5.029   0.629   3.865  0.9211  0.8358  0.5737
16389TIP3   OH270657   2.641   0.125  16.856 -0.2727 -0.4895 -0.2879
16389TIP3    H170658   2.690   0.106  16.776 -0.0573  0.5776 -0.4314
16389TIP3    H270659   2.576   0.056  16.861 -0.9654 -0.0191 -1.9663
16390TIP3   OH270660   2.556   5.503  15.217 -0.3431 -0.0413 -0.3738
16390TIP3    H170661   2.618   5.558  15.169 -0.0252 -1.4666 -1.6544
16390TIP3    H270662   2.590   5.503  15.307 -0.0044  1.3361 -0.4792
16391TIP3   OH270663   6.224   5.099  15.117  0.4184 -0.6368  0.0121
16391TIP3    H170664   6.168   5.112  15.041 -1.8200 -2.3488  1.2345
16391TIP3    H270665   6.196   5.165  15.180  0.5475 -0.7931  0.2357
16392TIP3   OH270666   4.052   1.205  14.865 -0.1904 -0.1620 -0.3618
16392TIP3    H170667   4.073   1.158  14.784  1.1810  0.7632 -0.5721
16392TIP3    H270668   3.977   1.158  14.900 -0.9567 -0.4686 -2.2692
16393TIP3   OH270669   3.369   1.094  16.442 -0.6361  0.6656  0.2945
16393TIP3    H170670   3.391   1.183  16.471 -0.0847  0.5104  0.3546
16393TIP3    H270671   3.333   1.051  16.520  0.4213  0.3913  0.6415
16394TIP3   OH270672   4.304   0.139   0.514  0.4520 -0.4988  0.0564
16394TIP3    H170673   4.224   0.113   0.560 -0.5769 -0.0583 -1.4083
16394TIP3    H270674   4.367   0.070   0.536 -0.4612 -1.1166  0.8531
16395TIP3   OH270675   5.846   1.013  12.076 -0.0892  0.5683 -0.1491
16395TIP3    H170676   5.797   0.941  12.115 -0.0079  0.9040  0.5874
16395TIP3    H270677   5.822   1.090  12.128  1.0833  0.7706  0.1175
16396TIP3   OH270678   0.162   0.531  12.037 -0.1340  0.0550  0.5665
16396TIP3    H170679   0.151   0.436  12.036 -1.5622  0.2040  0.4491
16396TIP3    H270680   0.126   0.559  12.121 -0.3938  0.5595  0.2967
16397TIP3   OH270681   1.754   4.473   3.714  0.0070 -0.0069  0.0986
16397TIP3    H170682   1.806   4.534   3.767  1.2341 -0.0369 -1.0153
16397TIP3    H270683   1.798   4.472   3.629 -0.8124 -1.3849 -0.3379
16398TIP3   OH270684   2.973   3.935   2.994 -0.0367  0.8222  0.8246
16398TIP3    H170685   2.999   4.015   2.947  2.2761 -0.0330  0.5268
16398TIP3    H270686   3.052   3.881   2.995 -1.9218 -2.2749 -0.5754
16399TIP3   OH270687   5.540   0.162   4.939 -0.3504  0.0107 -0.5813
16399TIP3    H170688   5.526   0.156   4.844 -1.6644  2.1015 -0.5631
16399TIP3    H270689   5.583   0.079   4.961  0.3424 -0.3841 -3.0450
16400TIP3   OH270690   3.225   4.459   1.993  0.2257  0.7595  0.0147
16400TIP3    H170691   3.135   4.484   1.975 -0.4225  0.2385  2.2967
16400TIP3    H270692   3.263   4.444   1.906 -2.5275 -1.3114 -0.9647
16401TIP3   OH270693   2.323   6.813   1.758 -0.2924  0.0345  0.3250
16401TIP3    H170694   2.308   6.723   1.727 -0.9500  0.8699 -2.0168
16401TIP3    H270695   2.251   6.830   1.818 -0.4144 -0.8421  0.4491
16402TIP3   OH270696   3.226   2.653  14.069 -0.0214 -0.0975  1.1253
16402TIP3    H170697   3.269   2.647  14.154 -1.9263  1.1682  2.2470
16402TIP3    H270698   3.150   2.710  14.084  0.5200  1.5959 -1.8049
16403TIP3   OH270699   5.135   5.826  12.467  0.1754  0.0486 -0.6112
16403TIP3    H170700   5.207   5.764  12.480  1.1151  1.2354 -0.0339
16403TIP3    H270701   5.110   5.815  12.375  1.0740 -0.3959 -0.8125
16404TIP3   OH270702   5.139   3.447  11.825  0.2394  0.1231 -0.4026
16404TIP3    H170703   5.142   3.404  11.911 -2.8523  0.2974 -0.0819
16404TIP3    H270704   5.125   3.539  11.845 -1.6357  0.0122 -1.0127
16405TIP3   OH270705   4.640   2.951   4.237 -0.6240 -0.1558  0.2206
16405TIP3    H170706   4.550   2.974   4.214 -0.6970 -0.4628  0.1962
16405TIP3    H270707   4.666   2.888   4.170  0.2473  1.3063 -0.8890
16406TIP3   OH270708   0.877   1.683   2.415  0.3217 -0.0441  0.2256
16406TIP3    H170709   0.798   1.678   2.361  1.0197  0.3586 -0.8577
16406TIP3    H270710   0.926   1.604   2.393  0.2639 -0.2549  0.8413
16407TIP3   OH270711   1.359   3.239  14.548 -0.2243  0.4619 -0.4337
16407TIP3    H170712   1.311   3.157  14.552  0.8863 -0.4161 -2.8325
16407TIP3    H270713   1.292   3.307  14.556 -1.1712 -0.6354  1.4992
16408TIP3   OH270714   1.698   0.630  15.508  0.1055  0.5822 -0.2648
16408TIP3    H170715   1.755   0.634  15.585  1.5755 -0.7166 -1.2186
16408TIP3    H270716   1.616   0.593  15.540  1.2904 -1.6204  0.3941
16409TIP3   OH270717   2.303   3.877  15.529 -0.1451 -0.1164  0.3426
16409TIP3    H170718   2.303   3.931  15.608 -0.7203 -1.5194  1.3427
16409TIP3    H270719   2.393   3.881  15.497  0.0683  0.5555  0.9922
16410TIP3   OH270720   1.262   6.220   2.626 -0.7098 -0.0778  0.7397
16410TIP3    H170721   1.229   6.302   2.591  1.0744 -0.0646 -1.1061
16410TIP3    H270722   1.356   6.222   2.606 -0.2543 -1.6663  2.4875
16411TIP3   OH270723   3.019   5.609  15.381 -0.0931  0.0762  0.0649
16411TIP3    H170724   3.005   5.701  15.357  2.0098  0.5562  0.4877
16411TIP3    H270725   2.931   5.576  15.399 -1.1860  1.2727 -2.5608
16412TIP3   OH270726   2.051   1.119   3.986  0.0776 -0.1307  0.4776
16412TIP3    H170727   1.956   1.128   3.995  0.3066  0.5814  3.1476
16412TIP3    H270728   2.062   1.045   3.927 -2.0992  0.3309 -0.6513
16413TIP3   OH270729   6.381   2.394  10.932 -0.2562  0.6534  0.0858
16413TIP3    H170730   6.286   2.389  10.929 -0.2278 -0.7292  0.5671
16413TIP3    H270731   6.406   2.449  10.858 -1.4670  1.8064  0.5089
16414TIP3   OH270732   2.486   5.353  16.635 -0.1481  0.5200  0.8105
16414TIP3    H170733   2.527   5.267  16.636 -0.3161  0.3998 -0.5788
16414TIP3    H270734   2.443   5.360  16.721 -0.8466 -1.1281  0.6410
16415TIP3   OH270735   5.570   5.782   3.600 -0.2769  0.3165  1.5429
16415TIP3    H170736   5.634   5.808   3.667  0.9462  0.2048  0.4538
16415TIP3    H270737   5.575   5.852   3.535 -0.8196 -0.0144  1.1511
16416TIP3   OH270738   3.431   5.101   1.231  0.1461  0.4617  0.0002
16416TIP3    H170739   3.511   5.048   1.239  1.1634  1.9730  0.4276
16416TIP3    H270740   3.361   5.038   1.218  0.8831 -1.1992  3.1935
16417TIP3   OH270741   0.835   3.311   6.192 -0.8944  0.0344 -0.0024
16417TIP3    H170742   0.902   3.285   6.255 -0.3848  1.1869 -0.0491
16417TIP3    H270743   0.818   3.232   6.141 -1.8144 -1.1448  1.9876
16418TIP3   OH270744   0.422   4.705   1.561  0.3608 -0.2742 -0.4841
16418TIP3    H170745   0.328   4.717   1.575  0.3486 -0.0990 -0.7132
16418TIP3    H270746   0.445   4.629   1.615  0.0404 -0.4646 -0.6124
16419TIP3   OH270747   3.275   1.586  11.919  0.0958  0.3420  0.0880
16419TIP3    H170748   3.317   1.660  11.876  1.6370 -0.5934 -0.0737
16419TIP3    H270749   3.313   1.583  12.006 -0.5701  0.2330  0.3842
16420TIP3   OH270750   2.374   1.728  12.700 -0.7520  0.4695 -0.0592
16420TIP3    H170751   2.386   1.658  12.636 -1.2961  0.1115  0.2169
16420TIP3    H270752   2.280   1.727  12.719 -0.6787  0.9126  0.3562
16421TIP3   OH270753   3.235   4.819  14.773  0.6166 -0.5203  0.2735
16421TIP3    H170754   3.320   4.855  14.798  0.2413 -1.3990  3.1248
16421TIP3    H270755   3.251   4.779  14.687  3.0719 -0.6617  0.7220
16422TIP3   OH270756   4.251   3.414  12.474  0.0368  0.9306  0.0271
16422TIP3    H170757   4.232   3.503  12.444 -0.4302  0.6898 -0.4115
16422TIP3    H270758   4.165   3.372  12.479  0.2002  0.6723  0.7813
16423TIP3   OH270759   6.591   3.957   1.883 -0.7850  0.0472  0.1686
16423TIP3    H170760   6.659   3.918   1.938 -0.0256  2.6924  1.2264
16423TIP3    H270761   6.552   4.025   1.937 -0.2969  2.5001 -2.3544
16424TIP3   OH270762   2.251   1.156   5.375  0.0804  0.1059 -0.3505
16424TIP3    H170763   2.194   1.231   5.391  0.9364  0.7733 -0.3692
16424TIP3    H270764   2.222   1.090   5.439  0.7280  1.2315  1.1761
16425TIP3   OH270765   2.132   2.381   3.484  0.2969  0.0156  0.0752
16425TIP3    H170766   2.221   2.360   3.511  0.6771  0.6544 -0.6456
16425TIP3    H270767   2.083   2.386   3.566  0.3065 -2.8859  0.3781
16426TIP3   OH270768   4.476   3.124  11.786  0.8543 -0.3126  0.2813
16426TIP3    H170769   4.459   3.125  11.692 -0.8900  2.1814  0.5375
16426TIP3    H270770   4.415   3.059  11.820  0.6091 -0.3142 -0.1512
16427TIP3   OH270771   3.782   0.516  14.387  0.4447  0.1488 -0.6246
16427TIP3    H170772   3.872   0.528  14.358  0.6607 -2.0527 -1.0371
16427TIP3    H270773   3.729   0.531  14.308  0.5456  0.3121 -0.6605
16428TIP3   OH270774   6.166   0.781   1.186  0.1865  0.1886  0.1238
16428TIP3    H170775   6.123   0.858   1.223  1.1206 -0.4861  2.8172
16428TIP3    H270776   6.096   0.737   1.136 -1.5473  0.5496  2.0956
16429TIP3   OH270777   6.508   6.064   1.338 -0.0438 -0.0577  0.7091
16429TIP3    H170778   6.470   6.027   1.417  1.5207  0.6538  1.8288
16429TIP3    H270779   6.527   6.155   1.360  0.5207  0.1339 -0.4652
16430TIP3   OH270780   1.015   3.901   1.167 -0.1088 -0.1113  0.2439
16430TIP3    H170781   0.978   3.983   1.134  0.9898  0.6159  0.7551
16430TIP3    H270782   0.978   3.892   1.255  0.8107  0.5515  0.7078
16431TIP3   OH270783   3.916   1.903  14.389 -0.0196  0.5096  0.3134
16431TIP3    H170784   3.838   1.922  14.442 -0.3239  0.7505 -0.2177
16431TIP3    H270785   3.972   1.980  14.399 -0.2886  0.7621 -0.0906
16432TIP3   OH270786   6.738   4.762  15.096  0.1488 -0.0434 -0.0724
16432TIP3    H170787   6.706   4.812  15.021  1.0202  1.5949  0.5873
16432TIP3    H270788   6.811   4.711  15.062  0.1239  0.1894 -0.4713
16433TIP3   OH270789   3.729   4.012   3.257  0.5324  0.3545  0.1330
16433TIP3    H170790   3.662   3.989   3.322 -0.5574 -0.6853 -1.3087
16433TIP3    H270791   3.706   4.101   3.230 -0.2088  0.0494 -0.2620
16434TIP3   OH270792   2.787   5.239  11.235 -0.1014 -0.1263 -0.5096
16434TIP3    H170793   2.866   5.199  11.198 -0.4127 -0.6131 -0.6729
16434TIP3    H270794   2.733   5.164  11.261 -1.2136  0.1302 -1.9093
16435TIP3   OH270795   6.293   2.352  11.215  0.0331 -0.0061  0.4407
16435TIP3    H170796   6.358   2.379  11.280  1.1205 -2.3985  0.4443
16435TIP3    H270797   6.333   2.374  11.131 -0.6930  1.6414  0.4862
16436TIP3   OH270798   4.716   5.259  15.296  0.2047 -0.2887 -0.1421
16436TIP3    H170799   4.669   5.177  15.278  0.1559 -0.3639  0.3308
16436TIP3    H270800   4.729   5.259  15.391 -1.2270  1.0217  0.0928
16437TIP3   OH270801   4.603   1.504   1.363  0.0622 -1.1866  0.1947
16437TIP3    H170802   4.539   1.497   1.434  0.9913 -1.5942  1.0184
16437TIP3    H270803   4.582   1.432   1.304 -2.1721  0.4851 -1.2260
16438TIP3   OH270804   0.693   5.973   1.503  0.1648 -0.0813 -0.2620
16438TIP3    H170805   0.601   5.989   1.525  0.3886 -0.2514  0.8394
16438TIP3    H270806   0.699   5.995   1.410 -0.4622  2.2209  0.1833
16439TIP3   OH270807   4.309   3.059  14.569 -0.3906  0.0290  0.3478
16439TIP3    H170808   4.238   3.002  14.598  0.4508 -1.0953  0.2851
16439TIP3    H270809   4.347   3.013  14.494  0.1980  0.7672  0.1875
16440TIP3   OH270810   0.598   4.784   5.186  0.0941  0.0367 -0.1548
16440TIP3    H170811   0.578   4.747   5.272  1.8997  0.4475  0.4923
16440TIP3    H270812   0.601   4.708   5.127  1.3814 -0.6025  0.6851
16441TIP3   OH270813   5.779   4.219  13.686  0.3553 -0.3186 -0.4578
16441TIP3    H170814   5.853   4.265  13.726 -0.7589  1.6438 -0.5332
16441TIP3    H270815   5.814   4.133  13.663  1.8054 -0.5199  2.1127
16442TIP3   OH270816   3.237   4.780  17.151 -0.4946 -0.1390 -0.2021
16442TIP3    H170817   3.302   4.784  17.080 -0.7447  0.1255 -0.4186
16442TIP3    H270818   3.286   4.805  17.229 -0.3113 -0.0278 -0.3498
16443TIP3   OH270819   5.054   3.342   4.195 -0.0541 -0.2152 -0.0180
16443TIP3    H170820   5.116   3.370   4.263  0.9543 -0.2778 -0.8789
16443TIP3    H270821   4.973   3.325   4.242  1.3169 -2.8787  1.6103
16444TIP3   OH270822   5.296   2.964   4.861  0.3375 -0.4888 -0.1549
16444TIP3    H170823   5.357   2.895   4.834 -0.1915 -1.9340  2.0686
16444TIP3    H270824   5.219   2.917   4.895 -1.9641  1.2534 -2.5362
16445TIP3   OH270825   3.154   4.831  14.022  0.1128 -0.1634  0.3543
16445TIP3    H170826   3.076   4.852  14.072  0.8480  1.8446  0.7935
16445TIP3    H270827   3.178   4.914  13.979  0.5893 -1.3391 -1.7986
16446TIP3   OH270828   2.366   1.594  16.615 -0.0777  0.5124 -0.4867
16446TIP3    H170829   2.448   1.544  16.612  0.1726  0.9657 -1.5930
16446TIP3    H270830   2.336   1.586  16.706  1.3537  0.6064  0.0122
16447TIP3   OH270831   1.025   6.232  14.054 -0.4127 -0.1687  0.0898
16447TIP3    H170832   0.968   6.253  13.981 -0.3975  1.0991  0.4178
16447TIP3    H270833   0.966   6.199  14.122 -0.5505 -0.3853 -0.1357
16448TIP3   OH270834   6.339   5.636   2.806 -0.0659  0.1998 -0.2083
16448TIP3    H170835   6.365   5.557   2.758  0.3281  0.6887 -0.8023
16448TIP3    H270836   6.303   5.602   2.889  0.3202 -0.5910 -0.3519
16449TIP3   OH270837   6.323   6.818   4.247 -0.2829  0.1638 -0.2991
16449TIP3    H170838   6.400   6.820   4.304 -0.2679  1.3106 -0.3410
16449TIP3    H270839   6.250   6.799   4.306  0.1181 -1.8853 -0.3938
16450TIP3   OH270840   3.603   6.273  12.572  0.2635  0.4712 -0.1226
16450TIP3    H170841   3.603   6.272  12.476 -0.4295  0.0745 -0.1282
16450TIP3    H270842   3.519   6.312  12.595 -0.0443 -0.4074  0.3104
16451TIP3   OH270843   5.033   3.662   0.672 -0.0599  0.0807 -0.5717
16451TIP3    H170844   5.087   3.739   0.691 -0.1717  0.1356 -0.4812
16451TIP3    H270845   5.025   3.661   0.577  1.6207 -0.9369 -0.7490
16452TIP3   OH270846   1.746   0.099  10.804 -0.0369  0.6133  0.0959
16452TIP3    H170847   1.667   0.126  10.758 -0.1980  0.9565  0.5665
16452TIP3    H270848   1.797   0.050  10.739 -0.3058  1.0029 -0.4084
16453TIP3   OH270849   6.746   5.800  14.971 -0.2657  0.3002  0.3513
16453TIP3    H170850   6.694   5.869  14.930 -1.2926 -1.6033 -1.7852
16453TIP3    H270851   6.792   5.758  14.898  1.9919 -0.0148  1.8346
16454TIP3   OH270852   6.529   5.216  13.374  0.5619  0.1237 -0.2317
16454TIP3    H170853   6.437   5.237  13.390  0.3329 -0.4206 -0.7779
16454TIP3    H270854   6.578   5.269  13.438 -0.0852  0.9484 -0.4029
16455TIP3   OH270855   0.243   5.466  13.958  0.2412  0.4152 -0.5531
16455TIP3    H170856   0.219   5.533  14.022 -1.5240 -0.9352  0.2891
16455TIP3    H270857   0.192   5.489  13.880 -1.1468 -0.4622  0.0656
16456TIP3   OH270858   2.645   2.499   5.034  0.6259  0.0363 -0.1038
16456TIP3    H170859   2.583   2.452   4.979  0.1143 -1.6555  1.7950
16456TIP3    H270860   2.731   2.466   5.006  0.4464 -0.0861 -0.5251
16457TIP3   OH270861   4.896   2.912  12.299 -0.4195  0.3356 -0.1026
16457TIP3    H170862   4.919   2.822  12.275  0.2570  0.4248  0.1877
16457TIP3    H270863   4.899   2.914  12.394 -2.2888  0.2013 -0.0071
16458TIP3   OH270864   1.425   6.192   5.385  0.2238  0.0064 -0.1350
16458TIP3    H170865   1.341   6.193   5.338 -0.8786  0.1974  1.7054
16458TIP3    H270866   1.450   6.284   5.391 -0.2742  0.1038  0.6591
16459TIP3   OH270867   3.700   1.480   5.427  0.2367 -0.3652  0.1810
16459TIP3    H170868   3.628   1.417   5.427  0.0347 -0.1367  0.6088
16459TIP3    H270869   3.741   1.469   5.512  1.7968 -1.7105 -0.6869
16460TIP3   OH270870   4.566   1.020   4.690 -0.1617  0.4556  0.2548
16460TIP3    H170871   4.620   1.065   4.755 -2.3800  3.1781  0.3849
16460TIP3    H270872   4.485   1.070   4.687 -2.1569 -2.5350 -0.9975
16461TIP3   OH270873   3.707   1.698  14.286  0.1985  0.0669 -0.8276
16461TIP3    H170874   3.799   1.701  14.313 -0.0520 -0.7075  0.2041
16461TIP3    H270875   3.693   1.780  14.238  1.0641  0.8454  0.1993
16462TIP3   OH270876   2.089   0.715  13.343  0.1671 -0.3488  0.3145
16462TIP3    H170877   2.097   0.641  13.403 -1.2703 -1.2594 -0.5495
16462TIP3    H270878   2.113   0.680  13.257 -0.2771  0.2391 -0.0624
16463TIP3   OH270879   2.559   5.963  14.903 -0.4206  0.5623 -0.2291
16463TIP3    H170880   2.469   5.947  14.876 -0.4529  2.5958 -1.5639
16463TIP3    H270881   2.554   5.979  14.997 -1.1632 -1.0654  0.0360
16464TIP3   OH270882   5.066   2.301  14.314  0.7035 -0.0499 -0.0629
16464TIP3    H170883   5.088   2.328  14.225  0.5052 -1.4271 -0.5576
16464TIP3    H270884   5.034   2.381  14.357  0.1353  0.4797 -1.4351
16465TIP3   OH270885   5.484   1.604   2.781  0.3580  0.6283 -0.0248
16465TIP3    H170886   5.390   1.589   2.787  0.4712 -2.0044 -2.5730
16465TIP3    H270887   5.523   1.527   2.823  1.3140  0.4830 -1.1406
16466TIP3   OH270888   3.349   2.473   2.858 -0.4129 -0.1729  0.2788
16466TIP3    H170889   3.273   2.424   2.887  0.6024 -1.7895  0.3376
16466TIP3    H270890   3.315   2.536   2.795 -1.7664 -0.9585  0.1879
16467TIP3   OH270891   2.869   1.981  16.500 -0.3715  0.0083 -0.3559
16467TIP3    H170892   2.832   1.920  16.436 -0.6824 -0.0987 -0.0800
16467TIP3    H270893   2.824   2.064  16.482 -0.5420 -0.0512 -0.1999
16468TIP3   OH270894   1.472   0.869  15.011 -0.1956 -0.0710  0.9714
16468TIP3    H170895   1.448   0.781  15.039 -0.9860 -0.0663  0.3447
16468TIP3    H270896   1.524   0.856  14.932  1.9823 -0.0825  2.3534
16469TIP3   OH270897   2.386   2.857   2.598 -0.6194 -0.3591 -0.3151
16469TIP3    H170898   2.474   2.886   2.622 -1.4433  1.8809  0.3430
16469TIP3    H270899   2.365   2.789   2.663  0.3823 -0.4729 -0.0899
16470TIP3   OH270900   1.559   4.527  13.819 -0.0043 -0.3970  0.1755
16470TIP3    H170901   1.470   4.508  13.848 -0.5902  1.5053 -0.2367
16470TIP3    H270902   1.574   4.618  13.845  1.1767 -0.1333 -1.2660
16471TIP3   OH270903   2.947   2.414  13.007 -0.3904  0.1903 -0.3209
16471TIP3    H170904   3.017   2.451  12.953  0.5967 -1.0381  0.0869
16471TIP3    H270905   2.983   2.333  13.043 -0.6437  1.3877  2.9865
16472TIP3   OH270906   1.974   2.353  13.407  0.2996  0.1826  0.1666
16472TIP3    H170907   2.056   2.388  13.440 -0.2707 -0.0718  1.9835
16472TIP3    H270908   1.933   2.312  13.483 -1.1514 -0.3864 -0.8661
16473TIP3   OH270909   2.813   2.415  13.669  0.4052  0.0054  0.1369
16473TIP3    H170910   2.812   2.496  13.618  2.4656 -0.1442 -0.2201
16473TIP3    H270911   2.862   2.353  13.615 -1.8291 -1.7986  0.0141
16474TIP3   OH270912   3.201   3.295   0.756  0.0374 -0.4376  0.4175
16474TIP3    H170913   3.222   3.269   0.666 -0.6522 -0.4943  0.2654
16474TIP3    H270914   3.212   3.390   0.757 -0.4536 -0.3755  0.1321
16475TIP3   OH270915   1.005   2.327  15.594 -0.3160 -0.1703  0.0760
16475TIP3    H170916   1.066   2.257  15.569  0.9860  0.2214  1.9910
16475TIP3    H270917   0.958   2.292  15.669 -1.9413 -0.1507 -0.8888
16476TIP3   OH270918   2.956   3.705  15.452  0.5663  0.0322 -0.0703
16476TIP3    H170919   2.921   3.647  15.520 -1.9957 -0.9991 -2.0934
16476TIP3    H270920   3.043   3.727  15.482  0.5785 -2.5903  2.2199
16477TIP3   OH270921   1.615   1.225   2.977  0.1214  0.2225  0.2348
16477TIP3    H170922   1.668   1.290   3.023  2.7643 -0.7823 -1.1669
16477TIP3    H270923   1.601   1.155   3.041 -0.3144  0.8834  0.8814
16478TIP3   OH270924   3.668   1.668   2.708  0.2470 -0.0301  0.2237
16478TIP3    H170925   3.573   1.676   2.710  0.1958 -0.2772 -0.5964
16478TIP3    H270926   3.692   1.636   2.795 -0.3956  0.2545  0.5098
16479TIP3   OH270927   3.254   3.261   0.460  0.0800 -0.4712  0.1187
16479TIP3    H170928   3.215   3.191   0.407 -1.5117 -0.2037  0.8822
16479TIP3    H270929   3.220   3.342   0.422  2.9013  0.0409 -1.5520
16480TIP3   OH270930   5.260   3.613   3.447  0.1668  0.1640 -0.1405
16480TIP3    H170931   5.322   3.543   3.423  1.5703  1.4961 -0.5570
16480TIP3    H270932   5.239   3.597   3.539  2.2945  0.4859  0.4506
16481TIP3   OH270933   3.474   5.552   4.196 -0.1722 -0.3365  0.3323
16481TIP3    H170934   3.486   5.464   4.161 -1.6137  0.3414 -2.2119
16481TIP3    H270935   3.546   5.603   4.159 -1.0748  0.1503 -0.8495
16482TIP3   OH270936   3.635   5.527  13.141  0.3881  0.2098  0.3797
16482TIP3    H170937   3.629   5.586  13.066  1.2563  1.0499  0.9564
16482TIP3    H270938   3.550   5.482  13.142 -0.4959  1.7998  0.2103
16483TIP3   OH270939   5.250   1.342   0.344 -0.8584 -0.5022 -0.3188
16483TIP3    H170940   5.197   1.388   0.279 -1.0794  0.3568  0.4528
16483TIP3    H270941   5.242   1.250   0.321 -0.4967 -0.1816 -1.8380
16484TIP3   OH270942   5.802   5.404   3.293  0.2466 -0.0862  0.3289
16484TIP3    H170943   5.787   5.451   3.375 -0.5528  0.1057  0.0826
16484TIP3    H270944   5.716   5.401   3.251  0.2011 -2.0517  0.4691
16485TIP3   OH270945   6.454   1.948   6.288  0.4350 -0.6628  0.1798
16485TIP3    H170946   6.464   1.853   6.292  0.5536 -0.6686 -0.2273
16485TIP3    H270947   6.532   1.982   6.331  0.8041 -0.7444 -0.4078
16486TIP3   OH270948   0.087   2.174   6.628  0.1274 -0.3222  0.1864
16486TIP3    H170949   0.121   2.217   6.706 -2.4618  2.3508  0.0187
16486TIP3    H270950   0.135   2.214   6.555  0.2344 -0.3454  0.2456
16487TIP3   OH270951   5.702   4.889  13.766 -0.0366  0.3186 -0.5313
16487TIP3    H170952   5.651   4.817  13.728  2.7609 -1.1333 -1.9046
16487TIP3    H270953   5.716   4.949  13.693  1.0721  0.1218 -0.5009
16488TIP3   OH270954   6.533   5.476  13.919 -0.0905 -0.2707  0.1967
16488TIP3    H170955   6.490   5.458  14.003 -0.7421 -0.3557 -0.1509
16488TIP3    H270956   6.569   5.392  13.892 -1.3514 -0.6492 -0.4201
16489TIP3   OH270957   2.965   0.111  16.350  0.0687  0.5398  0.3011
16489TIP3    H170958   3.014   0.184  16.387 -1.3190  2.0213 -0.6379
16489TIP3    H270959   2.904   0.084  16.419  0.4145  0.4334  0.5640
16490TIP3   OH270960   2.159   5.527   0.435 -0.2276  0.2510 -0.3778
16490TIP3    H170961   2.176   5.437   0.408 -0.2397  0.6609 -1.7970
16490TIP3    H270962   2.242   5.573   0.420 -0.2917  0.5439  0.1216
16491TIP3   OH270963   3.632   4.252   3.781  0.5520 -0.5490  0.4166
16491TIP3    H170964   3.658   4.343   3.764  1.5708 -0.7141  0.9552
16491TIP3    H270965   3.583   4.256   3.863  1.9907 -0.6513  1.3290
16492TIP3   OH270966   0.651   5.477   5.754  0.0252  0.2649 -0.0794
16492TIP3    H170967   0.560   5.478   5.725  0.2094  1.3111 -0.6821
16492TIP3    H270968   0.656   5.404   5.815 -1.3215  0.4622  0.2997
16493TIP3   OH270969   1.555   0.962  16.346  0.1533 -0.2147 -0.2850
16493TIP3    H170970   1.544   1.028  16.277  1.4133 -0.9104 -1.1894
16493TIP3    H270971   1.600   1.007  16.417  0.0173  0.1702 -0.4426
16494TIP3   OH270972   3.967   4.097   4.125 -0.1297  0.1146  0.3340
16494TIP3    H170973   3.979   4.142   4.041 -0.0242 -0.1713  0.1929
16494TIP3    H270974   3.874   4.074   4.128 -0.6964  2.2948  1.4066
16495TIP3   OH270975   5.069   3.424  13.635 -0.2718  0.8827 -0.5675
16495TIP3    H170976   5.073   3.411  13.540  1.7607 -0.6817 -0.3362
16495TIP3    H270977   5.160   3.412  13.664 -1.2086 -1.0966  1.8465
16496TIP3   OH270978   3.399   4.720   2.812  0.1152  0.2031  0.8211
16496TIP3    H170979   3.475   4.749   2.861  1.0900 -0.2829 -0.3613
16496TIP3    H270980   3.435   4.677   2.734 -1.3756  0.8183 -0.2510
16497TIP3   OH270981   4.910   2.098  15.770  0.0530  0.1097  0.1161
16497TIP3    H170982   4.975   2.150  15.722  1.5536 -0.1847  1.7074
16497TIP3    H270983   4.870   2.042  15.704 -0.1036  1.8058 -1.2696
16498TIP3   OH270984   4.640   3.110   0.149 -0.1805 -0.2465 -0.1963
16498TIP3    H170985   4.570   3.045   0.150  0.1586 -0.7392 -2.6188
16498TIP3    H270986   4.711   3.068   0.101  0.6495  1.3378 -0.4100
16499TIP3   OH270987   2.863   0.461   3.659 -0.2380  0.0039  0.0966
16499TIP3    H170988   2.906   0.546   3.668 -2.0870  0.8875  1.1352
16499TIP3    H270989   2.771   0.482   3.641 -0.9530 -1.7368  1.4054
16500TIP3   OH270990   6.099   1.004  16.066 -0.0610  0.2041  0.2394
16500TIP3    H170991   6.092   0.932  16.003  1.2062  1.3597 -1.3041
16500TIP3    H270992   6.174   1.056  16.035 -0.7953  2.0639  1.4191
16501TIP3   OH270993   4.044   3.617  15.528  0.3064  0.2430 -0.4294
16501TIP3    H170994   3.960   3.573  15.518  1.0704 -1.9498  1.8516
16501TIP3    H270995   4.106   3.561  15.483  1.0246 -0.0207  0.8564
16502TIP3   OH270996   5.600   5.815  12.725 -0.6215  0.0705  0.2732
16502TIP3    H170997   5.653   5.895  12.727 -2.3704  1.2852  2.3221
16502TIP3    H270998   5.642   5.757  12.788 -2.0256  1.3486  2.5292
16503TIP3   OH270999   2.753   4.042  11.899 -0.6772 -0.1407 -0.0683
16503TIP3    H171000   2.834   4.074  11.939 -0.8425 -0.9391  0.9533
16503TIP3    H271001   2.712   4.120  11.862  0.6677  0.2453 -0.8320
16504TIP3   OH271002   3.768   4.315   0.399  0.2065 -0.1311  0.2942
16504TIP3    H171003   3.735   4.228   0.421 -0.4816  0.2029  0.6375
16504TIP3    H271004   3.829   4.301   0.327 -0.3583 -0.8310 -0.0622
16505TIP3   OH271005   2.549   5.690   2.007 -0.4716  0.1292 -0.1858
16505TIP3    H171006   2.523   5.689   1.915 -0.8018 -0.4539 -0.0906
16505TIP3    H271007   2.466   5.689   2.056 -0.4057 -3.5873  0.1436
16506TIP3   OH271008   0.143   4.611  10.774  0.1702 -0.2297 -0.2138
16506TIP3    H171009   0.147   4.597  10.679 -3.0835  0.9934 -0.6773
16506TIP3    H271010   0.050   4.599  10.795  0.9616 -1.5292  3.0524
16507TIP3   OH271011   6.510   2.823  14.104 -0.6420 -0.2629  0.2908
16507TIP3    H171012   6.574   2.774  14.052 -0.2043 -2.0014  2.3559
16507TIP3    H271013   6.443   2.759  14.127 -1.6169  0.8393  0.6542
16508TIP3   OH271014   6.179   2.055   5.164  0.5107  0.1969 -0.0787
16508TIP3    H171015   6.228   2.027   5.087  0.2908  0.3011 -0.2559
16508TIP3    H271016   6.226   2.015   5.238  1.0981  0.6399 -0.2131
16509TIP3   OH271017   0.454   5.843  17.083 -0.4959 -0.1154 -0.7189
16509TIP3    H171018   0.531   5.797  17.049 -0.9238 -0.3385 -1.4209
16509TIP3    H271019   0.396   5.851  17.007 -0.8701  0.6719 -0.3625
16510TIP3   OH271020   2.018   0.735  15.297  0.1338  0.0399  1.1293
16510TIP3    H171021   2.057   0.721  15.383  1.0008 -1.9630  0.4560
16510TIP3    H271022   2.046   0.823  15.273  2.1768 -0.3776  1.7541
16511TIP3   OH271023   4.971   6.372   1.690  0.1495  0.1971 -0.2103
16511TIP3    H171024   4.928   6.327   1.618  0.2247 -2.0679  1.0621
16511TIP3    H271025   5.023   6.304   1.733  5.1501  2.6875 -1.5823
16512TIP3   OH271026   0.978   0.731  13.009  0.3845  0.4951 -0.0112
16512TIP3    H171027   1.029   0.671  12.956 -0.9800  0.3704 -1.2432
16512TIP3    H271028   0.943   0.795  12.948 -2.2482 -0.3682  0.4640
16513TIP3   OH271029   5.382   2.046  16.413  0.1411  0.1592  0.1851
16513TIP3    H171030   5.361   1.954  16.426 -0.6490  0.3739  0.4386
16513TIP3    H271031   5.469   2.056  16.452  0.2544 -0.4886  0.1061
16514TIP3   OH271032   1.973   5.320  11.669 -0.2147 -0.1608 -0.2686
16514TIP3    H171033   2.008   5.321  11.580 -2.1010  0.2589 -1.0627
16514TIP3    H271034   2.006   5.239  11.707  0.1868 -0.6304 -1.5462
16515TIP3   OH271035   0.312   6.392   6.084  0.4920  0.2468  0.3526
16515TIP3    H171036   0.218   6.376   6.072  1.0208 -1.6699 -2.3683
16515TIP3    H271037   0.317   6.483   6.113 -2.1484  1.0628 -1.3141
16516TIP3   OH271038   6.566   2.198  15.486  0.0705  0.5824 -0.3512
16516TIP3    H171039   6.650   2.231  15.454 -0.7896  2.6756 -0.5626
16516TIP3    H271040   6.551   2.245  15.568  0.2935 -1.7066  1.0979
16517TIP3   OH271041   5.731   3.719  15.065 -0.4290 -0.3512  0.0389
16517TIP3    H171042   5.657   3.780  15.071  0.1541  0.3133  0.7005
16517TIP3    H271043   5.806   3.769  15.097  0.1917 -1.2153 -0.0318
16518TIP3   OH271044   3.226   3.319   0.095 -0.0012 -0.1098  0.0188
16518TIP3    H171045   3.281   3.245   0.120  1.3076  0.9566  0.4153
16518TIP3    H271046   3.205   3.363   0.177 -3.4092 -1.7088  0.1920
16519TIP3   OH271047   1.087   1.030  11.450  0.5101 -0.6479 -0.5096
16519TIP3    H171048   1.078   1.123  11.473  0.1251 -0.9374  0.5714
16519TIP3    H271049   1.013   1.012  11.391  0.5198 -0.2959 -0.6301
16520TIP3   OH271050   0.536   6.511  16.081  0.4569 -0.6282 -0.6942
16520TIP3    H171051   0.497   6.427  16.104 -0.0894 -0.4601 -0.9824
16520TIP3    H271052   0.473   6.576  16.112  0.8923 -0.3252 -0.4440
16521TIP3   OH271053   4.216   2.897  16.939  0.3201  0.2451 -0.0767
16521TIP3    H171054   4.299   2.925  16.901  1.5619 -1.6868  1.0531
16521TIP3    H271055   4.213   2.803  16.924 -0.1419 -0.2435  2.6467
16522TIP3   OH271056   0.319   2.800  12.514 -0.0728  0.3019  0.2470
16522TIP3    H171057   0.352   2.793  12.603 -1.1287 -0.7081  0.5776
16522TIP3    H271058   0.238   2.749  12.514 -0.9760  1.6526 -0.8613
16523TIP3   OH271059   1.679   0.158   1.295  0.1773 -0.0499  0.2628
16523TIP3    H171060   1.709   0.239   1.335  0.6842 -0.7932  1.4466
16523TIP3    H271061   1.758   0.103   1.290 -0.5760 -1.3150  1.6260
16524TIP3   OH271062   3.401   3.811  14.985  0.0448 -0.5106 -0.5749
16524TIP3    H171063   3.382   3.888  15.039 -1.1003 -0.9859 -0.2733
16524TIP3    H271064   3.476   3.769  15.028  0.0591 -0.0936 -0.1871
16525TIP3   OH271065   0.799   0.792   6.334 -0.5789  0.0450 -0.0415
16525TIP3    H171066   0.801   0.887   6.335 -0.4300  0.0430 -0.1528
16525TIP3    H271067   0.709   0.769   6.359 -0.7846  0.2224 -0.6151
16526TIP3   OH271068   1.221   2.077   5.108  0.0814  0.1491  0.6320
16526TIP3    H171069   1.153   2.021   5.145 -0.4007  0.1184 -0.2549
16526TIP3    H271070   1.172   2.148   5.066  0.6956  1.6051  2.2631
16527TIP3   OH271071   3.405   5.563   4.477 -0.2862 -0.4407  0.0333
16527TIP3    H171072   3.432   5.555   4.385 -0.7283 -1.4930 -0.0189
16527TIP3    H271073   3.371   5.653   4.484  0.8944  0.0724 -0.5048
16528TIP3   OH271074   1.823   2.569  10.889  0.2188  0.0502  0.3049
16528TIP3    H171075   1.759   2.584  10.819  0.3200 -0.2614  0.1442
16528TIP3    H271076   1.878   2.498  10.856  0.3198 -0.0392  0.6662
16529TIP3   OH271077   4.213   3.602  16.234 -0.4353  0.7053 -0.3279
16529TIP3    H171078   4.143   3.552  16.193 -0.4160  0.9648 -0.6820
16529TIP3    H271079   4.241   3.663  16.167 -0.5209  1.2579  0.1319
16530TIP3   OH271080   1.787   1.264   1.998  0.4552  0.0819  0.5308
16530TIP3    H171081   1.873   1.222   2.010  0.2836 -0.5538 -0.3581
16530TIP3    H271082   1.754   1.227   1.917 -0.3929  0.8066  0.5338
16531TIP3   OH271083   0.212   2.511  13.319 -0.1787 -0.1575  0.2910
16531TIP3    H171084   0.151   2.584  13.326 -0.2374 -0.2769  1.1667
16531TIP3    H271085   0.159   2.438  13.286 -0.0572  0.2609 -0.8541
16532TIP3   OH271086   2.505   5.040  11.862 -0.0524 -0.1843  0.6312
16532TIP3    H171087   2.472   5.087  11.938 -0.7959 -0.1647  0.3093
16532TIP3    H271088   2.475   4.950  11.875 -2.8312  0.3695 -1.0426
16533TIP3   OH271089   0.385   3.025   4.775 -0.0883 -1.1171  0.0241
16533TIP3    H171090   0.368   3.088   4.705 -1.1176 -0.9599  0.3895
16533TIP3    H271091   0.407   3.080   4.851  0.4410 -1.2635 -0.0186
16534TIP3   OH271092   4.596   2.324   4.773 -0.2461  0.1016 -0.1792
16534TIP3    H171093   4.510   2.282   4.767  0.8110 -2.1629 -0.5924
16534TIP3    H271094   4.636   2.286   4.852  1.1238 -0.4740 -1.0990
16535TIP3   OH271095   5.860   6.350  13.620  0.1830 -0.2294 -0.5071
16535TIP3    H171096   5.810   6.294  13.679 -1.1043  1.3673 -0.0119
16535TIP3    H271097   5.823   6.334  13.533 -0.4598  0.1420 -0.3043
16536TIP3   OH271098   3.851   3.427  11.621  0.9603 -0.0244  0.0815
16536TIP3    H171099   3.939   3.426  11.585  2.0641 -0.3844  2.5532
16536TIP3    H271100   3.852   3.499  11.685 -0.6596  0.2120 -0.1103
16537TIP3   OH271101   6.152   1.867   2.100  0.2052  0.0015  0.3058
16537TIP3    H171102   6.077   1.895   2.152 -1.0892  1.7675 -2.2844
16537TIP3    H271103   6.167   1.938   2.038  2.6111 -1.2926 -0.7778
16538TIP3   OH271104   6.399   3.895   5.239 -0.5213 -0.4356 -0.3006
16538TIP3    H171105   6.479   3.882   5.290  0.2627 -2.4179 -1.9119
16538TIP3    H271106   6.425   3.957   5.170 -0.6643 -0.2768 -0.2119
16539TIP3   OH271107   2.415   0.673  17.176 -0.1628 -0.2002  0.1488
16539TIP3    H171108   2.430   0.762  17.207  0.8655 -0.6582  1.0034
16539TIP3    H271109   2.475   0.663  17.102  2.4624 -1.3410  2.2842
16540TIP3   OH271110   3.718   1.985  12.700 -0.9315 -0.1062  0.0930
16540TIP3    H171111   3.659   1.910  12.702 -0.7377 -0.2403  0.8202
16540TIP3    H271112   3.720   2.017  12.790 -1.0629  0.8171 -0.2143
16541TIP3   OH271113   4.783   5.576   2.197 -0.1536 -0.6423 -0.1691
16541TIP3    H171114   4.810   5.663   2.227 -1.4915  0.2026 -1.2904
16541TIP3    H271115   4.688   5.575   2.210 -0.2232 -1.7078 -0.7054
16542TIP3   OH271116   3.644   3.368  12.782 -0.5089 -0.1343  0.4101
16542TIP3    H171117   3.694   3.382  12.862 -1.7892 -1.1918  1.4322
16542TIP3    H271118   3.614   3.455  12.757  1.5555  0.4999 -0.1016
16543TIP3   OH271119   6.749   6.420  12.912 -0.2024  0.0027 -0.0365
16543TIP3    H171120   6.723   6.491  12.970 -1.2724 -0.0429 -0.4222
16543TIP3    H271121   6.840   6.403  12.933 -0.1981  0.8696  0.7016
16544TIP3   OH271122   2.075   3.264  16.378 -0.0278  0.1705 -0.6211
16544TIP3    H171123   2.150   3.314  16.345  3.6050  0.5783  6.4776
16544TIP3    H271124   2.009   3.330  16.398 -0.0475  0.5186 -1.7498
16545TIP3   OH271125   0.812   6.305   3.546  0.1576  0.0565  0.2807
16545TIP3    H171126   0.851   6.366   3.484 -0.3012  1.3059  1.1811
16545TIP3    H271127   0.751   6.253   3.494 -0.4904  1.3186 -0.2613
16546TIP3   OH271128   1.132   2.095  14.481  0.1656  0.2038  0.1107
16546TIP3    H171129   1.147   2.134  14.567  0.0524 -0.4905  0.4525
16546TIP3    H271130   1.041   2.064  14.485  0.7458 -1.5823  0.4667
16547TIP3   OH271131   4.809   5.504  14.752  0.0053 -0.0517  0.2875
16547TIP3    H171132   4.820   5.579  14.811 -0.0596 -0.6228  1.0494
16547TIP3    H271133   4.720   5.473  14.768 -0.0637 -0.1286 -0.2212
16548TIP3   OH271134   3.464   5.392  16.297 -0.1421  0.3642  0.5864
16548TIP3    H171135   3.386   5.444  16.315 -0.7058 -0.2443 -0.0173
16548TIP3    H271136   3.499   5.369  16.383 -1.6276 -0.8155  0.8994
16549TIP3   OH271137   5.933   2.076   4.988  0.0240 -0.0813  0.3278
16549TIP3    H171138   6.004   2.063   4.924 -1.8583 -1.8742 -1.5767
16549TIP3    H271139   5.910   2.169   4.980 -0.3162 -0.2849 -1.9158
16550TIP3   OH271140   4.551   0.286  13.297  0.2794 -0.2645  0.4920
16550TIP3    H171141   4.575   0.378  13.288  0.1500 -0.0861  1.8392
16550TIP3    H271142   4.626   0.246  13.341  0.3638 -0.8261 -0.1458
16551TIP3   OH271143   4.962   2.814  15.992 -0.1598  0.5759  0.2310
16551TIP3    H171144   4.971   2.796  15.899  1.2782 -0.8417  0.6199
16551TIP3    H271145   4.884   2.870  15.998  0.4266  1.7010 -1.9180
16552TIP3   OH271146   1.446   0.972   2.067 -0.2693  0.3794  0.1411
16552TIP3    H171147   1.537   0.942   2.073 -0.3078 -0.0244 -0.9704
16552TIP3    H271148   1.442   1.017   1.982 -1.4600 -0.8648 -0.4904
16553TIP3   OH271149   1.450   2.032   4.941  0.1710 -0.3827 -0.7777
16553TIP3    H171150   1.518   2.035   5.007  0.1549  0.3767 -0.7941
16553TIP3    H271151   1.370   2.055   4.988  0.4049  1.7982 -1.3669
16554TIP3   OH271152   5.711   2.258   2.068  0.7916 -0.5269 -0.1846
16554TIP3    H171153   5.685   2.346   2.096 -0.6587 -0.8536 -0.4262
16554TIP3    H271154   5.629   2.216   2.043  1.4907 -1.8827 -0.2759
16555TIP3   OH271155   2.898   1.964   0.620  0.6976 -0.1629  0.2884
16555TIP3    H171156   2.895   2.032   0.688 -0.9145 -0.1835  0.2757
16555TIP3    H271157   2.979   1.981   0.573  2.8526 -1.2187  3.2721
16556TIP3   OH271158   1.684   5.474  11.550  0.1753  0.1874  0.2543
16556TIP3    H171159   1.708   5.555  11.595 -2.6416  0.7953  0.8527
16556TIP3    H271160   1.633   5.503  11.475  0.6953 -1.0075 -0.5858
16557TIP3   OH271161   3.018   2.632  14.715 -0.3811  0.7597 -0.6475
16557TIP3    H171162   3.082   2.563  14.697 -0.2364  1.1593 -1.7313
16557TIP3    H271163   3.012   2.682  14.634 -1.9129  0.8696 -0.5110
16558TIP3   OH271164   6.528   5.173   4.099  0.2976  0.1705 -0.3931
16558TIP3    H171165   6.492   5.256   4.070  0.6284  0.4564 -0.0086
16558TIP3    H271166   6.585   5.196   4.173  0.6030 -0.3615 -0.4527
16559TIP3   OH271167   6.227   4.250   1.191  0.3378  0.0545  0.2376
16559TIP3    H171168   6.179   4.278   1.113  0.1118 -0.8117  0.0592
16559TIP3    H271169   6.159   4.233   1.256  0.4287 -0.6817  0.1453
16560TIP3   OH271170   1.280   4.411   0.809 -0.2534  0.1698  0.0643
16560TIP3    H171171   1.246   4.383   0.724 -0.1840  0.9284 -0.2235
16560TIP3    H271172   1.260   4.339   0.868  1.8610 -1.4865 -1.0803
16561TIP3   OH271173   5.200   1.319   6.925 -0.4460 -0.2275 -0.2231
16561TIP3    H171174   5.270   1.323   6.990 -1.8148 -0.2055  1.3082
16561TIP3    H271175   5.195   1.408   6.890  1.1179 -0.5231 -1.3261
16562TIP3   OH271176   2.584   3.505  14.921  0.4162  0.1372  0.1294
16562TIP3    H171177   2.491   3.517  14.901  0.7568  0.0534 -1.6270
16562TIP3    H271178   2.613   3.590  14.953 -0.2852  0.1153  0.8705
16563TIP3   OH271179   6.490   1.687  11.348 -0.6004  0.0377  0.2594
16563TIP3    H171180   6.528   1.668  11.262 -0.7791  3.4740 -0.7233
16563TIP3    H271181   6.396   1.688  11.333 -0.6223  0.8754  0.4235
16564TIP3   OH271182   1.998   6.552  17.183  0.5250 -0.1646 -0.1541
16564TIP3    H171183   1.966   6.638  17.157 -0.4499 -0.6120 -0.4990
16564TIP3    H271184   2.070   6.570  17.243 -0.1897  0.8882  0.4224
16565TIP3   OH271185   2.660   6.356   0.898 -0.2377 -0.4266 -0.2910
16565TIP3    H171186   2.664   6.260   0.893 -0.4926 -0.4214 -0.6131
16565TIP3    H271187   2.592   6.380   0.835 -0.4042 -0.0556  0.0326
16566TIP3   OH271188   3.459   4.266   4.043  0.0628  0.1705 -0.2526
16566TIP3    H171189   3.538   4.313   4.070  2.2356 -2.3354 -1.7815
16566TIP3    H271190   3.440   4.208   4.116 -2.7668  3.2491  1.7431
16567TIP3   OH271191   4.482   4.629  12.631  0.0287 -0.1310 -0.0770
16567TIP3    H171192   4.563   4.595  12.667 -1.0374 -2.0106  0.6694
16567TIP3    H271193   4.492   4.620  12.536  0.7687 -0.1181 -0.0065
16568TIP3   OH271194   5.450   1.290  15.458  0.2264  0.1803  0.1375
16568TIP3    H171195   5.420   1.376  15.486  2.0068  0.4113  1.5115
16568TIP3    H271196   5.389   1.265  15.388 -1.5728  1.6294  1.0899
16569TIP3   OH271197   6.234   2.450  13.229  0.5624  0.1003  0.0147
16569TIP3    H171198   6.268   2.448  13.139 -0.5807  0.6696 -0.4517
16569TIP3    H271199   6.229   2.543  13.251 -0.4852  0.0243  0.1395
16570TIP3   OH271200   0.344   6.583   1.489  0.1883 -0.7779 -0.0805
16570TIP3    H171201   0.333   6.517   1.558 -0.9530  0.2812  0.8026
16570TIP3    H271202   0.264   6.636   1.495  0.5078 -0.0886 -1.6129
16571TIP3   OH271203   5.976   5.385  12.604 -0.3056 -0.1259  0.0688
16571TIP3    H171204   5.917   5.459  12.619 -0.6649 -0.8971  3.1790
16571TIP3    H271205   5.922   5.320  12.560 -0.8081  0.3789 -0.0787
16572TIP3   OH271206   6.348   4.519  16.842  0.0311  0.4707 -0.2880
16572TIP3    H171207   6.364   4.609  16.870  0.7961  0.4726 -0.6905
16572TIP3    H271208   6.274   4.490  16.895  0.7410  0.8367  0.9546
16573TIP3   OH271209   4.997   0.677   5.758 -0.1829 -0.0044  0.1010
16573TIP3    H171210   4.941   0.677   5.681  0.6783 -2.2274 -0.6048
16573TIP3    H271211   5.073   0.729   5.733 -0.1581 -0.2665 -0.3877
16574TIP3   OH271212   0.094   4.233   1.210  1.0902 -0.5633 -0.3397
16574TIP3    H171213   0.098   4.253   1.116 -0.4203  2.4807  0.1392
16574TIP3    H271214   0.022   4.170   1.217 -0.3679  0.9617 -1.0320
16575TIP3   OH271215   5.177   4.556  12.892 -0.1187 -0.0596  0.6994
16575TIP3    H171216   5.118   4.488  12.861 -0.3886  0.7647 -0.6709
16575TIP3    H271217   5.179   4.621  12.822  1.8613  0.2959  1.0133
16576TIP3   OH271218   6.536   4.680  16.478  0.1103  0.1912 -1.2230
16576TIP3    H171219   6.447   4.656  16.505  0.7732 -1.3369 -0.3186
16576TIP3    H271220   6.540   4.775  16.494 -0.5983 -0.0987  1.0215
16577TIP3   OH271221   0.649   4.997  10.644 -0.5888 -0.1661  0.3153
16577TIP3    H171222   0.649   5.083  10.603  2.5059  0.1468  0.6858
16577TIP3    H271223   0.728   4.954  10.610 -1.1162 -2.1792  1.4500
16578TIP3   OH271224   0.361   0.705  16.811  0.3262 -0.2844  0.7653
16578TIP3    H171225   0.428   0.762  16.849 -0.3055  0.3903  0.9007
16578TIP3    H271226   0.389   0.693  16.720 -0.1618  1.2813  0.3719
16579TIP3   OH271227   1.222   3.460   0.793 -0.5122  0.0661  0.4182
16579TIP3    H171228   1.303   3.425   0.830  1.1454  1.8720 -1.2190
16579TIP3    H271229   1.176   3.500   0.867  1.0255  0.6252  1.1096
16580TIP3   OH271230   0.896   4.335   6.574  0.5445 -0.1127  0.3020
16580TIP3    H171231   0.857   4.402   6.631  0.3392  0.4751 -0.5158
16580TIP3    H271232   0.973   4.377   6.537 -0.3924  0.2156 -1.3661
16581TIP3   OH271233   1.836   6.204   4.207 -0.4236  0.1311  0.0445
16581TIP3    H171234   1.760   6.260   4.192 -1.1955  0.4485  4.0607
16581TIP3    H271235   1.910   6.253   4.171 -1.6088  1.6643 -0.3869
16582TIP3   OH271236   5.759   5.791  12.975 -0.7640  0.2981 -0.1515
16582TIP3    H171237   5.803   5.735  13.038 -1.7410 -0.5775 -0.2158
16582TIP3    H271238   5.773   5.880  13.008  0.3082 -0.0148  0.2754
16583TIP3   OH271239   5.170   5.913  15.910 -0.3451 -0.1099 -0.0453
16583TIP3    H171240   5.260   5.879  15.905  0.0390  1.0007 -1.2433
16583TIP3    H271241   5.172   5.993  15.857 -1.8040  0.4781  0.7488
16584TIP3   OH271242   6.342   1.165  11.315 -0.2711  0.4461 -0.0156
16584TIP3    H171243   6.411   1.206  11.263 -1.3387  2.1310 -0.1798
16584TIP3    H271244   6.266   1.164  11.257 -1.2497  1.5801  1.1790
16585TIP3   OH271245   0.758   0.876   1.329  0.1295  0.2502 -0.0979
16585TIP3    H171246   0.811   0.951   1.301  0.4565  0.3051  0.6444
16585TIP3    H271247   0.718   0.905   1.411 -2.4055  0.8402 -1.4191
16586TIP3   OH271248   3.797   2.557   0.466 -0.0122  0.5010 -0.7169
16586TIP3    H171249   3.814   2.467   0.439  0.0666  0.3687 -0.2379
16586TIP3    H271250   3.707   2.555   0.501 -0.4708  0.8730 -1.8367
16587TIP3   OH271251   2.314   5.774   5.377  0.4368  0.1019  0.7110
16587TIP3    H171252   2.319   5.678   5.381  1.1796  0.1699  2.1391
16587TIP3    H271253   2.242   5.792   5.317  1.8736 -1.3158 -1.5775
16588TIP3   OH271254   2.658   3.039  16.231 -0.1600 -0.0313 -0.4686
16588TIP3    H171255   2.631   2.974  16.166 -1.6248  0.8925 -0.8244
16588TIP3    H271256   2.747   3.012  16.256 -0.4921 -1.8126 -1.0357
16589TIP3   OH271257   0.614   4.991   3.077 -0.8042  0.2663  0.1617
16589TIP3    H171258   0.602   5.047   3.000 -2.2005  0.3040  0.3914
16589TIP3    H271259   0.579   5.042   3.149  0.3437  0.1574  0.8230
16590TIP3   OH271260   0.138   0.962  14.774 -0.3254  0.5711 -0.0613
16590TIP3    H171261   0.149   0.979  14.680  1.0904  1.5708  0.2604
16590TIP3    H271262   0.098   0.874  14.777  0.0104  0.3311 -1.5768
16591TIP3   OH271263   0.256   5.294   3.470 -0.3146  0.3030  0.0803
16591TIP3    H171264   0.209   5.222   3.511  0.1845 -0.5034 -0.7303
16591TIP3    H271265   0.187   5.350   3.434 -0.6888 -0.1608  0.0724
16592TIP3   OH271266   6.235   3.467   4.001 -0.0938  0.6410  0.3752
16592TIP3    H171267   6.195   3.400   4.056  0.4362  0.7727  0.9372
16592TIP3    H271268   6.319   3.430   3.975 -1.3145 -0.4695 -2.4329
16593TIP3   OH271269   4.581   6.568   0.112 -0.5126 -0.4270 -1.1560
16593TIP3    H171270   4.542   6.500   0.167  0.1084  0.3042  0.2588
16593TIP3    H271271   4.598   6.525   0.028  1.8544 -2.7163  0.3406
16594TIP3   OH271272   6.441   1.483   5.952  0.3783 -0.0576  0.0045
16594TIP3    H171273   6.500   1.480   6.027  0.8758  1.1048 -0.3142
16594TIP3    H271274   6.354   1.496   5.990  0.7144  1.2841  0.3813
16595TIP3   OH271275   0.938   5.712   0.328  0.2171 -0.9203  0.1930
16595TIP3    H171276   0.898   5.669   0.404  0.7935 -0.2177  0.9057
16595TIP3    H271277   0.993   5.645   0.288  2.3052 -0.5022  2.1633
16596TIP3   OH271278   4.190   0.699   3.060 -0.1753 -0.2550 -0.5512
16596TIP3    H171279   4.128   0.719   3.129 -1.3013 -0.7874 -1.3638
16596TIP3    H271280   4.258   0.647   3.103  0.4963  1.5183  0.6432
16597TIP3   OH271281   4.489   6.477  13.287 -0.0365 -0.2424 -0.4461
16597TIP3    H171282   4.447   6.452  13.205 -0.1972  0.0100 -0.4403
16597TIP3    H271283   4.438   6.434  13.355  0.7959 -1.4225 -0.5360
16598TIP3   OH271284   6.308   2.161   0.900  0.6304 -0.4221  0.1005
16598TIP3    H171285   6.296   2.126   0.988 -0.1527 -2.7448 -0.8514
16598TIP3    H271286   6.336   2.085   0.848  1.6163  1.0041 -1.5617
16599TIP3   OH271287   0.782   2.348   4.396 -0.3187 -0.8338 -0.0885
16599TIP3    H171288   0.742   2.356   4.483 -0.0433  1.5722 -0.1040
16599TIP3    H271289   0.716   2.382   4.336  0.9007  1.3026 -0.3272
16600TIP3   OH271290   5.565   5.490   2.014 -0.3476 -0.3337  0.3767
16600TIP3    H171291   5.522   5.545   2.080 -0.6218  0.0743 -0.1313
16600TIP3    H271292   5.637   5.544   1.981 -1.1083  0.0574 -0.7006
16601TIP3   OH271293   0.829   5.902  16.613 -0.5176  0.3539  0.1752
16601TIP3    H171294   0.906   5.958  16.599 -0.0471 -0.6506 -1.6125
16601TIP3    H271295   0.857   5.838  16.678 -0.0699  0.4244  0.0571
16602TIP3   OH271296   4.847   5.701   2.992 -0.6191 -0.2317  0.9167
16602TIP3    H171297   4.894   5.765   2.938 -0.3847 -0.5677  0.7187
16602TIP3    H271298   4.817   5.751   3.068 -2.4489  0.6715 -0.3045
16603TIP3   OH271299   5.074   0.303   0.087  0.1585  0.8181  0.0111
16603TIP3    H171300   5.143   0.244   0.056 -0.0486 -0.3132  1.6033
16603TIP3    H271301   5.120   0.364   0.145  0.4382  2.5475 -1.9069
16604TIP3   OH271302   6.612   5.009   2.538 -0.5250 -0.2770 -0.0600
16604TIP3    H171303   6.604   4.991   2.444 -1.1415 -1.8221  0.2591
16604TIP3    H271304   6.550   5.080   2.554 -1.6993 -1.1569 -0.5396
16605TIP3   OH271305   1.137   6.748  13.512  0.1519  0.0939  0.3099
16605TIP3    H171306   1.141   6.842  13.528  3.2230 -0.1611  1.6141
16605TIP3    H271307   1.113   6.710  13.596 -2.3483 -0.3170 -0.5047
16606TIP3   OH271308   1.523   6.530  17.044 -0.0930 -0.2937 -0.0542
16606TIP3    H171309   1.431   6.518  17.068  0.0052  1.1780  1.2445
16606TIP3    H271310   1.567   6.452  17.079 -0.9947 -1.7354 -1.9498
16607TIP3   OH271311   6.299   3.088   0.626 -0.3532 -0.1615  0.3506
16607TIP3    H171312   6.381   3.114   0.667 -0.8722  1.5874  0.3634
16607TIP3    H271313   6.323   3.014   0.569  1.1621  0.1341  0.5548
16608TIP3   OH271314   0.847   6.506  16.274 -0.0482 -0.3870  0.0742
16608TIP3    H171315   0.780   6.468  16.330  0.3034  0.2319  0.9331
16608TIP3    H271316   0.801   6.572  16.223 -0.5751 -1.6437 -1.1274
16609TIP3   OH271317   4.919   1.583   0.114  0.5127 -0.0585  0.7221
16609TIP3    H171318   4.888   1.583   0.205  1.1498  1.0881  0.9592
16609TIP3    H271319   5.011   1.560   0.120  0.8299  1.1127  0.4804
16610TIP3   OH271320   2.141   6.030   3.541 -0.0710  0.2046  0.1781
16610TIP3    H171321   2.120   6.065   3.628 -0.5440  0.9192 -0.2104
16610TIP3    H271322   2.235   6.013   3.545 -0.2938 -0.9592  1.2268
16611TIP3   OH271323   3.130   5.466   3.693 -0.0429 -0.1551 -0.7698
16611TIP3    H171324   3.200   5.531   3.688 -0.1761  0.0069 -0.5107
16611TIP3    H271325   3.091   5.479   3.779  0.1313 -0.7855 -0.5894
16612TIP3   OH271326   1.745   3.092   5.856 -0.1836  0.7105 -0.0075
16612TIP3    H171327   1.810   3.043   5.805 -0.7297 -0.0722  0.0276
16612TIP3    H271328   1.775   3.086   5.946 -1.3091 -1.3822  0.3006
16613TIP3   OH271329   6.349   3.975  12.171 -0.0711 -0.3931 -0.1094
16613TIP3    H171330   6.400   3.960  12.091 -2.7692  0.5550 -2.1560
16613TIP3    H271331   6.322   3.888  12.199 -0.9994 -0.6127 -1.6079
16614TIP3   OH271332   5.693   3.286   1.667 -0.1399 -0.2087  0.3330
16614TIP3    H171333   5.695   3.378   1.638  1.1271 -0.3943 -0.2471
16614TIP3    H271334   5.729   3.289   1.756  1.4421 -0.3124 -0.2762
16615TIP3   OH271335   5.842   0.806   5.601 -0.3131  0.4950 -0.4420
16615TIP3    H171336   5.862   0.839   5.513 -2.4198  0.4055 -1.0227
16615TIP3    H271337   5.789   0.874   5.641 -0.3669  0.0201  0.3163
16616TIP3   OH271338   0.517   5.375   3.466  0.0616 -0.2454  0.2792
16616TIP3    H171339   0.425   5.357   3.485 -0.4880  1.8633 -0.1606
16616TIP3    H271340   0.544   5.304   3.407 -2.2700  0.8576 -2.2866
16617TIP3   OH271341   4.210   1.722   0.172  0.7848 -0.3383 -0.0511
16617TIP3    H171342   4.142   1.763   0.227 -0.8139  0.8060 -2.6687
16617TIP3    H271343   4.165   1.702   0.090  2.5194 -3.8984 -0.3341
16618TIP3   OH271344   5.388   5.230   5.047 -0.2705 -0.2709 -0.8129
16618TIP3    H171345   5.310   5.217   4.993  1.2611 -2.7717 -2.6543
16618TIP3    H271346   5.393   5.152   5.102  0.3403  0.3824  0.0942
16619TIP3   OH271347   2.611   1.039  14.777  0.1876  0.2035  0.4750
16619TIP3    H171348   2.650   0.968  14.829 -1.3162 -1.0837 -0.0833
16619TIP3    H271349   2.585   0.997  14.695 -1.4129  1.2310  0.4197
16620TIP3   OH271350   1.054   6.541  11.777  0.1993  0.4299  0.2085
16620TIP3    H171351   0.985   6.557  11.842 -1.2727  0.4390 -1.2885
16620TIP3    H271352   1.007   6.530  11.694  2.0951  2.8466 -1.3657
16621TIP3   OH271353   4.748   3.577   6.114  0.2276  0.3718 -0.3344
16621TIP3    H171354   4.654   3.577   6.130  0.4497  1.3584  1.0834
16621TIP3    H271355   4.788   3.562   6.200  1.4123  2.3599 -0.4784
16622TIP3   OH271356   3.674   0.967   4.696  0.2464  0.2503  0.3067
16622TIP3    H171357   3.594   0.949   4.646  0.5786  0.7381 -0.4232
16622TIP3    H271358   3.726   1.023   4.638  0.8910  0.3652  0.9845
16623TIP3   OH271359   5.153   1.743  11.783 -0.5952  0.4459  0.1344
16623TIP3    H171360   5.200   1.805  11.727 -1.7804 -0.5158 -2.0692
16623TIP3    H271361   5.067   1.783  11.796 -0.1711  0.9039  1.8120
16624TIP3   OH271362   2.270   4.802   3.905 -0.5716 -0.1615  0.2804
16624TIP3    H171363   2.214   4.806   3.828 -0.8557  0.4786  0.5120
16624TIP3    H271364   2.212   4.770   3.974 -0.3747 -0.5254  0.2756
16625TIP3   OH271365   2.813   1.994   3.350  0.1626 -0.7046  0.0520
16625TIP3    H171366   2.723   1.974   3.325  0.3621 -1.4552 -0.0926
16625TIP3    H271367   2.807   2.023   3.440 -0.4237  0.8773 -0.4613
16626TIP3   OH271368   6.102   4.602   5.406 -0.0460 -0.4600 -0.0630
16626TIP3    H171369   6.139   4.563   5.485  0.0764 -4.5510 -1.8705
16626TIP3    H271370   6.037   4.538   5.376 -2.3502  2.3940 -1.6956
16627TIP3   OH271371   0.445   5.650  15.513  0.0297  0.0336  0.2988
16627TIP3    H171372   0.352   5.653  15.533 -1.2983 -2.5208 -4.0002
16627TIP3    H271373   0.476   5.569  15.555 -0.0370  0.1791  0.6270
16628TIP3   OH271374   2.324   4.165   0.565 -0.7773  0.3150 -0.0830
16628TIP3    H171375   2.282   4.222   0.630 -1.1227  0.4219 -0.3980
16628TIP3    H271376   2.326   4.079   0.606 -1.1149  0.3540  0.0187
16629TIP3   OH271377   3.153   1.273  12.277 -0.0834 -0.0341 -0.4470
16629TIP3    H171378   3.156   1.190  12.325 -1.1283 -0.8780 -1.7728
16629TIP3    H271379   3.134   1.339  12.344  0.8773 -0.8347  0.6467
16630TIP3   OH271380   2.848   0.628   3.240 -0.2249  0.2307 -0.3937
16630TIP3    H171381   2.921   0.579   3.202 -0.7481 -0.6626 -0.2743
16630TIP3    H271382   2.796   0.656   3.165  1.0260  2.2016 -0.5915
16631TIP3   OH271383   5.339   3.502  14.435  0.0540 -0.4400 -0.5690
16631TIP3    H171384   5.347   3.467  14.347  1.9912  1.1627 -1.1156
16631TIP3    H271385   5.395   3.580  14.435 -1.6414  0.9080  1.4292
16632TIP3   OH271386   5.794   6.649   0.981  0.2990  0.0668 -0.5284
16632TIP3    H171387   5.766   6.588   0.913 -0.1136  0.0840 -0.3781
16632TIP3    H271388   5.812   6.593   1.057  1.6685 -0.0485 -0.9265
16633TIP3   OH271389   1.910   2.540  12.847  0.0251 -0.3020  0.1295
16633TIP3    H171390   1.988   2.495  12.813  0.1580  0.0245 -0.0026
16633TIP3    H271391   1.850   2.544  12.772 -0.0162 -0.3279  0.1611
16634TIP3   OH271392   4.988   2.172  11.892  0.0706  0.0276 -0.5142
16634TIP3    H171393   5.025   2.116  11.961  1.3092 -1.2440 -2.1360
16634TIP3    H271394   5.039   2.151  11.814  0.1153  2.9628 -1.3827
16635TIP3   OH271395   6.612   0.212  13.419  0.0731 -0.0509 -0.0411
16635TIP3    H171396   6.524   0.232  13.450  0.0668 -1.8814  1.2723
16635TIP3    H271397   6.600   0.178  13.331 -0.7020 -1.5278  0.6121
16636TIP3   OH271398   1.278   0.535  11.453 -0.0343 -0.1345 -0.1237
16636TIP3    H171399   1.220   0.467  11.418 -1.9192  1.1190  0.4175
16636TIP3    H271400   1.262   0.533  11.548  1.0283  0.0803  0.0761
16637TIP3   OH271401   6.534   4.176  13.169 -0.1443 -0.1914  0.0503
16637TIP3    H171402   6.570   4.230  13.098  0.0487 -1.1746 -0.6191
16637TIP3    H271403   6.531   4.088  13.133 -1.2744 -0.4913  0.8337
16638TIP3   OH271404   0.597   6.185   1.015 -0.4533  0.3508 -0.2531
16638TIP3    H171405   0.688   6.205   0.990  0.5173 -0.5425  2.2464
16638TIP3    H271406   0.558   6.271   1.031  0.3111  0.7071 -0.2221
16639TIP3   OH271407   5.274   2.764  14.123 -0.1354 -0.3704 -0.0131
16639TIP3    H171408   5.327   2.709  14.066 -0.0824 -0.2707 -0.0598
16639TIP3    H271409   5.297   2.736  14.212  0.1250 -0.2068 -0.0305
16640TIP3   OH271410   1.292   5.210   3.037  0.3337 -0.2544 -0.5367
16640TIP3    H171411   1.318   5.188   3.126  0.8447 -1.1408 -0.8862
16640TIP3    H271412   1.239   5.137   3.008  0.1985  0.0102 -0.9708
16641TIP3   OH271413   5.842   3.108   4.076 -0.0047 -0.4647  0.4897
16641TIP3    H171414   5.775   3.080   4.139 -1.5804  1.3939 -0.2511
16641TIP3    H271415   5.799   3.102   3.991  1.0720 -0.0469 -0.1033
16642TIP3   OH271416   1.890   3.792   3.586 -0.3513 -0.0493 -0.8368
16642TIP3    H171417   1.975   3.823   3.617  0.0150 -1.5589 -0.2522
16642TIP3    H271418   1.905   3.763   3.497  0.0167 -1.3226 -0.3728
16643TIP3   OH271419   2.806   2.435  16.949  0.1835  0.2849  0.1348
16643TIP3    H171420   2.743   2.391  16.892  0.0564  1.2493 -0.4840
16643TIP3    H271421   2.880   2.374  16.954 -0.3528 -0.3915  0.0196
16644TIP3   OH271422   6.127   4.687   0.948  0.2403  0.5697 -0.9428
16644TIP3    H171423   6.134   4.644   1.033  1.4473 -0.0771 -1.3494
16644TIP3    H271424   6.106   4.778   0.970 -1.3849  0.0133 -0.0412
16645TIP3   OH271425   5.455   0.560   4.577  0.1964  0.2857 -0.5530
16645TIP3    H171426   5.499   0.602   4.651  1.2645 -0.2110 -0.9015
16645TIP3    H271427   5.402   0.491   4.617  2.4215 -1.4215 -0.3695
16646TIP3   OH271428   2.273   2.227  12.129  0.0220  0.5723 -0.3002
16646TIP3    H171429   2.239   2.139  12.141 -0.6173  0.7394 -0.8374
16646TIP3    H271430   2.266   2.244  12.035  0.6544  0.9898 -0.2783
16647TIP3   OH271431   5.733   2.671   2.538  0.7482 -0.3042  1.0084
16647TIP3    H171432   5.673   2.620   2.483  0.6619  0.1724  0.6515
16647TIP3    H271433   5.775   2.732   2.477  0.0552  0.7959  1.5928
16648TIP3   OH271434   1.337   6.147  14.187  0.4962 -0.5813  0.2157
16648TIP3    H171435   1.403   6.215  14.194  2.8944 -2.8993  1.8416
16648TIP3    H271436   1.305   6.135  14.276 -1.0440 -0.6030 -0.2956
16649TIP3   OH271437   5.631   2.118  17.162 -0.4552  0.4228  0.1281
16649TIP3    H171438   5.542   2.083  17.166 -0.1337 -0.4310 -0.0102
16649TIP3    H271439   5.686   2.046  17.192  0.2371  0.7820 -0.2683
16650TIP3   OH271440   0.574   3.409   3.698 -0.5400 -0.2408  0.3401
16650TIP3    H171441   0.617   3.329   3.668 -0.1978  0.5274 -1.2803
16650TIP3    H271442   0.481   3.391   3.687 -0.4329  0.7006 -3.2606
16651TIP3   OH271443   1.314   2.776  17.053  0.0561  0.1925  0.3584
16651TIP3    H171444   1.355   2.757  16.968 -2.3850  1.4185 -1.2217
16651TIP3    H271445   1.266   2.696  17.075  0.2661  0.0560  0.3248
16652TIP3   OH271446   4.090   5.252   1.655  0.4576  0.4122 -0.4340
16652TIP3    H171447   4.046   5.321   1.705  1.2701  0.4131  0.3087
16652TIP3    H271448   4.121   5.296   1.576  0.2277  0.7029 -0.3646
16653TIP3   OH271449   1.453   5.985   1.505 -0.3882  0.3320  0.1564
16653TIP3    H171450   1.429   6.077   1.496 -2.2504 -0.2094 -0.9554
16653TIP3    H271451   1.492   5.962   1.421  1.8016  0.5192  1.0567
16654TIP3   OH271452   5.208   1.324   4.607  0.1890  0.9234 -0.3853
16654TIP3    H171453   5.203   1.237   4.649  0.7313  0.2133 -1.7398
16654TIP3    H271454   5.291   1.360   4.637  0.5654  0.4278 -0.8107
16655TIP3   OH271455   3.151   5.080   1.096 -0.2889  0.4008  0.3111
16655TIP3    H171456   3.069   5.082   1.048 -1.0580  0.6835  1.5959
16655TIP3    H271457   3.201   5.154   1.060 -0.5048  0.1305 -0.5820
16656TIP3   OH271458   1.258   2.849  12.608 -0.5017  0.0066  0.4871
16656TIP3    H171459   1.189   2.892  12.658  0.8321  1.3188  1.2673
16656TIP3    H271460   1.265   2.899  12.527 -2.5513 -2.0243 -1.0991
16657TIP3   OH271461   2.882   0.094   3.491  0.5539 -0.1206 -0.3043
16657TIP3    H171462   2.924   0.179   3.506  0.1295 -0.0724  0.6905
16657TIP3    H271463   2.955   0.033   3.479  0.8628  0.3525 -0.8855
16658TIP3   OH271464   0.442   5.515  15.886  0.3400 -0.2884  0.5022
16658TIP3    H171465   0.347   5.508  15.898  0.2748  0.1919  0.2581
16658TIP3    H271466   0.460   5.463  15.807  0.2403 -0.1371  0.3794
16659TIP3   OH271467   0.655   2.834   2.109 -0.7865 -0.1512 -0.1501
16659TIP3    H171468   0.692   2.746   2.115  0.8049  0.5680  1.6180
16659TIP3    H271469   0.660   2.856   2.016 -1.7024 -2.0787 -0.7158
16660TIP3   OH271470   1.027   0.228  16.894  0.2635 -0.5328 -0.3175
16660TIP3    H171471   0.996   0.195  16.978 -0.0719  1.7257  0.5210
16660TIP3    H271472   0.960   0.291  16.867  1.4006  0.3344 -1.2383
16661TIP3   OH271473   0.899   2.820  12.674 -0.2283  0.0198 -0.3139
16661TIP3    H171474   0.948   2.879  12.618 -0.5033  0.4246 -0.1327
16661TIP3    H271475   0.954   2.810  12.752 -1.5763  2.6081  1.0855
16662TIP3   OH271476   4.407   5.236  10.390 -0.0624  0.4373  0.1334
16662TIP3    H171477   4.374   5.238  10.300  0.0657  0.2419  0.0825
16662TIP3    H271478   4.470   5.308  10.395 -0.0005  0.3896  0.0404
16663TIP3   OH271479   2.236   5.642   2.533  0.6764 -0.4551  0.0714
16663TIP3    H171480   2.303   5.677   2.475  0.4965  2.0713  1.2683
16663TIP3    H271481   2.173   5.713   2.543  0.2724 -1.0746  2.6628
16664TIP3   OH271482   4.021   1.198  11.797 -0.1717 -0.1153 -0.2029
16664TIP3    H171483   3.971   1.242  11.866 -1.3718 -0.9471 -0.5095
16664TIP3    H271484   4.006   1.251  11.719  2.2451  1.5748  0.3802
16665TIP3   OH271485   0.924   2.733   5.536  0.2118 -0.3108  0.4713
16665TIP3    H171486   1.001   2.789   5.549 -1.3748  2.0872  0.1924
16665TIP3    H271487   0.905   2.739   5.443 -0.1986 -1.1029  0.4943
16666TIP3   OH271488   5.820   0.334  12.404 -0.7806  0.2912 -0.5155
16666TIP3    H171489   5.841   0.269  12.471  0.4557  1.0709 -0.1059
16666TIP3    H271490   5.725   0.338  12.404 -0.8326 -0.4751  0.4769
16667TIP3   OH271491   5.319   2.492  11.964 -0.2473 -0.7449  0.0889
16667TIP3    H171492   5.381   2.565  11.958 -0.2265 -0.7136  0.6527
16667TIP3    H271493   5.237   2.527  11.929 -0.1724 -0.5270  0.1328
16668TIP3   OH271494   1.829   0.746  11.123  0.2640 -0.1554  0.2893
16668TIP3    H171495   1.901   0.737  11.185  1.2288  0.4750 -0.6888
16668TIP3    H271496   1.858   0.814  11.062 -1.2942  0.3276  0.0223
16669TIP3   OH271497   0.701   0.230  14.420  0.7159  0.3924 -0.2734
16669TIP3    H171498   0.628   0.169  14.436 -0.2665  1.2740 -1.2009
16669TIP3    H271499   0.775   0.193  14.468 -0.6519  0.0901  1.7361
16670TIP3   OH271500   0.783   2.865  17.060  0.6352  0.5922  0.0818
16670TIP3    H171501   0.851   2.887  17.124  0.8864 -0.2636  0.1183
16670TIP3    H271502   0.705   2.911  17.092  0.7549  0.1672  1.0157
16671TIP3   OH271503   3.850   1.574  12.082 -0.0470 -0.0890 -0.1615
16671TIP3    H171504   3.758   1.550  12.077 -0.0142 -0.2936  0.1908
16671TIP3    H271505   3.853   1.663  12.049 -0.4114  0.0136  0.0758
16672TIP3   OH271506   1.985   3.944   3.178  0.3203 -0.0711 -0.6396
16672TIP3    H171507   1.913   3.885   3.197 -0.1808  0.7770  0.1629
16672TIP3    H271508   1.951   4.003   3.110  0.1914  0.4270 -0.1503
16673TIP3   OH271509   6.528   2.135   3.573 -0.2835  0.2919 -0.1913
16673TIP3    H171510   6.518   2.176   3.659 -1.2360 -1.1366  0.4210
16673TIP3    H271511   6.527   2.041   3.591 -0.1143 -0.0367 -1.7363
16674TIP3   OH271512   2.705   0.581  15.461 -0.4118  0.5409  0.1966
16674TIP3    H171513   2.791   0.621  15.472 -0.1741  0.4228 -1.1363
16674TIP3    H271514   2.651   0.651  15.424 -0.2274 -0.0615 -1.2994
16675TIP3   OH271515   1.639   3.898  14.194 -0.0222 -0.7601  0.1218
16675TIP3    H171516   1.571   3.957  14.227  0.8542 -1.0134  2.5423
16675TIP3    H271517   1.608   3.810  14.217  0.5072 -0.9696  0.0404
16676TIP3   OH271518   3.825   3.066  12.597  0.0705  0.0042 -0.0000
16676TIP3    H171519   3.884   3.107  12.534  0.6704 -0.6193  0.1435
16676TIP3    H271520   3.737   3.087  12.565  0.3030  2.5161  0.7759
16677TIP3   OH271521   4.330   0.921  16.815 -0.5573  0.1816 -0.0879
16677TIP3    H171522   4.313   0.948  16.725  0.5108 -1.6017 -0.8815
16677TIP3    H271523   4.303   0.829  16.818  2.3310 -0.7390  0.4751
16678TIP3   OH271524   3.485   1.661   1.532 -0.2757  0.3321  0.4226
16678TIP3    H171525   3.523   1.646   1.618 -1.0974 -1.0771  0.5686
16678TIP3    H271526   3.455   1.752   1.534  0.0902  0.4410  1.4656
16679TIP3   OH271527   3.050   2.333   2.621  0.1991  0.1720  0.3462
16679TIP3    H171528   3.093   2.299   2.699  0.8717  0.3063  0.0457
16679TIP3    H271529   3.005   2.412   2.650 -0.9186 -0.6542  0.9356
16680TIP3   OH271530   2.085   2.004  12.787  0.1701 -0.4234  0.2115
16680TIP3    H171531   2.079   2.046  12.701  0.0695  1.3104  1.0169
16680TIP3    H271532   2.163   2.042  12.826 -0.8401  0.2985  1.6147
16681TIP3   OH271533   4.353   2.097   1.438  0.6320 -0.4410 -0.6500
16681TIP3    H171534   4.292   2.156   1.394 -1.5426 -2.3784 -0.4452
16681TIP3    H271535   4.342   2.013   1.394  0.7071 -1.6599  1.5031
16682TIP3   OH271536   0.958   0.783  14.178 -0.2011 -0.4233 -0.0363
16682TIP3    H171537   1.027   0.753  14.237 -1.8359 -0.5048  1.9704
16682TIP3    H271538   0.968   0.878  14.175 -0.8172 -0.2885  1.4059
16683TIP3   OH271539   1.049   1.300  11.527  0.5359 -0.4361 -0.6060
16683TIP3    H171540   0.983   1.366  11.505 -0.1022 -1.4057 -1.7387
16683TIP3    H271541   1.020   1.264  11.611  0.2985 -0.0049 -0.5018
16684TIP3   OH271542   3.910   2.327   2.447  0.3111 -0.7031  0.3527
16684TIP3    H171543   3.846   2.390   2.413 -1.7849 -3.5639 -1.4668
16684TIP3    H271544   3.861   2.277   2.513  1.0851 -2.0393 -0.0451
16685TIP3   OH271545   4.869   6.725   5.456 -0.2316 -0.3979  0.3458
16685TIP3    H171546   4.841   6.635   5.436  1.2293 -0.4417 -1.9014
16685TIP3    H271547   4.959   6.716   5.488 -1.5581 -0.0380  4.9374
16686TIP3   OH271548   6.643   0.167   4.194  0.4249  0.2797 -0.5156
16686TIP3    H171549   6.637   0.098   4.261 -0.7102 -0.4172 -1.3034
16686TIP3    H271550   6.737   0.180   4.183  0.6578  0.8495  1.6212
16687TIP3   OH271551   6.508   0.586   1.451  0.5447 -0.0070  0.1958
16687TIP3    H171552   6.506   0.496   1.483  0.0002 -0.5558 -1.3023
16687TIP3    H271553   6.417   0.615   1.454  0.3258 -0.3637 -1.5241
16688TIP3   OH271554   5.221   1.085   2.020  0.2080  0.0776 -0.1540
16688TIP3    H171555   5.296   1.027   2.004 -0.2247 -1.7058  3.2985
16688TIP3    H271556   5.146   1.038   1.983  0.4117  0.6974 -1.4156
16689TIP3   OH271557   6.750   2.020  11.005  0.3270 -0.1246  0.0331
16689TIP3    H171558   6.667   2.032  10.958  0.3931 -1.2604 -0.4137
16689TIP3    H271559   6.783   2.109  11.020  0.4079  0.2750 -2.2570
16690TIP3   OH271560   6.406   2.169   1.845 -0.2896 -0.1606 -0.2483
16690TIP3    H171561   6.386   2.128   1.929 -1.8094  0.8186 -0.0929
16690TIP3    H271562   6.321   2.183   1.805  0.1827  2.5057 -0.4470
16691TIP3   OH271563   3.214   4.456  15.109  0.1533  0.3884 -0.0095
16691TIP3    H171564   3.211   4.536  15.162 -0.0945  0.2967  0.1198
16691TIP3    H271565   3.163   4.477  15.031 -2.2508 -0.4817  1.2161
16692TIP3   OH271566   0.165   5.549   3.739  0.3154  0.0125  0.2494
16692TIP3    H171567   0.079   5.573   3.707  0.4370 -1.8944 -1.7484
16692TIP3    H271568   0.226   5.584   3.673  0.9780  0.2300  0.9579
16693TIP3   OH271569   4.330   3.646  16.946  0.4214 -0.4885  0.3721
16693TIP3    H171570   4.422   3.673  16.953  0.4285 -0.7179  1.2182
16693TIP3    H271571   4.335   3.551  16.932  0.3110 -0.5093  0.4781
16694TIP3   OH271572   3.661   0.970   2.604 -0.0343 -0.2029 -0.3254
16694TIP3    H171573   3.756   0.958   2.616  0.1905 -0.0154 -1.7588
16694TIP3    H271574   3.651   1.065   2.592 -0.4995 -0.1481  0.4063
16695TIP3   OH271575   5.259   5.013   2.395 -0.3549 -0.2663  0.2076
16695TIP3    H171576   5.212   5.095   2.383 -0.7165 -0.4481  0.3973
16695TIP3    H271577   5.297   5.019   2.483  0.0861 -0.0669  0.0083
16696TIP3   OH271578   1.148   4.218   3.196 -0.1832  0.3041 -0.1541
16696TIP3    H171579   1.204   4.206   3.273 -0.7168 -1.5993 -0.0228
16696TIP3    H271580   1.177   4.151   3.134 -1.3574  0.2346 -0.6583
16697TIP3   OH271581   2.023   3.446  11.668 -0.4220  0.3089 -0.4750
16697TIP3    H171582   2.038   3.395  11.747  1.2482  2.0200  0.3820
16697TIP3    H271583   2.057   3.392  11.597 -0.0874 -0.4008  0.2171
16698TIP3   OH271584   3.407   4.821  14.525  0.8049  0.0001  0.1800
16698TIP3    H171585   3.360   4.810  14.443 -0.4673 -0.7732  0.9697
16698TIP3    H271586   3.461   4.899  14.512 -1.8411  1.9082 -0.3055
16699TIP3   OH271587   0.695   1.649   3.545  0.1008  0.3310 -0.9582
16699TIP3    H171588   0.783   1.670   3.514  0.6656 -0.4988  0.0190
16699TIP3    H271589   0.661   1.731   3.579  0.9353  0.4366 -0.3311
16700TIP3   OH271590   4.582   0.898   0.128  0.2355 -0.3919 -0.0318
16700TIP3    H171591   4.511   0.944   0.083  0.0074 -0.2700  0.4414
16700TIP3    H271592   4.650   0.965   0.138  0.7342 -0.7044 -1.1525
16701TIP3   OH271593   5.197   3.862   3.372  0.6845  0.6696  0.0603
16701TIP3    H171594   5.223   3.773   3.394  0.7303  0.7660  0.4040
16701TIP3    H271595   5.164   3.899   3.455 -0.3380  0.6207 -0.3053
16702TIP3   OH271596   4.082   4.262   0.611  0.5634  0.4896  0.4738
16702TIP3    H171597   4.050   4.195   0.551 -0.9793 -0.3257  2.1099
16702TIP3    H271598   4.159   4.223   0.652 -1.1360 -1.0157  2.4776
16703TIP3   OH271599   0.440   3.241   4.343 -0.3533  0.4736 -0.3404
16703TIP3    H171600   0.357   3.267   4.303  0.4378 -0.0873 -2.4315
16703TIP3    H271601   0.495   3.319   4.336 -0.9108  1.1325  1.8299
16704TIP3   OH271602   1.272   3.688   2.514  0.0994 -0.5211 -0.4070
16704TIP3    H171603   1.275   3.775   2.475  2.3527  0.3190  1.4146
16704TIP3    H271604   1.224   3.635   2.451 -2.7731  2.3275 -0.8806
16705TIP3   OH271605   0.911   1.893   5.637 -0.2251 -0.2804  0.3699
16705TIP3    H171606   0.877   1.803   5.642  0.3760 -0.5081  0.4097
16705TIP3    H271607   1.001   1.883   5.608 -0.3336  0.3518 -0.2170
16706TIP3   OH271608   5.614   6.223   4.697 -0.0896 -0.5604 -0.6845
16706TIP3    H171609   5.565   6.303   4.679 -0.3807 -0.3591  0.8938
16706TIP3    H271610   5.705   6.247   4.681 -0.1402  0.2044  0.1118
16707TIP3   OH271611   6.124   5.298   3.255  0.5204  0.7037 -0.2110
16707TIP3    H171612   6.055   5.359   3.282  0.4709  0.6240 -0.1583
16707TIP3    H271613   6.085   5.211   3.267  0.7887  0.6450  0.2509
16708TIP3   OH271614   5.028   1.592  15.384 -0.1606  0.1425 -0.0896
16708TIP3    H171615   5.110   1.546  15.398 -1.6623 -2.5715  0.6043
16708TIP3    H271616   5.009   1.579  15.291 -0.7136 -0.9689  0.1610
16709TIP3   OH271617   0.692   5.544  15.378 -0.6824  0.2454 -0.1506
16709TIP3    H171618   0.787   5.539  15.369 -0.8999 -0.7277 -2.4368
16709TIP3    H271619   0.678   5.582  15.465  1.7789  0.5270  0.1762
16710TIP3   OH271620   0.057   2.706  12.477 -0.0192 -0.0712 -0.0898
16710TIP3    H171621   0.011   2.786  12.503 -0.6598 -0.4554 -0.0271
16710TIP3    H271622  -0.007   2.636  12.490 -0.1409 -0.3674 -2.0130
16711TIP3   OH271623   5.150   0.035   0.230 -0.7986 -0.0692 -0.2118
16711TIP3    H171624   5.108   0.095   0.169 -0.0374 -1.8889 -2.7206
16711TIP3    H271625   5.244   0.054   0.221 -0.7607  1.6159  2.7202
16712TIP3   OH271626   1.596   1.995  15.242 -0.2470  0.4425  0.6466
16712TIP3    H171627   1.613   2.065  15.305  1.1017 -0.5709  1.4846
16712TIP3    H271628   1.561   2.039  15.165 -1.0338  1.8364  1.7469
16713TIP3   OH271629   1.588   5.196  12.685  0.4894 -0.6062 -0.0415
16713TIP3    H171630   1.634   5.267  12.640 -0.6832 -0.0994 -0.4627
16713TIP3    H271631   1.640   5.118  12.665  1.2325 -0.0353 -0.4044
16714TIP3   OH271632   2.823   2.966   3.658  0.6221 -0.2086 -0.1893
16714TIP3    H171633   2.897   2.996   3.710 -0.1244  0.9042  0.2875
16714TIP3    H271634   2.795   3.044   3.610 -0.6792 -0.4163  0.1964
16715TIP3   OH271635   0.844   6.277   0.947  0.3079  0.4003 -0.0828
16715TIP3    H171636   0.897   6.279   1.027  0.2008  1.4497 -0.0255
16715TIP3    H271637   0.883   6.344   0.891  0.1924 -0.1194 -0.7982
16716TIP3   OH271638   1.522   3.699   4.543 -0.4833  0.1781  0.0481
16716TIP3    H171639   1.497   3.663   4.628 -1.8362  0.9550  0.0204
16716TIP3    H271640   1.592   3.642   4.512 -2.5600 -2.5787 -0.0496
16717TIP3   OH271641   2.833   4.714  14.890  0.1469  0.1215 -0.0064
16717TIP3    H171642   2.798   4.803  14.892  0.6960  0.4078 -1.7358
16717TIP3    H271643   2.756   4.658  14.877 -0.2656  0.2663  1.6279
16718TIP3   OH271644   1.257   1.899   1.685 -0.0560 -0.8526 -0.3346
16718TIP3    H171645   1.305   1.846   1.622 -1.2099 -0.8392 -1.2547
16718TIP3    H271646   1.258   1.847   1.766 -2.0016 -2.8132 -1.4660
16719TIP3   OH271647   5.156   4.902  15.649  0.3936 -0.1470  1.2124
16719TIP3    H171648   5.233   4.881  15.597  1.3337  1.9630  1.6260
16719TIP3    H271649   5.133   4.820  15.692  0.7861 -1.4489 -0.9383
16720TIP3   OH271650   3.574   5.864  16.923 -0.6390  0.5654 -0.4108
16720TIP3    H171651   3.625   5.788  16.894  1.1285  1.5513 -0.0907
16720TIP3    H271652   3.542   5.903  16.842 -1.7219 -0.5976 -0.5642
16721TIP3   OH271653   4.724   3.370  10.642 -0.1779 -0.0649 -0.2039
16721TIP3    H171654   4.806   3.320  10.646  0.5383  1.0189 -0.7015
16721TIP3    H271655   4.689   3.351  10.556 -0.3000 -0.3077 -0.1005
16722TIP3   OH271656   2.817   4.720  14.596  0.9915 -0.5709  0.3766
16722TIP3    H171657   2.809   4.716  14.691  0.3317 -0.3017  0.3412
16722TIP3    H271658   2.790   4.633  14.565 -0.1143 -0.2423  0.3679
16723TIP3   OH271659   6.332   1.076   4.431 -1.0027 -0.2057 -0.3380
16723TIP3    H171660   6.327   0.991   4.475 -0.0098  0.2644  0.7503
16723TIP3    H271661   6.391   1.061   4.357 -1.9362 -0.7832 -0.9777
16724TIP3   OH271662   0.610   5.158   2.558  0.3527  0.1572 -0.1573
16724TIP3    H171663   0.520   5.159   2.588  0.0466 -0.3826 -1.0133
16724TIP3    H271664   0.629   5.248   2.533  0.7486  0.7230  1.9518
16725TIP3   OH271665   1.508   1.162  11.991 -0.2154  0.6274 -0.6384
16725TIP3    H171666   1.521   1.187  12.083 -0.2336  0.8848 -0.7056
16725TIP3    H271667   1.591   1.183  11.948  0.4769 -1.2398 -0.3113
16726TIP3   OH271668   3.033   3.889   3.899  0.4158 -0.7930  0.0755
16726TIP3    H171669   3.091   3.962   3.918 -0.2967 -0.1940  0.0010
16726TIP3    H271670   3.010   3.899   3.807 -2.8690  1.2948  0.9446
16727TIP3   OH271671   6.019   3.529   6.867  0.1494 -0.2828  0.0379
16727TIP3    H171672   6.088   3.550   6.804 -0.6112  1.1851 -0.3492
16727TIP3    H271673   5.958   3.473   6.818 -1.0636  1.8221 -0.9886
16728TIP3   OH271674   1.107   2.426   3.084  0.2102  0.0384 -0.4844
16728TIP3    H171675   1.140   2.515   3.078  0.1506  0.0707 -0.3542
16728TIP3    H271676   1.114   2.404   3.177 -0.4012  0.1527 -0.4038
16729TIP3   OH271677   0.472   0.862  14.414  0.1236 -0.1382 -0.3689
16729TIP3    H171678   0.464   0.831  14.324  1.5136  0.1371 -0.6151
16729TIP3    H271679   0.499   0.953  14.406 -1.6434  0.4959  0.3509
16730TIP3   OH271680   6.329   5.897   2.860  0.1320 -0.8508  0.4874
16730TIP3    H171681   6.366   5.885   2.947 -0.5321 -1.9037  0.6428
16730TIP3    H271682   6.326   5.809   2.823  1.1977 -0.3169 -0.9448
16731TIP3   OH271683   3.779   3.847  12.480  0.5811  0.2741  0.4514
16731TIP3    H171684   3.683   3.841  12.482  0.4755  1.3910 -0.2717
16731TIP3    H271685   3.798   3.938  12.504  1.4368  0.1782  0.1729
16732TIP3   OH271686   2.997   5.555  14.789 -0.0200  0.2679 -0.0658
16732TIP3    H171687   3.045   5.622  14.838  1.0187 -1.0115  0.7062
16732TIP3    H271688   3.049   5.476  14.798 -1.6094 -0.8549 -0.3297
16733TIP3   OH271689   4.758   5.491  11.878 -0.0872 -0.2950  0.4772
16733TIP3    H171690   4.791   5.418  11.930 -3.9364 -2.6484  0.0669
16733TIP3    H271691   4.757   5.565  11.939 -0.2568 -1.7853  2.4126
16734TIP3   OH271692   1.459   1.124  10.598  0.0491 -0.2893 -0.5541
16734TIP3    H171693   1.367   1.146  10.612 -0.0449 -0.1885 -1.3111
16734TIP3    H271694   1.498   1.203  10.562 -0.0245 -0.9388 -2.1530
16735TIP3   OH271695   3.686   0.669   4.163  0.3761 -0.6052 -0.2175
16735TIP3    H171696   3.702   0.611   4.088  1.3367 -0.3632 -0.2155
16735TIP3    H271697   3.629   0.737   4.128 -0.2968 -1.2312 -0.3697
16736TIP3   OH271698   0.414   0.683   4.381 -0.1314  0.1226  0.4774
16736TIP3    H171699   0.406   0.589   4.363  0.7911  0.2628 -0.8146
16736TIP3    H271700   0.386   0.725   4.300  0.3289  0.9414  0.7385
16737TIP3   OH271701   1.600   1.066   4.942  0.1028 -0.5694 -0.3883
16737TIP3    H171702   1.686   1.108   4.938  0.7047 -1.7570 -0.5740
16737TIP3    H271703   1.600   1.006   4.867 -0.3743 -1.5059  0.3348
16738TIP3   OH271704   3.805   6.804   0.092  0.4032  0.2491 -0.2321
16738TIP3    H171705   3.784   6.895   0.116  1.5869  0.7105 -0.8683
16738TIP3    H271706   3.748   6.785   0.018 -1.6581 -0.4154  1.4460
16739TIP3   OH271707   1.161   2.017   0.006  0.2699  0.1505  0.7380
16739TIP3    H171708   1.123   2.042  -0.079  0.4926 -0.3133  0.4981
16739TIP3    H271709   1.163   1.921   0.004 -1.3422  0.0362  1.9727
16740TIP3   OH271710   4.003   0.120  13.316 -0.0469  0.7724  0.2892
16740TIP3    H171711   4.078   0.160  13.359  1.1471 -1.0864  0.0524
16740TIP3    H271712   3.963   0.065  13.383  0.6602 -0.6171 -0.3876
16741TIP3   OH271713   1.606   3.650   2.696 -0.0305 -0.2518 -0.0479
16741TIP3    H171714   1.543   3.595   2.743  1.2255 -1.8440 -0.1324
16741TIP3    H271715   1.564   3.666   2.611 -0.9024 -0.1182  0.3940
16742TIP3   OH271716   0.671   2.296   0.656  0.1698  0.6201  0.4071
16742TIP3    H171717   0.724   2.222   0.627  0.1958  0.6656  0.3386
16742TIP3    H271718   0.677   2.359   0.584  0.1217  0.6752  0.4518
16743TIP3   OH271719   2.679   3.108   6.294  0.1975 -0.1436  0.4014
16743TIP3    H171720   2.585   3.101   6.281  0.1765 -0.2810  0.6152
16743TIP3    H271721   2.712   3.146   6.213  0.0051 -0.4660  0.1710
16744TIP3   OH271722   1.821   1.246   5.993  0.1785 -0.1527 -0.1226
16744TIP3    H171723   1.830   1.171   6.052 -0.0410  0.0463  0.1666
16744TIP3    H271724   1.808   1.207   5.906 -0.0334 -0.4483  0.0414
16745TIP3   OH271725   3.182   2.413  13.571  0.5931 -0.1233  0.5210
16745TIP3    H171726   3.275   2.390  13.565  0.7418 -0.2315  2.4366
16745TIP3    H271727   3.146   2.349  13.633 -0.2533  1.2650  1.5151
16746TIP3   OH271728   2.671   3.048   5.377 -0.2325 -0.2658  0.2303
16746TIP3    H171729   2.603   2.984   5.357  0.5662 -1.0909  0.0853
16746TIP3    H271730   2.624   3.123   5.415 -1.4201 -0.1005 -1.4532
16747TIP3   OH271731   3.114   4.566  14.635  0.0264 -0.1449 -0.3772
16747TIP3    H171732   3.187   4.582  14.575  0.8604  1.9638  1.0972
16747TIP3    H271733   3.044   4.624  14.605 -0.2713 -0.5344 -0.4559
16748TIP3   OH271734   2.750   5.619   2.164  0.4468  0.0337  0.0112
16748TIP3    H171735   2.708   5.567   2.233 -2.5049 -0.0438 -1.6654
16748TIP3    H271736   2.679   5.641   2.104  2.6995  0.8158 -2.5859
16749TIP3   OH271737   5.581   5.173  14.387  0.1666  0.2388  0.8314
16749TIP3    H171738   5.502   5.129  14.354  0.7781 -0.3503  0.1311
16749TIP3    H271739   5.588   5.144  14.478  0.1645 -0.5563  0.5845
16750TIP3   OH271740   5.315   5.659   5.539 -0.2883 -0.3183 -0.0304
16750TIP3    H171741   5.324   5.706   5.456  0.0990  1.0063  0.7364
16750TIP3    H271742   5.231   5.614   5.531 -1.7368  2.2125 -0.0113
16751TIP3   OH271743   5.434   4.607   4.466  0.5359  0.0046  0.2200
16751TIP3    H171744   5.380   4.557   4.405  0.8449 -0.5337  0.3826
16751TIP3    H271745   5.410   4.699   4.450 -1.1211 -0.2675  0.9503
16752TIP3   OH271746   1.407   6.761  16.262 -0.4520 -0.3274  0.2607
16752TIP3    H171747   1.420   6.840  16.208  0.1456 -0.6155 -0.0310
16752TIP3    H271748   1.496   6.730  16.280 -0.6795 -0.7804  0.6081
16753TIP3   OH271749   1.496   3.073   4.180 -0.3529  0.5086  0.4518
16753TIP3    H171750   1.574   3.047   4.131 -1.0238  0.4121 -0.5718
16753TIP3    H271751   1.487   3.167   4.162  0.4574  0.8991  1.9012
16754TIP3   OH271752   5.463   0.166  11.842 -0.2495  0.5900 -0.0145
16754TIP3    H171753   5.491   0.159  11.751 -0.7882  0.6475 -0.1873
16754TIP3    H271754   5.544   0.184  11.891  0.0825  0.2620 -0.4404
16755TIP3   OH271755   5.962   1.599   4.405 -0.4810  0.0749  0.0804
16755TIP3    H171756   5.918   1.554   4.333 -0.0042  2.1675 -1.6228
16755TIP3    H271757   6.050   1.617   4.371  0.2036 -0.0744  1.7099
16756TIP3   OH271758   5.923   0.250  12.009  0.3899 -0.1439  0.0407
16756TIP3    H171759   5.998   0.272  12.064 -0.0121  1.5998 -0.0502
16756TIP3    H271760   5.878   0.181  12.057  0.3570  0.9538  1.6796
16757TIP3   OH271761   2.782   4.267   1.902 -0.3035  0.5933 -0.0739
16757TIP3    H171762   2.700   4.225   1.875  0.3593  0.0543 -1.3321
16757TIP3    H271763   2.843   4.195   1.913  0.5501  1.1311 -1.1557
16758TIP3   OH271764   1.054   3.913  13.499 -0.2585  0.5013  0.0203
16758TIP3    H171765   1.110   3.938  13.426  0.0845  0.3442  0.2248
16758TIP3    H271766   1.115   3.896  13.571 -0.6791  2.9930  1.0792
16759TIP3   OH271767   5.586   5.962  13.567 -0.1337 -0.5924 -0.1620
16759TIP3    H171768   5.618   6.040  13.612  0.4166 -1.1065  0.3523
16759TIP3    H271769   5.542   5.911  13.635 -1.3923 -0.2662 -0.7008
16760TIP3   OH271770   1.330   5.501  15.218  0.5538  0.7857  0.6209
16760TIP3    H171771   1.346   5.432  15.282  1.4223  0.3795 -0.0087
16760TIP3    H271772   1.387   5.573  15.245 -1.4368  1.8882  2.1491
16761TIP3   OH271773   1.499   6.565  13.797 -0.2567  0.4124 -0.2114
16761TIP3    H171774   1.552   6.580  13.719 -0.8274  0.6442 -0.5639
16761TIP3    H271775   1.531   6.628  13.861  0.1561  0.2798 -0.2862
16762TIP3   OH271776   2.934   4.576   1.866 -0.5425  0.2701  0.6342
16762TIP3    H171777   2.975   4.623   1.793  0.0366 -1.8687 -0.5037
16762TIP3    H271778   2.851   4.622   1.880 -0.0290  1.5977 -0.4042
16763TIP3   OH271779   5.589   4.205   4.906 -0.1527  0.2675  0.5363
16763TIP3    H171780   5.678   4.231   4.931  0.4469 -1.1237 -0.0779
16763TIP3    H271781   5.600   4.158   4.824 -1.6675  1.4849 -0.4283
16764TIP3   OH271782   6.047   0.411  14.609 -0.7094 -0.0895  0.3737
16764TIP3    H171783   6.091   0.421  14.524 -1.4039  0.5932  0.0903
16764TIP3    H271784   5.991   0.334  14.598 -0.1296 -0.5424  0.5122
16765TIP3   OH271785   0.063   4.127  15.279 -0.3583 -0.1748 -0.1171
16765TIP3    H171786   0.104   4.156  15.198 -2.0210 -1.3083 -1.4332
16765TIP3    H271787   0.087   4.193  15.344  2.4761 -0.1366 -1.0565
16766TIP3   OH271788   3.551   1.044   4.922 -0.6100 -0.2466 -0.6150
16766TIP3    H171789   3.600   1.002   4.851 -0.2033 -1.0859  0.1473
16766TIP3    H271790   3.459   1.036   4.895 -0.3683  1.5349 -2.1663
16767TIP3   OH271791   4.609   2.791   5.424 -0.2994  0.3802 -0.2077
16767TIP3    H171792   4.583   2.881   5.442 -0.3567  0.5155 -0.9378
16767TIP3    H271793   4.612   2.785   5.328  1.1087  0.0186 -0.1645
16768TIP3   OH271794   4.489   6.080   0.627  0.0975 -0.6054 -0.2045
16768TIP3    H171795   4.518   5.990   0.642  1.7660  0.0188  0.5174
16768TIP3    H271796   4.540   6.109   0.552 -1.6887 -0.7752 -1.5555
16769TIP3   OH271797   2.243   2.825   3.041 -0.0331  0.0353  0.1592
16769TIP3    H171798   2.191   2.906   3.035 -0.4010 -0.1162  1.0796
16769TIP3    H271799   2.243   2.804   3.135 -1.1157 -1.7825 -0.1936
16770TIP3   OH271800   2.082   6.383  13.924  0.2477  0.2247  0.1412
16770TIP3    H171801   2.039   6.298  13.908 -0.5265  0.6870 -0.3190
16770TIP3    H271802   2.034   6.420  13.998  0.4927  0.3235  0.2498
16771TIP3   OH271803   5.282   6.405   0.776  0.6117  0.3293  0.5810
16771TIP3    H171804   5.198   6.394   0.820  0.4055 -0.4917  0.0166
16771TIP3    H271805   5.280   6.494   0.742 -0.0593  0.3016  0.5326
16772TIP3   OH271806   2.587   5.626   3.151  0.1402 -0.0200 -0.0272
16772TIP3    H171807   2.608   5.633   3.058  0.4914  2.3876  0.1648
16772TIP3    H271808   2.658   5.574   3.188  0.9155  0.4447 -0.8304
16773TIP3   OH271809   6.542   3.122  12.500 -0.4017 -0.2253 -0.0699
16773TIP3    H171810   6.455   3.158  12.514 -0.7291 -0.4236 -1.4198
16773TIP3    H271811   6.597   3.165  12.564 -1.5366 -0.2717  0.9668
16774TIP3   OH271812   0.375   5.157  11.442  0.4933  0.6151 -0.6211
16774TIP3    H171813   0.337   5.227  11.390 -0.3328  0.3184 -0.4287
16774TIP3    H271814   0.416   5.099  11.378  0.6067  0.9287 -0.8322
16775TIP3   OH271815   5.293   5.667  13.968  0.0871 -0.2718  0.0711
16775TIP3    H171816   5.210   5.711  13.953  0.8181  0.7199 -1.2392
16775TIP3    H271817   5.335   5.719  14.038 -1.1201 -1.8581  2.0909
16776TIP3   OH271818   4.842   6.385   3.296 -0.6197  0.2992 -0.2157
16776TIP3    H171819   4.748   6.372   3.291 -1.0356  2.1727  1.4917
16776TIP3    H271820   4.859   6.456   3.233 -0.6785  1.2359  0.7968
16777TIP3   OH271821   5.773   1.239  11.781  0.1462 -0.6252  0.0017
16777TIP3    H171822   5.699   1.193  11.822 -0.4504  0.0665 -0.2820
16777TIP3    H271823   5.839   1.171  11.769  0.9684 -0.6075  3.4540
16778TIP3   OH271824   5.208   2.306  15.329 -0.0391 -0.0151 -0.7227
16778TIP3    H171825   5.289   2.287  15.376  0.0048 -0.3430 -0.9310
16778TIP3    H271826   5.221   2.393  15.292  0.1668 -0.0140 -0.6447
16779TIP3   OH271827   0.275   6.212  14.739 -0.1706 -0.2257 -0.6360
16779TIP3    H171828   0.292   6.305  14.750 -1.3133  0.2925 -2.8087
16779TIP3    H271829   0.341   6.182  14.677  1.5495 -1.4265  1.6045
16780TIP3   OH271830   6.728   3.728   1.619  0.4822  0.1057 -0.0129
16780TIP3    H171831   6.712   3.780   1.540 -0.4891  0.9036  0.6838
16780TIP3    H271832   6.780   3.654   1.588 -0.4387  0.0396 -1.5412
16781TIP3   OH271833   5.528   2.150   0.840 -1.0709  0.3599  0.2569
16781TIP3    H171834   5.581   2.076   0.870 -2.4666 -1.6644 -1.9935
16781TIP3    H271835   5.476   2.174   0.917 -1.4796 -1.8318  0.7418
16782TIP3   OH271836   0.307   5.954  13.443  0.4893  0.2609 -0.0701
16782TIP3    H171837   0.212   5.969  13.437  0.3653  0.2430  1.3707
16782TIP3    H271838   0.322   5.879  13.386 -0.3834  0.2180 -0.2700
16783TIP3   OH271839   5.410   4.826   0.554  0.0209  0.0443 -0.4553
16783TIP3    H171840   5.496   4.862   0.531 -0.5277  1.9406  0.2593
16783TIP3    H271841   5.396   4.756   0.491  1.1183  1.2092 -2.0822
16784TIP3   OH271842   0.373   1.576   2.288 -0.7613 -0.3156  0.7857
16784TIP3    H171843   0.293   1.540   2.324 -2.0981  2.0757  0.4297
16784TIP3    H271844   0.369   1.670   2.310  3.1072 -0.4350  2.8874
16785TIP3   OH271845   4.516   0.878  13.689  0.7941 -0.3742  0.0556
16785TIP3    H171846   4.464   0.816  13.741 -2.5096  0.4170 -1.9892
16785TIP3    H271847   4.468   0.961  13.696  0.1424 -0.2011 -3.9887
16786TIP3   OH271848   0.144   0.609   4.935  0.1129 -0.0191 -0.4118
16786TIP3    H171849   0.225   0.593   4.983  0.4001  0.1134 -0.8449
16786TIP3    H271850   0.116   0.522   4.906  1.3259  0.1333 -2.2044
16787TIP3   OH271851   4.438   3.658   4.015  0.2138  0.2293 -0.3298
16787TIP3    H171852   4.494   3.714   3.960 -0.0583  0.2469 -0.5937
16787TIP3    H271853   4.484   3.574   4.018 -0.3470 -0.1486 -1.5881
16788TIP3   OH271854   5.008   6.158  12.235 -0.4092 -0.2162 -0.3738
16788TIP3    H171855   4.940   6.132  12.298  0.0983 -1.6270 -0.3629
16788TIP3    H271856   5.045   6.239  12.271  0.1118 -1.1735  1.3547
16789TIP3   OH271857   4.985   0.934   1.238  0.0972  0.4707  0.1361
16789TIP3    H171858   4.982   0.845   1.272 -1.2170  0.5608  0.3047
16789TIP3    H271859   4.925   0.933   1.163  0.9219  0.9467 -0.5524
16790TIP3   OH271860   1.390   6.484   1.246 -0.1964 -0.2035 -0.3727
16790TIP3    H171861   1.334   6.487   1.169 -1.3523  0.7703  0.4567
16790TIP3    H271862   1.458   6.549   1.229  0.4616 -1.0970 -1.2142
16791TIP3   OH271863   1.114   1.344   2.765  0.0046 -0.5261  0.2920
16791TIP3    H171864   1.124   1.439   2.752 -1.0187 -0.3734  0.4806
16791TIP3    H271865   1.203   1.311   2.773  0.4311  0.2736 -0.8004
16792TIP3   OH271866   6.179   6.079   4.999  0.3530 -0.4385 -0.4114
16792TIP3    H171867   6.155   6.101   4.909 -0.4786  1.0874  0.1428
16792TIP3    H271868   6.251   6.139   5.021 -0.9177  0.7832  0.6250
16793TIP3   OH271869   0.735   1.924  14.007 -0.4969  0.2180 -0.5486
16793TIP3    H171870   0.652   1.877  13.999  0.2500 -1.2003 -0.2509
16793TIP3    H271871   0.801   1.856  14.017  0.6915  1.3236 -0.5140
16794TIP3   OH271872   0.988   3.746  14.494  0.0687 -0.2924  0.6360
16794TIP3    H171873   0.988   3.825  14.441 -2.0203  0.1961  1.2780
16794TIP3    H271874   0.911   3.697  14.466  0.5203 -1.4154  1.2420
16795TIP3   OH271875   1.370   1.641  14.048 -0.0061  0.1272  0.8373
16795TIP3    H171876   1.384   1.628  13.954  1.1633 -0.9155  1.1190
16795TIP3    H271877   1.319   1.565  14.075  1.4629 -0.7218  1.3821
16796TIP3   OH271878   5.879   4.043  12.349  0.2065 -0.4750 -0.1169
16796TIP3    H171879   5.798   4.093  12.336  0.1788 -0.4168  0.2605
16796TIP3    H271880   5.854   3.952  12.335  0.0769 -0.4558 -0.0183
16797TIP3   OH271881   6.740   4.961  16.269  0.3339  0.1842 -0.2947
16797TIP3    H171882   6.656   5.005  16.257  0.2070 -0.0944 -0.4528
16797TIP3    H271883   6.751   4.954  16.364  0.4980  0.8253 -0.2660
16798TIP3   OH271884   6.578   0.945   3.012  0.3257 -0.0629  0.1506
16798TIP3    H171885   6.533   0.860   3.010  1.4191 -0.6709  0.6063
16798TIP3    H271886   6.595   0.961   3.104 -1.0509  1.3199  0.2016
16799TIP3   OH271887   1.651   2.634   0.407  0.1588  0.1028 -0.6071
16799TIP3    H171888   1.614   2.549   0.431 -1.2400  0.4877 -1.3087
16799TIP3    H271889   1.725   2.645   0.466 -0.6770 -0.8369  0.6771
16800TIP3   OH271890   2.937   1.122   0.480  0.0175 -0.3934  0.0000
16800TIP3    H171891   2.849   1.092   0.460  0.9003 -1.4642 -2.6604
16800TIP3    H271892   2.989   1.041   0.485  1.3506  0.3505 -1.3364
16801TIP3   OH271893   2.629   5.102   2.054 -0.1455  0.2927  0.3975
16801TIP3    H171894   2.546   5.098   2.102  0.4140 -1.1453  1.3153
16801TIP3    H271895   2.641   5.014   2.019  1.5991  0.0807  1.3845
16802TIP3   OH271896   6.344   1.962  12.834  0.4319  0.3702  0.5622
16802TIP3    H171897   6.345   1.962  12.929 -0.7697  1.6742  0.6006
16802TIP3    H271898   6.267   1.911  12.810 -0.2857  1.5223  0.3488
16803TIP3   OH271899   5.072   4.631   1.387  0.1004 -0.0488  0.5421
16803TIP3    H171900   5.125   4.586   1.321  0.7288 -0.0620  1.0437
16803TIP3    H271901   5.088   4.582   1.468  0.1690  0.5990  0.9286
16804TIP3   OH271902   2.756   6.200  15.958  0.1485 -0.0018 -0.4446
16804TIP3    H171903   2.705   6.272  15.922  1.2763  0.2340 -1.6352
16804TIP3    H271904   2.755   6.133  15.889  2.4206  0.4935 -1.0454
16805TIP3   OH271905   4.287   5.507   3.954  0.7776  0.4963  0.4974
16805TIP3    H171906   4.202   5.545   3.978 -0.0723 -1.0246  0.0076
16805TIP3    H271907   4.338   5.581   3.923 -0.1989  1.5233  1.2383
16806TIP3   OH271908   0.263   5.607  16.516 -0.0870 -0.1618 -0.3186
16806TIP3    H171909   0.305   5.536  16.565  1.1986  1.8599  1.7235
16806TIP3    H271910   0.330   5.638  16.456 -0.7687 -0.8372 -1.4776
16807TIP3   OH271911   5.893   0.419  13.094  0.0700 -0.3071  0.3983
16807TIP3    H171912   5.821   0.400  13.034  0.8865 -3.3600  0.2396
16807TIP3    H271913   5.856   0.407  13.181  0.3555 -2.0303  0.3143
16808TIP3   OH271914   2.770   1.050  14.031  0.8311  0.0971 -0.2984
16808TIP3    H171915   2.740   1.117  14.093 -0.2583 -1.9410  1.5274
16808TIP3    H271916   2.722   0.971  14.056  1.8477 -1.3356 -2.5276
16809TIP3   OH271917   4.519   0.258   0.768  0.3366 -0.0315  0.6480
16809TIP3    H171918   4.450   0.298   0.820 -2.6246 -1.4975 -1.8270
16809TIP3    H271919   4.550   0.328   0.711  0.6970  0.5582  1.5481
16810TIP3   OH271920   1.838   1.246   2.832 -0.1545 -0.1811  0.2979
16810TIP3    H171921   1.747   1.230   2.860  0.0944 -0.4187  1.0096
16810TIP3    H271922   1.837   1.229   2.738 -0.7604 -0.5892  0.3665
16811TIP3   OH271923   1.330   0.345   4.927  0.0560 -0.2276  0.1746
16811TIP3    H171924   1.245   0.382   4.904  0.1410  0.8762  1.5118
16811TIP3    H271925   1.350   0.382   5.013  1.1400 -1.7623  0.6300
16812TIP3   OH271926   1.796   6.746   6.016 -0.5932  0.5000 -0.1941
16812TIP3    H171927   1.729   6.760   6.083 -0.9786  3.7893 -1.1097
16812TIP3    H271928   1.876   6.728   6.065 -1.2005  1.1958  1.0904
16813TIP3   OH271929   0.847   6.339   5.039  0.3072 -0.6701 -0.0718
16813TIP3    H171930   0.893   6.267   4.996 -1.7756 -2.2159  0.1204
16813TIP3    H271931   0.762   6.303   5.062 -1.3229  2.1921 -1.0176
16814TIP3   OH271932   1.022   4.557  16.681 -0.2137  0.1417  0.6070
16814TIP3    H171933   0.974   4.630  16.641  0.5224 -0.5671 -1.7694
16814TIP3    H271934   0.955   4.493  16.704 -0.5994 -0.4686 -1.8790
16815TIP3   OH271935   0.828   4.379   3.865 -0.0215  0.6090 -0.7886
16815TIP3    H171936   0.778   4.301   3.889  2.1000 -0.5021  0.3144
16815TIP3    H271937   0.825   4.381   3.769 -0.9186 -0.2633 -0.7932
16816TIP3   OH271938   4.586   6.240   3.885  0.0737 -0.4028 -0.0380
16816TIP3    H171939   4.651   6.173   3.910 -0.9001 -1.7179 -0.8834
16816TIP3    H271940   4.599   6.310   3.948  2.1017 -0.7583  0.0322
16817TIP3   OH271941   4.012   5.055  14.573 -0.2468  0.1617 -0.1564
16817TIP3    H171942   3.957   5.084  14.646  1.4432  0.5242  1.0209
16817TIP3    H271943   4.074   5.126  14.559  0.3743 -0.5193 -0.9838
16818TIP3   OH271944   4.647   2.098   2.125 -0.1712  0.0891  0.2627
16818TIP3    H171945   4.596   2.147   2.189 -1.7886 -0.6910 -0.3624
16818TIP3    H271946   4.589   2.027   2.097  1.0727 -0.5320 -0.9023
16819TIP3   OH271947   5.543   3.375  16.924 -0.3677 -0.0780 -0.3947
16819TIP3    H171948   5.549   3.366  16.829  0.0523  0.7535 -0.4560
16819TIP3    H271949   5.467   3.323  16.949 -1.4802  1.0339 -1.3828
16820TIP3   OH271950   1.717   3.725   5.870 -0.2247 -0.0419  0.1558
16820TIP3    H171951   1.774   3.683   5.935 -0.0565 -0.3833 -0.2011
16820TIP3    H271952   1.754   3.813   5.859 -0.6873  0.2713  1.0421
16821TIP3   OH271953   4.269   4.467  11.729  0.0911  0.7085 -0.4694
16821TIP3    H171954   4.289   4.554  11.763  1.2563  0.5547 -0.6975
16821TIP3    H271955   4.355   4.424  11.724 -0.4367 -0.3549 -0.6148
16822TIP3   OH271956   3.590   6.043   3.151  0.2760  0.1987 -0.1273
16822TIP3    H171957   3.645   5.964   3.160  0.9588  0.4205 -1.9933
16822TIP3    H271958   3.597   6.086   3.236 -0.0837 -1.7199  0.9281
16823TIP3   OH271959   1.682   3.416  14.445  0.3363  0.3832  0.2596
16823TIP3    H171960   1.640   3.345  14.495 -0.1437 -0.4490 -1.2447
16823TIP3    H271961   1.769   3.383  14.426  0.5925  0.7899  0.7075
16824TIP3   OH271962   6.073   1.729  11.467  0.5575 -0.5010 -0.2188
16824TIP3    H171963   6.128   1.706  11.392  0.1891 -2.8081  0.1313
16824TIP3    H271964   6.131   1.721  11.542  0.8224  1.4181 -0.1788
16825TIP3   OH271965   4.134   4.262  12.315  0.1423 -0.0235 -0.1428
16825TIP3    H171966   4.092   4.176  12.313 -0.3874  0.2453 -0.8423
16825TIP3    H271967   4.098   4.308  12.239  1.7837  0.1735 -0.8417
16826TIP3   OH271968   0.002   1.923  15.271  0.2683  0.2264 -0.0381
16826TIP3    H171969   0.032   1.850  15.217  2.0346  0.8159  0.0834
16826TIP3    H271970   0.021   1.896  15.360 -0.9785  0.0058  0.1770
16827TIP3   OH271971   1.463   0.408   5.198 -0.0319  0.3800  0.2208
16827TIP3    H171972   1.451   0.320   5.162 -2.8946 -0.7580  3.4032
16827TIP3    H271973   1.519   0.395   5.275 -0.7637  1.2521  0.9267
16828TIP3   OH271974   3.602   6.539   4.333  0.1865 -0.0119 -0.3411
16828TIP3    H171975   3.661   6.588   4.391 -0.0233  0.1721 -0.2812
16828TIP3    H271976   3.656   6.516   4.258  0.6490 -0.8372  0.2276
16829TIP3   OH271977   5.096   1.156   2.718  0.0740 -0.5186 -0.4003
16829TIP3    H171978   5.184   1.134   2.687 -0.4591 -2.2759 -0.7828
16829TIP3    H271979   5.095   1.127   2.810  0.4591  1.2201  0.1797
16830TIP3   OH271980   3.370   5.618   3.198  0.4552  0.1010 -0.2736
16830TIP3    H171981   3.357   5.614   3.103 -0.0016 -0.4501 -0.1902
16830TIP3    H271982   3.332   5.702   3.224 -2.8312 -1.3151 -0.0714
16831TIP3   OH271983   0.818   4.832  11.692 -0.2301  0.3377  0.0040
16831TIP3    H171984   0.794   4.804  11.604 -0.6885  0.0969  0.2010
16831TIP3    H271985   0.753   4.899  11.715 -0.3795  0.0870  0.3243
16832TIP3   OH271986   3.492   0.127  14.650 -0.2160  0.4873  0.0598
16832TIP3    H171987   3.551   0.170  14.712 -1.0435 -0.2844  1.4355
16832TIP3    H271988   3.546   0.061  14.608 -0.0406 -0.1685  1.2611
16833TIP3   OH271989   5.730   3.827  13.309 -0.3070 -0.1648 -0.3069
16833TIP3    H171990   5.643   3.816  13.270 -0.9704 -0.3111  1.1499
16833TIP3    H271991   5.758   3.914  13.281 -1.6365  0.5497  0.4889
16834TIP3   OH271992   2.710   3.830  15.673 -0.2163 -0.0354  0.3458
16834TIP3    H171993   2.753   3.745  15.668 -0.2639  0.0384 -2.3548
16834TIP3    H271994   2.781   3.894  15.664 -0.5141  0.1246 -1.1057
16835TIP3   OH271995   4.628   5.148   1.789  0.8355  0.3180  0.1820
16835TIP3    H171996   4.571   5.155   1.866  1.5074 -0.8679  0.8333
16835TIP3    H271997   4.571   5.165   1.715 -0.2326 -0.2081  0.8495
16836TIP3   OH271998   1.729   3.443   0.197 -0.5390  0.0867  0.9813
16836TIP3    H171999   1.646   3.429   0.244 -2.6636 -0.2909 -2.5279
16836TIP3    H272000   1.724   3.382   0.123  2.6004  0.6065  0.2413
16837TIP3   OH272001   5.025   1.934   3.087  0.4441  0.1965 -0.4277
16837TIP3    H172002   4.981   1.909   3.168  0.5411  0.1007 -0.4046
16837TIP3    H272003   4.985   1.878   3.020 -1.5810  2.1158 -0.9384
16838TIP3   OH272004   4.295   2.616   3.232  0.2286  0.3989 -0.4286
16838TIP3    H172005   4.232   2.550   3.204 -0.6812  0.1082  2.0126
16838TIP3    H272006   4.251   2.662   3.304  2.6710  0.3987  1.1731
16839TIP3   OH272007   1.891   6.022  15.876 -0.2484  0.4059  0.5035
16839TIP3    H172008   1.879   6.048  15.785  3.4405 -0.0178 -0.2573
16839TIP3    H272009   1.851   6.094  15.926  0.1543  2.1216 -1.4671
16840TIP3   OH272010   1.356   2.244   2.551 -0.0214 -0.0014  0.3245
16840TIP3    H172011   1.316   2.160   2.575  0.4103 -0.4153 -0.3486
16840TIP3    H272012   1.348   2.298   2.629  1.9144 -1.5107  1.6714
16841TIP3   OH272013   1.101   6.211  11.743 -0.4378 -0.5200 -0.1231
16841TIP3    H172014   1.123   6.180  11.831 -0.1972  0.0169  0.0091
16841TIP3    H272015   1.142   6.147  11.685  1.7073  0.5772  0.1110
16842TIP3   OH272016   2.274   2.772  17.153  0.0095  0.1575  0.5697
16842TIP3    H172017   2.295   2.864  17.170 -0.9066  0.4731  0.1201
16842TIP3    H272018   2.311   2.724  17.227 -0.0611  0.9671  1.1440
16843TIP3   OH272019   6.470   6.296   3.034  0.8474 -0.3648 -0.5534
16843TIP3    H172020   6.479   6.326   2.944  0.8825 -1.3584 -0.8989
16843TIP3    H272021   6.417   6.363   3.077 -0.1629 -0.4463 -1.6172
16844TIP3   OH272022   1.384   3.219  11.784  0.6078 -0.1270 -0.0731
16844TIP3    H172023   1.426   3.139  11.815  2.4374  0.5060 -0.7841
16844TIP3    H272024   1.431   3.241  11.704  1.6743  2.8033  1.2146
16845TIP3   OH272025   0.957   0.362  10.835 -0.0258  0.4723  0.3089
16845TIP3    H172026   0.870   0.404  10.833 -0.4180 -0.1023  2.4278
16845TIP3    H272027   1.015   0.425  10.793 -1.4127  0.9880 -0.9129
16846TIP3   OH272028   3.444   1.679   3.789 -0.2732  0.0731  0.1114
16846TIP3    H172029   3.371   1.638   3.744  0.5008  0.6108 -1.7598
16846TIP3    H272030   3.412   1.766   3.812 -0.4555  0.0654 -0.1021
16847TIP3   OH272031   2.217   2.054   0.760  0.1927 -0.2184  0.0689
16847TIP3    H172032   2.144   2.068   0.821  1.1437 -0.7297  1.3896
16847TIP3    H272033   2.257   1.972   0.789  1.7783  0.4571 -0.0944
16848TIP3   OH272034   2.285   2.560   4.529 -0.1813 -0.5493 -0.1522
16848TIP3    H172035   2.228   2.627   4.491 -2.0779 -2.4495 -0.9119
16848TIP3    H272036   2.324   2.516   4.453  1.0376 -0.3400  0.3312
16849TIP3   OH272037   3.006   1.879   5.040  0.3496  0.3113  0.3617
16849TIP3    H172038   3.096   1.870   5.073 -0.0257 -2.0707  0.9051
16849TIP3    H272039   2.979   1.790   5.020 -1.5891  1.0832 -0.6952
16850TIP3   OH272040   6.525   4.460   3.414 -0.2767  0.2533 -0.3311
16850TIP3    H172041   6.471   4.510   3.353 -1.4332 -0.4531  0.0741
16850TIP3    H272042   6.514   4.505   3.498 -1.4066 -0.6887  0.0585
16851TIP3   OH272043   5.075   3.654   0.393 -0.1114 -0.1910  0.1197
16851TIP3    H172044   5.090   3.749   0.399 -0.2029 -0.2186  0.8575
16851TIP3    H272045   5.112   3.629   0.308  0.4010  0.4114  0.1612
16852TIP3   OH272046   5.489   5.309  13.526  0.2547 -0.1208  0.1823
16852TIP3    H172047   5.422   5.242  13.514  1.5803 -1.2637 -1.1064
16852TIP3    H272048   5.442   5.392  13.515 -1.1552 -0.8576  0.4793
16853TIP3   OH272049   0.136   0.482   4.250 -0.2626 -0.8431 -0.0042
16853TIP3    H172050   0.218   0.435   4.232 -0.2600 -0.6026 -0.6444
16853TIP3    H272051   0.146   0.566   4.205 -0.0471  0.0130  1.5732
16854TIP3   OH272052   5.389   4.536   6.060  0.8030 -0.2499  0.0684
16854TIP3    H172053   5.387   4.504   6.150 -2.3997 -1.4040 -0.2793
16854TIP3    H272054   5.309   4.589   6.052  1.2624  0.2235 -1.9628
16855TIP3   OH272055   3.120   4.862   0.324  0.1303  0.4573 -0.2244
16855TIP3    H172056   3.104   4.870   0.230 -0.4808 -0.5697 -0.2125
16855TIP3    H272057   3.034   4.871   0.365  0.4060  1.0205  0.2601
16856TIP3   OH272058   1.906   1.409  15.037 -0.1590 -0.3257  0.2584
16856TIP3    H172059   1.880   1.341  15.098 -0.1602  0.3295  0.9987
16856TIP3    H272060   1.839   1.476  15.045  0.5410  0.3531  0.5034
16857TIP3   OH272061   0.510   4.536   5.935  0.0498 -0.3254  0.0729
16857TIP3    H172062   0.414   4.532   5.938  0.0535  0.2059  2.3951
16857TIP3    H272063   0.531   4.619   5.977  1.5516 -0.0156 -1.1990
16858TIP3   OH272064   5.996   3.971   4.005  0.0118  0.2664  0.2934
16858TIP3    H172065   5.913   3.926   3.987  0.4032  0.1814 -1.5088
16858TIP3    H272066   6.056   3.901   4.029 -0.4153  0.3297  1.6274
16859TIP3   OH272067   4.145   5.015   5.596  0.0417 -0.3560  0.5214
16859TIP3    H172068   4.115   5.070   5.668 -0.6470  0.9916 -0.7359
16859TIP3    H272069   4.188   5.076   5.536 -2.6784 -0.7280 -1.9935
16860TIP3   OH272070   1.676   5.083   0.962  0.3779  0.0361  0.6159
16860TIP3    H172071   1.591   5.075   0.918  0.0079  1.9023  0.8959
16860TIP3    H272072   1.741   5.077   0.891  0.1172 -2.2211  0.4890
16861TIP3   OH272073   6.158   2.884   4.775  0.3561 -0.1995 -0.3481
16861TIP3    H172074   6.152   2.868   4.870 -0.9629  0.4170 -0.3023
16861TIP3    H272075   6.161   2.797   4.736 -1.4445 -0.5491  0.1677
16862TIP3   OH272076   6.478   3.810   6.414 -0.2762  0.0622  0.0520
16862TIP3    H172077   6.453   3.894   6.453 -1.0563 -1.1578  2.3947
16862TIP3    H272078   6.560   3.787   6.457  0.3794 -0.0427 -1.1910
16863TIP3   OH272079   2.232   5.113  14.724 -1.0789  0.0831  0.0894
16863TIP3    H172080   2.210   5.090  14.634 -0.9735  1.2194 -0.2475
16863TIP3    H272081   2.310   5.062  14.744 -0.2721  0.8562 -0.9641
16864TIP3   OH272082   5.629   4.961   3.453  0.0708  0.6439 -0.6541
16864TIP3    H172083   5.573   5.036   3.431  0.6505  1.3624  0.2571
16864TIP3    H272084   5.580   4.915   3.521  1.0504  1.9055  0.9631
16865TIP3   OH272085   4.809   2.057   1.182 -0.4717  0.4551  0.4289
16865TIP3    H172086   4.846   1.984   1.231  0.6713  1.8651  1.7285
16865TIP3    H272087   4.789   2.020   1.096 -1.7683 -1.8767  1.6294
16866TIP3   OH272088   4.306   4.745  14.660 -0.0103 -0.1978 -0.4451
16866TIP3    H172089   4.290   4.809  14.591 -0.3319 -1.1804 -1.2957
16866TIP3    H272090   4.249   4.672  14.639 -1.1995  0.0309  1.6462
16867TIP3   OH272091   5.935   5.979  16.137 -0.2318  0.1684 -0.1379
16867TIP3    H172092   6.011   5.979  16.195  1.1996  1.5740 -1.8663
16867TIP3    H272093   5.921   5.887  16.116  1.5686 -0.0825 -0.4274
16868TIP3   OH272094   0.247   6.794  13.289 -0.0768 -0.3299 -0.3475
16868TIP3    H172095   0.261   6.787  13.195 -1.3101 -0.4153 -0.5482
16868TIP3    H272096   0.187   6.722  13.309 -0.9374  0.5316  0.2491
16869TIP3   OH272097   2.060   5.269   5.480  0.2354  0.1470  0.2032
16869TIP3    H172098   2.033   5.345   5.429 -1.3828  0.0542  0.8459
16869TIP3    H272099   2.022   5.284   5.566  2.8514  0.2797  1.4453
16870TIP3   OH272100   0.772   1.458   2.694  0.0560  0.0734  0.9149
16870TIP3    H172101   0.811   1.375   2.667 -1.3292 -0.4999  0.5833
16870TIP3    H272102   0.697   1.469   2.635  1.4051  2.6191 -0.4835
16871TIP3   OH272103   3.493   5.503   1.694 -0.5446  0.2787 -0.3457
16871TIP3    H172104   3.534   5.442   1.633 -2.5660 -1.5291 -0.0313
16871TIP3    H272105   3.526   5.476   1.780 -1.9886 -0.9278 -0.1317
16872TIP3   OH272106   5.922   1.288   6.095  0.1662 -0.7319 -0.2801
16872TIP3    H172107   5.920   1.349   6.169 -0.6552 -2.4540  1.1729
16872TIP3    H272108   5.834   1.292   6.058 -0.0801 -1.4810  0.2122
16873TIP3   OH272109   3.405   5.969   0.233  0.3776 -0.1529  0.2764
16873TIP3    H172110   3.323   5.935   0.269 -0.4936  2.0090  0.4320
16873TIP3    H272111   3.381   6.005   0.148  1.7771 -2.0802 -1.0406
16874TIP3   OH272112   2.296   6.292  10.980 -0.0042 -0.2008  0.5338
16874TIP3    H172113   2.355   6.218  10.996  2.3807  1.7001  0.9858
16874TIP3    H272114   2.286   6.334  11.065 -0.0609  0.8980 -0.0063
16875TIP3   OH272115   0.850   3.173  17.135 -0.4279  0.6516  0.0915
16875TIP3    H172116   0.799   3.178  17.055 -0.5966 -0.9256  0.0654
16875TIP3    H272117   0.792   3.129  17.198  0.1761  0.6475  0.6589
16876TIP3   OH272118   3.658   2.176  13.210  0.8138  0.7015 -0.1066
16876TIP3    H172119   3.720   2.249  13.198  1.0313  0.7221  1.0005
16876TIP3    H272120   3.702   2.118  13.272  1.0065 -0.8208 -1.6008
16877TIP3   OH272121   5.636   2.787   1.207 -0.2702  0.4425  0.4358
16877TIP3    H172122   5.702   2.782   1.138 -0.4554  0.4279  0.2584
16877TIP3    H272123   5.583   2.863   1.184  0.0305  0.7944  0.8904
16878TIP3   OH272124   2.443   0.938  13.878  0.0613  0.3133  0.3297
16878TIP3    H172125   2.356   0.899  13.867 -0.3631  1.1174  0.7841
16878TIP3    H272126   2.439   0.984  13.962  0.5844  1.2248 -0.1227
16879TIP3   OH272127   3.083   5.825  14.472 -0.2492 -0.2878  0.6187
16879TIP3    H172128   3.107   5.869  14.390 -1.1240  0.6731  0.8608
16879TIP3    H272129   3.164   5.826  14.523  0.1587 -0.3889 -0.0065
16880TIP3   OH272130   4.054   5.706  11.412  0.0258  0.0054 -0.1741
16880TIP3    H172131   3.992   5.647  11.455  1.4876 -2.2773 -1.0262
16880TIP3    H272132   4.127   5.713  11.473 -0.5229  1.7835  0.3383
16881TIP3   OH272133   5.242   6.785   1.596  0.1335  0.2065 -0.2889
16881TIP3    H172134   5.242   6.791   1.692 -0.1151 -1.3707 -0.1642
16881TIP3    H272135   5.334   6.773   1.572 -0.0139 -1.9499 -0.0049
16882TIP3   OH272136   2.117   5.470  15.819  0.7107  0.3199 -0.3611
16882TIP3    H172137   2.087   5.416  15.745  0.4106  1.1214 -0.8429
16882TIP3    H272138   2.037   5.507  15.855  0.1141 -3.9140  3.6518
16883TIP3   OH272139   1.640   6.609  14.260  0.4233  0.4609  0.1478
16883TIP3    H172140   1.603   6.624  14.173  0.6325  1.4168  0.2076
16883TIP3    H272141   1.715   6.669  14.264  0.2973  0.5658  1.0516
16884TIP3   OH272142   0.369   0.765   2.450  0.2145 -0.8366 -0.2574
16884TIP3    H172143   0.346   0.809   2.532  0.2595 -0.9674 -0.1743
16884TIP3    H272144   0.421   0.829   2.402  2.0809 -1.5197  0.7537
16885TIP3   OH272145   6.523   1.330   0.455 -0.2192 -0.1040 -0.0511
16885TIP3    H172146   6.478   1.397   0.404  1.5377  0.3859 -1.0254
16885TIP3    H272147   6.525   1.253   0.398 -0.9914 -0.5827  0.5300
16886TIP3   OH272148   3.867   2.176  16.168 -0.0045  0.6518 -0.1849
16886TIP3    H172149   3.777   2.150  16.188  0.2072  0.1404  0.1025
16886TIP3    H272150   3.872   2.267  16.197 -0.1908  0.4339  0.5536
16887TIP3   OH272151   0.458   3.651   1.417  0.4431  0.5276  0.1708
16887TIP3    H172152   0.507   3.732   1.432 -0.8811  1.2077  0.9913
16887TIP3    H272153   0.503   3.585   1.470  0.0598  1.3177  1.5259
16888TIP3   OH272154   3.784   5.525  10.461  0.3337 -0.4346  0.0500
16888TIP3    H172155   3.836   5.473  10.400  0.7886 -0.1169  0.1630
16888TIP3    H272156   3.745   5.461  10.520  2.5025 -0.5512  1.4602
16889TIP3   OH272157   1.677   0.796  13.798  0.5211 -0.3901  0.0032
16889TIP3    H172158   1.629   0.721  13.763 -1.1161  0.3025  0.7001
16889TIP3    H272159   1.662   0.865  13.734 -1.9925  0.7081  1.6423
16890TIP3   OH272160   3.767   1.926   5.491  0.1944  0.3104  0.3186
16890TIP3    H172161   3.792   2.006   5.536 -1.4986  0.7048  0.6114
16890TIP3    H272162   3.828   1.860   5.524  1.1789  1.3191  0.5727
16891TIP3   OH272163   0.517   0.402   5.848 -0.0278  0.1228 -0.1788
16891TIP3    H172164   0.504   0.337   5.917 -0.8804  0.4302 -0.0455
16891TIP3    H272165   0.601   0.377   5.808  0.0617 -0.5589  0.4089
16892TIP3   OH272166   4.776   0.903  15.250 -0.1685 -0.5055 -0.1171
16892TIP3    H172167   4.748   0.957  15.323  2.6409 -1.4193  1.7991
16892TIP3    H272168   4.845   0.953  15.207  2.1746 -2.1647  1.4285
16893TIP3   OH272169   5.545   1.451   3.497 -0.4575  0.2295 -0.7752
16893TIP3    H172170   5.454   1.456   3.468 -0.0530 -0.3652 -2.2631
16893TIP3    H272171   5.544   1.484   3.586 -1.9088  1.5475 -1.2377
16894TIP3   OH272172   4.985   4.366  11.655  0.1471 -0.1328  0.5464
16894TIP3    H172173   4.927   4.314  11.710  0.5226  0.3742  1.4253
16894TIP3    H272174   5.014   4.438  11.710 -0.8648  1.4208 -0.8348
16895TIP3   OH272175   4.680   3.777   2.450 -0.0107 -0.4483  0.0729
16895TIP3    H172176   4.698   3.860   2.494 -2.0981 -0.1690  0.5579
16895TIP3    H272177   4.762   3.753   2.408  0.9935  1.2275  0.9555
16896TIP3   OH272178   0.250   3.373   4.227  0.7367 -0.0322  0.2941
16896TIP3    H172179   0.193   3.320   4.171  1.7356 -1.8258  0.9248
16896TIP3    H272180   0.269   3.450   4.173  0.0848 -0.7736 -1.0685
16897TIP3   OH272181   1.213   6.224   3.492 -0.2583  0.5077  0.1938
16897TIP3    H172182   1.148   6.155   3.479  0.8209 -0.6365  0.7020
16897TIP3    H272183   1.172   6.284   3.554 -1.5234  0.7873 -0.8393
16898TIP3   OH272184   1.200   4.299   1.890 -0.6596  0.3169  0.0192
16898TIP3    H172185   1.141   4.356   1.840  0.2802  0.2497 -1.2085
16898TIP3    H272186   1.178   4.211   1.861 -0.2973  0.2532 -0.0601
16899TIP3   OH272187   3.439   3.560   0.918 -0.0994 -0.4884  0.0602
16899TIP3    H172188   3.410   3.599   1.001  0.3610 -1.5546  0.7399
16899TIP3    H272189   3.357   3.545   0.870 -0.3479  0.4434  0.1697
16900TIP3   OH272190   1.932   6.774  16.282 -0.0849  0.5544 -0.4263
16900TIP3    H172191   1.953   6.798  16.191 -0.9158 -1.6655 -1.2559
16900TIP3    H272192   2.017   6.751  16.321  0.1114  0.1676 -1.0693
16901TIP3   OH272193   4.451   1.648  13.590 -0.3023 -0.3201  0.1049
16901TIP3    H172194   4.474   1.556  13.575 -0.7483 -0.7987  2.0814
16901TIP3    H272195   4.432   1.653  13.683 -0.7133  1.7088 -0.0434
16902TIP3   OH272196   1.990   1.360  15.362  0.1094 -0.2660 -0.5458
16902TIP3    H172197   1.933   1.434  15.345 -0.8336 -0.9493 -0.4368
16902TIP3    H272198   1.975   1.300  15.289  0.1861 -0.7441 -0.1778
16903TIP3   OH272199   0.337   4.694   6.432  0.0448 -0.1387  0.1070
16903TIP3    H172200   0.335   4.762   6.499  0.1446  0.4145 -0.4524
16903TIP3    H272201   0.246   4.669   6.421 -0.2149  1.1708 -0.9618
16904TIP3   OH272202   1.891   2.005  14.885 -0.6711  0.1685  0.3441
16904TIP3    H172203   1.903   1.910  14.889 -1.1219  0.0610 -0.6174
16904TIP3    H272204   1.977   2.040  14.911 -0.2711 -0.5092 -0.0241
16905TIP3   OH272205   0.494   3.967  16.576  0.2517  0.4809  0.3654
16905TIP3    H172206   0.536   3.924  16.651 -1.4385  1.9847  2.2965
16905TIP3    H272207   0.402   3.943  16.582 -0.1778  1.8161 -0.3552
16906TIP3   OH272208   5.587   0.204   4.656 -0.4650  0.0652 -0.0476
16906TIP3    H172209   5.604   0.294   4.682 -1.2297 -0.1652  1.3462
16906TIP3    H272210   5.674   0.168   4.636 -0.2880  1.5719 -2.3703
16907TIP3   OH272211   2.150   1.078   5.810 -0.2810  0.1106  0.1982
16907TIP3    H172212   2.194   0.994   5.820  0.3354  0.4799  0.6672
16907TIP3    H272213   2.209   1.141   5.850 -1.8386  0.4454  2.1600
16908TIP3   OH272214   4.308   2.608  11.135  0.0984  0.5330 -0.3356
16908TIP3    H172215   4.296   2.632  11.043 -0.6297 -0.9108 -0.6510
16908TIP3    H272216   4.342   2.518  11.131  0.6497  0.6814  0.8024
16909TIP3   OH272217   2.178   6.122   1.898 -0.4421  0.2446  0.1029
16909TIP3    H172218   2.238   6.054   1.868  0.0511  0.7087  0.0202
16909TIP3    H272219   2.091   6.084   1.887 -0.1922 -0.2123 -0.3427
16910TIP3   OH272220   0.507   2.726   1.555 -0.6187  0.0493 -0.3618
16910TIP3    H172221   0.435   2.714   1.494  0.4208 -0.1330 -1.6096
16910TIP3    H272222   0.576   2.767   1.502 -0.3444  1.7116  1.1670
16911TIP3   OH272223   2.364   6.148  12.981 -0.8192  0.1055 -0.6000
16911TIP3    H172224   2.418   6.070  12.988 -1.3112 -0.3740 -1.9715
16911TIP3    H272225   2.312   6.147  13.062  0.2465 -0.1323  0.1109
16912TIP3   OH272226   4.472   1.160   1.985  0.1935 -0.1664  0.1638
16912TIP3    H172227   4.396   1.208   1.953 -0.1247  0.1991  1.4400
16912TIP3    H272228   4.497   1.205   2.066  0.7482 -1.2961  0.6429
16913TIP3   OH272229   6.009   3.106   1.774  0.2706 -0.0485  0.7029
16913TIP3    H172230   6.003   3.014   1.749 -0.2406  0.4023 -1.0051
16913TIP3    H272231   6.093   3.114   1.818  1.4760 -0.8810 -1.3339
16914TIP3   OH272232   1.942   0.119  11.899  0.0391  0.1931 -0.3058
16914TIP3    H172233   1.987   0.202  11.915  1.7632 -0.6737 -0.3542
16914TIP3    H272234   1.975   0.060  11.967 -0.3220 -0.7292 -0.9042
16915TIP3   OH272235   5.811   1.720  12.237  0.1303 -0.0399 -0.1899
16915TIP3    H172236   5.773   1.665  12.305  1.6912 -0.8963  0.0323
16915TIP3    H272237   5.741   1.730  12.172 -1.0732  0.0338  1.0721
16916TIP3   OH272238   1.323   1.282   3.134  0.0779  0.1391  0.4333
16916TIP3    H172239   1.309   1.294   3.040 -0.4834 -0.1160  0.4831
16916TIP3    H272240   1.368   1.362   3.161 -0.2934  0.4851  0.0539
16917TIP3   OH272241   3.012   4.751   5.310  0.0028  0.3600  0.0681
16917TIP3    H172242   3.082   4.748   5.244  2.3235  0.6535  2.3527
16917TIP3    H272243   2.975   4.663   5.309  1.9785 -0.5379  0.3082
16918TIP3   OH272244   4.825   1.106  15.629  0.4963  0.1132 -0.1805
16918TIP3    H172245   4.835   1.147  15.543  0.6448 -1.3034 -0.8751
16918TIP3    H272246   4.905   1.127  15.676 -0.1540  2.0476  0.1490
16919TIP3   OH272247   3.705   2.407  13.369  0.2231 -0.0988  0.4214
16919TIP3    H172248   3.626   2.354  13.378  0.4274 -0.8785 -1.6296
16919TIP3    H272249   3.674   2.496  13.358 -0.1230  0.3898  4.1678
16920TIP3   OH272250   2.908   1.387  12.832  0.7537  0.0307  0.1365
16920TIP3    H172251   2.839   1.392  12.898  0.0643  1.9888 -0.6668
16920TIP3    H272252   2.988   1.414  12.877  0.8454 -1.3124  0.8242
16921TIP3   OH272253   0.877   2.602   5.879 -0.0423  0.0739  0.1779
16921TIP3    H172254   0.906   2.666   5.945  0.4621  0.3679 -0.3206
16921TIP3    H272255   0.945   2.535   5.880 -0.7114 -0.6114  0.8980
16922TIP3   OH272256   0.371   3.444   3.929  0.2675 -0.2415 -0.5550
16922TIP3    H172257   0.447   3.486   3.889  0.5904 -0.2195  0.0701
16922TIP3    H272258   0.327   3.514   3.976 -1.7091  0.3859 -3.1224
16923TIP3   OH272259   2.201   0.912   5.525  0.6263 -0.1983 -0.0898
16923TIP3    H172260   2.197   0.833   5.471  0.6688 -0.2227 -0.0562
16923TIP3    H272261   2.258   0.889   5.598  0.5795 -0.1597 -0.0417
16924TIP3   OH272262   2.465   0.899   2.464  0.2446  0.6967 -0.0585
16924TIP3    H172263   2.414   0.958   2.409  0.5515  0.7636 -0.2738
16924TIP3    H272264   2.446   0.812   2.429  0.8855  0.7857 -0.6421
16925TIP3   OH272265   6.514   3.033  11.308 -0.4291 -0.1052  0.6010
16925TIP3    H172266   6.461   3.111  11.325 -0.8700  0.1119 -1.5300
16925TIP3    H272267   6.452   2.967  11.278  0.3505 -0.0371 -1.3374
16926TIP3   OH272268   6.187   2.820   4.246 -0.0697  0.2854  0.4181
16926TIP3    H172269   6.103   2.859   4.222  0.1849  0.3949 -0.3352
16926TIP3    H272270   6.248   2.854   4.180  0.5362  0.1133  0.8882
16927TIP3   OH272271   2.902   5.100   4.466  0.0167  0.6282  0.7643
16927TIP3    H172272   2.986   5.139   4.440 -0.0875 -0.0202 -0.6286
16927TIP3    H272273   2.926   5.036   4.533  0.6608  0.3813  0.3157
16928TIP3   OH272274   5.827   3.910  11.326  0.0532 -0.2673 -0.1292
16928TIP3    H172275   5.738   3.945  11.320 -0.4750 -0.9083  2.5275
16928TIP3    H272276   5.860   3.911  11.236 -2.4390  0.4646 -1.1111
16929TIP3   OH272277   6.744   4.628  15.586 -0.6611  0.3209 -0.4017
16929TIP3    H172278   6.661   4.593  15.618 -0.5084 -0.7860 -1.1548
16929TIP3    H272279   6.760   4.581  15.504  0.6219  0.6441 -0.3570
16930TIP3   OH272280   4.262   6.625   5.069  0.2049 -0.3227 -0.3482
16930TIP3    H172281   4.336   6.642   5.010  1.2241 -1.2801  0.5894
16930TIP3    H272282   4.274   6.534   5.096 -1.5307 -0.6045 -0.4199
16931TIP3   OH272283   1.458   2.294  11.368  0.4530 -0.2019 -0.3705
16931TIP3    H172284   1.481   2.386  11.383 -0.3525  0.2671 -1.7695
16931TIP3    H272285   1.496   2.274  11.282 -0.7572 -0.6555 -0.8221
16932TIP3   OH272286   1.808   3.116   6.113 -0.1554 -0.0363 -0.1606
16932TIP3    H172287   1.773   3.037   6.154  1.5363 -1.3078 -1.0614
16932TIP3    H272288   1.822   3.177   6.186 -0.6711 -0.8806  0.6623
16933TIP3   OH272289   2.514   2.098   1.638  0.0929  0.1269 -0.6387
16933TIP3    H172290   2.440   2.039   1.656 -0.5297  0.8182 -0.8988
16933TIP3    H272291   2.509   2.114   1.544  1.1757 -0.6000 -0.8310
16934TIP3   OH272292   1.651   3.397  13.045 -0.0394 -0.5992 -0.4736
16934TIP3    H172293   1.565   3.355  13.043  1.1401 -3.2173 -0.8449
16934TIP3    H272294   1.643   3.471  12.985 -2.1125 -0.5744 -0.2251
16935TIP3   OH272295   3.560   0.525  11.149 -0.0905  0.1354 -0.5499
16935TIP3    H172296   3.652   0.550  11.136  0.5491 -0.2920  2.3249
16935TIP3    H272297   3.544   0.456  11.085  1.8273 -0.2305 -0.6947
16936TIP3   OH272298   0.452   3.850  17.071  0.1613  0.0808  0.9796
16936TIP3    H172299   0.547   3.859  17.079  0.3287  0.0457 -0.7094
16936TIP3    H272300   0.439   3.806  16.987 -1.4291  2.7757 -0.3212
16937TIP3   OH272301   3.945   0.022  11.188  0.5624  0.0620  0.2715
16937TIP3    H172302   3.864   0.063  11.159 -1.5419 -2.3133  2.3021
16937TIP3    H272303   3.951  -0.059  11.136  1.4037 -0.0072  0.4581
16938TIP3   OH272304   5.684   2.987   3.195  0.4619 -0.4185 -0.4193
16938TIP3    H172305   5.733   2.941   3.263 -0.2883 -1.1522 -0.3560
16938TIP3    H272306   5.747   3.049   3.158  0.6254  0.6914  1.5663
16939TIP3   OH272307   3.899   1.961  13.741  0.1657 -0.7397  0.2902
16939TIP3    H172308   3.932   2.050  13.746 -1.9199  0.0095  1.9211
16939TIP3    H272309   3.872   1.940  13.830 -2.2311 -1.8228 -0.6001
16940TIP3   OH272310   5.977   3.020  14.700  0.4082 -0.1629 -0.1032
16940TIP3    H172311   6.015   2.970  14.773  0.1023  0.8326  0.7815
16940TIP3    H272312   5.889   3.042  14.730  0.3014  0.3165 -0.7575
16941TIP3   OH272313   2.765   4.194  14.571  0.8838 -0.5743  0.3041
16941TIP3    H172314   2.777   4.287  14.588 -2.5529  0.3958 -1.6345
16941TIP3    H272315   2.740   4.157  14.656  2.0839  0.2720  1.0442
16942TIP3   OH272316   6.668   3.669  15.897  0.3697  0.1165 -0.5554
16942TIP3    H172317   6.754   3.643  15.863  0.4526 -0.5970  0.1675
16942TIP3    H272318   6.621   3.586  15.908  0.2007  0.3545  0.6599
16943TIP3   OH272319   6.407   4.469   5.087 -0.5007 -0.1481 -0.1105
16943TIP3    H172320   6.390   4.561   5.070 -2.2786  0.1085  2.4647
16943TIP3    H272321   6.500   4.458   5.067 -0.4452  1.9551 -1.3021
16944TIP3   OH272322   2.109   6.685  11.782 -0.5109 -0.1502  0.0447
16944TIP3    H172323   2.072   6.630  11.713  1.5767  1.0587 -2.2126
16944TIP3    H272324   2.039   6.746  11.804 -1.4557 -1.0067 -0.4781
16945TIP3   OH272325   1.972   5.192  10.962  0.4727 -0.2191 -0.5656
16945TIP3    H172326   2.030   5.213  10.889  0.2030  0.7689 -0.5140
16945TIP3    H272327   2.000   5.251  11.032 -1.5171  1.3607 -1.0061
16946TIP3   OH272328   0.200   4.588   0.768 -0.1573 -0.1806  0.1825
16946TIP3    H172329   0.239   4.603   0.854  2.0846  1.9487 -1.0633
16946TIP3    H272330   0.271   4.552   0.715 -0.2695  2.1083 -1.7080
16947TIP3   OH272331   5.166   6.029  12.770  0.7915  0.1298  0.2887
16947TIP3    H172332   5.160   5.954  12.829 -0.4881  0.5451  0.7320
16947TIP3    H272333   5.159   5.992  12.683 -2.4623 -0.1456  0.5463
16948TIP3   OH272334   3.186   1.822  13.167  0.2556 -0.6702 -0.2994
16948TIP3    H172335   3.270   1.866  13.178 -0.2529  0.4928 -0.9855
16948TIP3    H272336   3.155   1.808  13.257 -0.0322  1.2783 -0.0526
16949TIP3   OH272337   4.281   2.461  10.834 -0.9626  0.2486  0.2354
16949TIP3    H172338   4.371   2.467  10.801 -0.9591  0.1691  0.2312
16949TIP3    H272339   4.256   2.551  10.852 -0.0163  0.1047  2.5861
16950TIP3   OH272340   5.030   5.105  15.791  0.2920 -0.6053  0.2235
16950TIP3    H172341   4.935   5.104  15.786  0.2512 -2.1765  0.7528
16950TIP3    H272342   5.059   5.043  15.724  1.0647  1.1870 -1.1919
16951TIP3   OH272343   5.013   2.845  14.089  0.7989 -0.2847  0.0567
16951TIP3    H172344   5.107   2.828  14.088  0.5552 -2.0626  1.3875
16951TIP3    H272345   4.977   2.786  14.022  0.7153  1.5535 -1.6311
16952TIP3   OH272346   5.005   3.053  11.084  1.1476  0.1168 -0.1805
16952TIP3    H172347   5.040   2.965  11.099  3.4780  1.2871  2.1085
16952TIP3    H272348   5.015   3.067  10.990 -0.2411 -2.3773 -0.7825
16953TIP3   OH272349   3.500   2.587   3.057 -0.0972 -0.0835  1.1410
16953TIP3    H172350   3.550   2.647   3.002  0.4537 -0.1841  1.5268
16953TIP3    H272351   3.455   2.530   2.995 -1.9044  1.6867  0.6835
16954TIP3   OH272352   1.233   2.402  13.852  0.2253  0.2595  0.2682
16954TIP3    H172353   1.150   2.393  13.805  0.3078 -0.3236  0.2296
16954TIP3    H272354   1.207   2.417  13.943  0.0350  2.5877 -0.0877
16955TIP3   OH272355   6.287   0.321   4.241  0.6679 -0.1181  0.0527
16955TIP3    H172356   6.247   0.298   4.157  1.3893 -0.3759 -0.2240
16955TIP3    H272357   6.322   0.238   4.274 -2.5129 -0.7779  2.2363
16956TIP3   OH272358   3.475   6.662  15.077  0.0066 -0.1916 -0.1952
16956TIP3    H172359   3.474   6.729  15.145  1.9020  0.6825 -0.9463
16956TIP3    H272360   3.531   6.593  15.112  0.1517 -0.2048 -0.4536
16957TIP3   OH272361   0.367   2.402   4.321 -0.8635 -0.2270 -0.9542
16957TIP3    H172362   0.441   2.373   4.268  0.5767 -0.3449  1.0111
16957TIP3    H272363   0.400   2.479   4.368 -1.4919 -1.0659  0.9655
16958TIP3   OH272364   0.644   4.604  16.314  0.1339  0.1743  0.3492
16958TIP3    H172365   0.602   4.690  16.304  1.2676  0.6704 -0.3945
16958TIP3    H272366   0.596   4.547  16.254 -0.9714  0.1414  1.2425
16959TIP3   OH272367   3.745   4.044  14.415 -0.2510  0.4038  0.3076
16959TIP3    H172368   3.696   3.976  14.368 -0.7160  0.9876 -0.0673
16959TIP3    H272369   3.702   4.049  14.501 -0.2817  0.2952  0.2995
16960TIP3   OH272370   5.312   5.376   5.357  0.4930 -0.2882 -0.5391
16960TIP3    H172371   5.363   5.425   5.423 -0.1115 -2.7198  1.9105
16960TIP3    H272372   5.368   5.375   5.280  3.0085 -0.5342  1.1695
16961TIP3   OH272373   6.149   0.138  13.012  0.3542 -0.7145 -0.1831
16961TIP3    H172374   6.120   0.228  13.000 -0.5701 -0.8398  0.8907
16961TIP3    H272375   6.070   0.085  12.995  0.0398 -1.1091  2.1455
16962TIP3   OH272376   1.803   0.223  12.294 -0.2220 -0.0089  0.4359
16962TIP3    H172377   1.754   0.185  12.221  1.0306 -0.8067 -0.0116
16962TIP3    H272378   1.759   0.306  12.312 -2.4211 -1.1746  0.7872
16963TIP3   OH272379   6.645   3.392  13.888  0.3999 -0.4545  0.2519
16963TIP3    H172380   6.560   3.364  13.855  0.7358 -1.9526  0.5882
16963TIP3    H272381   6.631   3.407  13.981  0.5478 -0.9166  0.3502
16964TIP3   OH272382   0.677   2.330  16.729 -0.4495 -0.2066  0.3162
16964TIP3    H172383   0.730   2.261  16.770 -0.3383 -1.5209 -1.8969
16964TIP3    H272384   0.594   2.287  16.708 -0.9306  0.7519  0.1880
16965TIP3   OH272385   1.693   3.922   2.045  0.0446 -0.1791 -0.1313
16965TIP3    H172386   1.691   4.010   2.082 -1.4137 -1.0504  2.0694
16965TIP3    H272387   1.756   3.874   2.098 -2.3230 -1.5402  1.6784
16966TIP3   OH272388   0.564   0.635  11.640  0.0193  0.4926  0.3070
16966TIP3    H172389   0.506   0.684  11.699  0.6745  0.9714  0.5545
16966TIP3    H272390   0.651   0.672  11.655 -0.0461  1.8926 -2.2388
16967TIP3   OH272391   6.040   2.291   5.167 -0.1953 -0.4974 -0.3514
16967TIP3    H172392   6.082   2.204   5.173  1.7921  0.4191 -0.1583
16967TIP3    H272393   6.100   2.343   5.113 -0.4584  1.2408  0.9552
16968TIP3   OH272394   2.114   4.934  12.677 -0.3079 -0.1697  0.2474
16968TIP3    H172395   2.130   4.893  12.762 -0.5143 -1.4875 -0.3222
16968TIP3    H272396   2.132   5.027  12.692  1.5383 -0.6381  1.2486
16969TIP3   OH272397   4.315   4.108   1.143 -0.3743  0.0352 -0.4173
16969TIP3    H172398   4.271   4.169   1.202  2.6563  2.1655 -0.1228
16969TIP3    H272399   4.405   4.103   1.176  0.7816 -0.7078 -3.3403
16970TIP3   OH272400   1.542   3.667   3.466  0.0248 -0.4753  0.7880
16970TIP3    H172401   1.586   3.583   3.457  0.6895 -0.2459  1.7527
16970TIP3    H272402   1.605   3.731   3.433 -0.8069 -0.3987 -0.7691
16971TIP3   OH272403   6.420   1.396   0.721 -0.7581  0.1007 -0.3878
16971TIP3    H172404   6.385   1.310   0.746 -0.4458  0.2277  0.5029
16971TIP3    H272405   6.477   1.378   0.647 -1.4849 -0.3228 -0.8586
16972TIP3   OH272406   3.659   0.903   5.263  0.3300 -0.1150 -0.4093
16972TIP3    H172407   3.733   0.842   5.260 -0.3408 -0.8958 -1.6088
16972TIP3    H272408   3.693   0.983   5.223  0.2139 -0.8430 -2.0177
16973TIP3   OH272409   6.640   0.208   6.278  0.2813 -0.1980  0.7482
16973TIP3    H172410   6.680   0.253   6.352  0.4039  0.1987  0.4488
16973TIP3    H272411   6.557   0.173   6.312 -0.4984  1.4460  0.6645
16974TIP3   OH272412   3.372   0.856  10.352  0.3273 -0.2698  0.0607
16974TIP3    H172413   3.343   0.844  10.443 -0.6129  1.9644  0.1072
16974TIP3    H272414   3.291   0.876  10.305  1.0953  0.6886 -0.8666
16975TIP3   OH272415   5.131   4.834   5.697 -0.4660 -0.1715  0.6165
16975TIP3    H172416   5.139   4.876   5.611 -1.7029 -1.0883  0.0319
16975TIP3    H272417   5.133   4.740   5.679  1.0702 -0.4148  1.7939
16976TIP3   OH272418   0.298   3.470   2.155  0.3783  0.4985  0.1383
16976TIP3    H172419   0.304   3.558   2.117 -0.2474  0.5166  0.0692
16976TIP3    H272420   0.388   3.444   2.170  0.6715  0.4621 -1.4440
16977TIP3   OH272421   3.727   2.439   4.512 -0.2260 -0.1453  0.3568
16977TIP3    H172422   3.733   2.454   4.418 -3.0129  0.9421  0.2461
16977TIP3    H272423   3.805   2.388   4.534  0.6168 -0.2191 -2.4795
16978TIP3   OH272424   5.893   6.042   1.776 -0.3343  0.0298 -0.0390
16978TIP3    H172425   5.798   6.028   1.783 -0.4411  0.6966 -0.1160
16978TIP3    H272426   5.904   6.135   1.791  0.2856  0.0041 -0.3435
16979TIP3   OH272427   2.454   4.383   1.624 -0.2178  0.2223 -0.5172
16979TIP3    H172428   2.364   4.384   1.591 -0.8397  0.4306  1.1066
16979TIP3    H272429   2.461   4.465   1.674  0.7590  0.0158 -0.3081
16980TIP3   OH272430   2.487   2.201   3.291 -0.2979  0.2648  0.2744
16980TIP3    H172431   2.469   2.112   3.321 -3.5925  0.9155  0.5986
16980TIP3    H272432   2.430   2.212   3.215  1.3484  1.5885 -0.8545
16981TIP3   OH272433   5.086   4.910   2.937 -0.1484 -0.1728 -0.1738
16981TIP3    H172434   4.991   4.922   2.939 -0.5307 -1.8115  4.6380
16981TIP3    H272435   5.122   4.997   2.957 -0.7769  0.0235  0.1273
16982TIP3   OH272436   5.097   1.402   1.447  0.2430 -0.5910 -0.4062
16982TIP3    H172437   5.104   1.323   1.394 -1.2935 -0.6564 -0.5792
16982TIP3    H272438   5.002   1.414   1.458  0.4884  0.5384  0.6454
16983TIP3   OH272439   0.979   5.570   1.663  0.1120 -0.1703 -0.4420
16983TIP3    H172440   1.013   5.658   1.677 -1.2250  0.0188  2.0477
16983TIP3    H272441   0.885   5.582   1.649  0.0366 -1.1534 -0.8882
16984TIP3   OH272442   1.697   0.698  13.402 -0.0083 -0.0821 -0.1578
16984TIP3    H172443   1.733   0.616  13.435 -0.8020 -0.5985 -0.5389
16984TIP3    H272444   1.650   0.672  13.322  0.9332  0.9575 -1.0771
16985TIP3   OH272445   0.103   2.449   6.703 -0.2066  0.4424  0.1505
16985TIP3    H172446   0.115   2.419   6.793  1.0048  0.9776  0.1886
16985TIP3    H272447   0.192   2.460   6.669 -0.6293  1.4943 -0.6781
16986TIP3   OH272448   4.670   1.866   4.687 -0.6483 -0.0649  0.1385
16986TIP3    H172449   4.764   1.857   4.700 -0.6317 -1.4348 -0.7674
16986TIP3    H272450   4.631   1.834   4.769 -0.3833 -2.9044 -0.7456
16987TIP3   OH272451   3.006   2.676  12.900 -0.2142 -0.2431 -0.4166
16987TIP3    H172452   3.033   2.751  12.846 -0.0965  0.3935  0.5110
16987TIP3    H272453   2.940   2.631  12.847 -0.3694  0.5794 -0.9393
16988TIP3   OH272454   5.736   2.806  14.709 -0.3741 -0.1450  0.1317
16988TIP3    H172455   5.794   2.762  14.648  0.0976  1.1727 -0.4166
16988TIP3    H272456   5.649   2.799  14.669 -0.1913  0.0136 -0.3032
16989TIP3   OH272457   6.491   6.669   0.446  0.6956 -0.0355 -0.5236
16989TIP3    H172458   6.458   6.643   0.532 -0.5250  0.3976 -0.8310
16989TIP3    H272459   6.472   6.595   0.389  1.4834 -0.3136 -0.4238
16990TIP3   OH272460   3.255   0.300   0.600  0.0776 -0.3582 -0.1936
16990TIP3    H172461   3.257   0.217   0.552 -1.8695 -0.5699  0.0088
16990TIP3    H272462   3.177   0.345   0.567 -0.1319  0.4170  1.2826
16991TIP3   OH272463   2.152   3.298  11.482  0.2336  0.1312  0.2725
16991TIP3    H172464   2.142   3.227  11.419 -0.0201  0.2164  0.2133
16991TIP3    H272465   2.228   3.347  11.451  0.7101 -0.3964  0.5942
16992TIP3   OH272466   1.225   3.240   1.362  0.8894  0.0195 -0.3640
16992TIP3    H172467   1.206   3.173   1.428  1.2406 -0.3746 -0.6541
16992TIP3    H272468   1.320   3.235   1.350  0.8022 -0.0632 -1.0560
16993TIP3   OH272469   0.859   5.907  14.138  0.0166 -0.0983 -0.4565
16993TIP3    H172470   0.890   5.816  14.145 -2.0251 -0.8500 -0.4452
16993TIP3    H272471   0.779   5.900  14.087  0.6209  1.9301 -1.7631
16994TIP3   OH272472   5.917   3.090  13.604 -0.3371  0.3626  0.5970
16994TIP3    H172473   5.919   3.011  13.550  0.0514  0.4976  0.4086
16994TIP3    H272474   5.829   3.091  13.643 -0.5580  0.1730  0.1049
16995TIP3   OH272475   4.065   0.744  10.577  0.3313 -0.2738  1.0751
16995TIP3    H172476   4.082   0.650  10.587  1.0435 -0.1195  1.3303
16995TIP3    H272477   4.002   0.749  10.505  2.5494 -0.7610 -1.0095
16996TIP3   OH272478   3.677   1.669   6.502 -0.1432 -0.6577  0.2879
16996TIP3    H172479   3.693   1.576   6.520 -0.3411 -0.7267  0.1145
16996TIP3    H272480   3.652   1.706   6.587 -1.2131 -1.0114  0.1464
16997TIP3   OH272481   1.328   3.001   5.834 -0.8176  0.2510 -0.2215
16997TIP3    H172482   1.292   2.917   5.806  0.2910 -0.4819  0.5048
16997TIP3    H272483   1.290   3.016   5.920  0.5599 -0.5180  0.5404
16998TIP3   OH272484   1.217   2.999  16.884  0.2605 -0.1265 -0.4488
16998TIP3    H172485   1.252   2.943  16.954  0.0908  1.4862  0.9841
16998TIP3    H272486   1.291   3.012  16.825  0.5733 -1.0197 -0.2774
16999TIP3   OH272487   1.329   1.154  12.994 -0.7718  0.3394  0.2639
16999TIP3    H172488   1.244   1.197  12.991 -2.1166 -1.8535  2.7574
16999TIP3    H272489   1.381   1.210  13.052 -1.4977  0.2161  1.0550
17000TIP3   OH272490   6.472   0.588   2.528 -0.4204  0.3593  0.0870
17000TIP3    H172491   6.381   0.606   2.550 -0.2968  2.5437 -0.8979
17000TIP3    H272492   6.520   0.601   2.609 -0.6832  2.0986 -0.0039
17001TIP3   OH272493   3.381   3.687   6.763 -0.0073  0.0759 -0.0380
17001TIP3    H172494   3.366   3.733   6.680 -0.6728 -0.1152 -0.0251
17001TIP3    H272495   3.295   3.678   6.802  0.3156  0.2258  0.7189
17002TIP3   OH272496   5.550   5.501  13.225  0.1285  0.4161 -0.1802
17002TIP3    H172497   5.637   5.533  13.250  0.1677  0.8061 -0.7817
17002TIP3    H272498   5.489   5.567  13.258 -0.0167 -0.2684  0.9616
17003TIP3   OH272499   0.450   3.267  16.594  0.5641 -0.1685  0.1148
17003TIP3    H172500   0.432   3.202  16.525 -2.1178 -0.6555  1.1534
17003TIP3    H272501   0.378   3.257  16.656  1.8112  1.6397  1.9944
17004TIP3   OH272502   3.890   4.863   6.048 -0.5672  0.4684 -0.2125
17004TIP3    H172503   3.974   4.851   6.094 -0.2321  3.1882  0.0153
17004TIP3    H272504   3.895   4.801   5.975  0.3280 -1.5423  1.4250
17005TIP3   OH272505   0.380   6.021   1.783 -0.3571 -0.3873 -0.1462
17005TIP3    H172506   0.422   6.045   1.700 -1.4983 -0.2740 -0.7113
17005TIP3    H272507   0.286   6.020   1.763 -0.5656 -1.8336  0.7725
17006TIP3   OH272508   2.607   6.013  12.979  0.3114  0.0788  0.0384
17006TIP3    H172509   2.697   6.002  13.011 -0.0419 -1.2961  0.6336
17006TIP3    H272510   2.559   5.940  13.018 -0.6774 -0.2678 -1.7385
17007TIP3   OH272511   2.163   4.832   2.407 -0.5255  0.4176 -0.2870
17007TIP3    H172512   2.180   4.750   2.361  2.4990  0.5107  0.4821
17007TIP3    H272513   2.103   4.807   2.478  1.1106 -1.4122  0.5586
17008TIP3   OH272514   0.130   2.579  11.910  0.4609 -0.5327 -0.0656
17008TIP3    H172515   0.101   2.632  11.983  3.0026  0.8270  0.0545
17008TIP3    H272516   0.169   2.501  11.950  0.7236 -0.3786 -0.0189
17009TIP3   OH272517   5.237   4.842   5.954 -0.0469  0.5546 -0.0167
17009TIP3    H172518   5.217   4.831   5.861  0.4388 -0.4034 -0.0218
17009TIP3    H272519   5.198   4.764   5.995  1.9067 -0.3340  0.2388
17010TIP3   OH272520   1.160   2.565   2.594 -0.5639  0.2114 -0.5614
17010TIP3    H172521   1.081   2.544   2.645 -0.9140  2.1595 -0.2462
17010TIP3    H272522   1.212   2.620   2.652  0.9980 -0.9148 -0.8291
17011TIP3   OH272523   5.447   1.135   3.057 -0.2191 -0.6372  0.7144
17011TIP3    H172524   5.352   1.134   3.062 -0.3075 -0.5521 -0.6273
17011TIP3    H272525   5.467   1.192   2.983  0.9363  0.6120  1.9186
17012TIP3   OH272526   1.863   2.386   2.378  0.2752  0.8703  0.1937
17012TIP3    H172527   1.856   2.404   2.471 -1.2722  0.0720  0.2482
17012TIP3    H272528   1.821   2.461   2.336  0.9366  1.2106  0.1215
17013TIP3   OH272529   4.821   6.396  13.521  0.4659 -0.2231  0.2347
17013TIP3    H172530   4.871   6.475  13.501 -2.1134  1.6089  0.6619
17013TIP3    H272531   4.780   6.414  13.605 -0.7936 -1.7023 -0.0263
17014TIP3   OH272532   2.479   6.737   2.034 -0.4917 -0.2837 -0.5325
17014TIP3    H172533   2.384   6.748   2.034 -0.6126 -1.2244 -0.7132
17014TIP3    H272534   2.499   6.694   2.117 -0.2314 -0.1389 -0.5185
17015TIP3   OH272535   4.099   6.581  11.636  0.1198 -0.0208 -0.2545
17015TIP3    H172536   4.080   6.531  11.716  1.2670 -0.8270 -0.4597
17015TIP3    H272537   4.048   6.538  11.568 -0.5086  0.3934 -0.0651
17016TIP3   OH272538   5.080   1.667   4.547  0.2827  0.1231 -0.1235
17016TIP3    H172539   5.051   1.758   4.549  1.0925  0.3820  0.3600
17016TIP3    H272540   5.018   1.623   4.488  0.5636  1.2278 -1.3025
17017TIP3   OH272541   0.840   3.523  10.677  0.7309  0.5753  0.3414
17017TIP3    H172542   0.930   3.544  10.702  0.8752  0.5752 -0.1656
17017TIP3    H272543   0.790   3.601  10.702  1.0717  1.0657 -0.4325
17018TIP3   OH272544   2.108   1.459   5.914  0.5269  0.1859  0.2234
17018TIP3    H172545   2.063   1.539   5.941 -0.2864 -0.3214  0.4025
17018TIP3    H272546   2.062   1.389   5.960  1.2388 -0.3841  0.0777
17019TIP3   OH272547   2.701   5.400  13.629 -0.0265  0.3954  0.0205
17019TIP3    H172548   2.766   5.400  13.559 -0.2645 -0.0919 -0.2038
17019TIP3    H272549   2.638   5.468  13.604  0.6568  1.2217  0.4916
17020TIP3   OH272550   4.106   0.366  12.601 -0.3239 -0.6871  0.0119
17020TIP3    H172551   4.030   0.323  12.561  0.1383 -0.3569 -1.2698
17020TIP3    H272552   4.172   0.296  12.607 -1.2962 -1.5102  2.9690
17021TIP3   OH272553   6.335   6.698  16.562  0.4663  0.6391  0.2005
17021TIP3    H172554   6.281   6.655  16.494  0.1714  1.2769  0.0267
17021TIP3    H272555   6.423   6.663  16.548  0.3242  0.4509 -0.2485
17022TIP3   OH272556   2.821   4.964  13.742 -0.4875 -0.0373  0.6606
17022TIP3    H172557   2.791   4.898  13.805 -0.5310 -0.8359 -0.1732
17022TIP3    H272558   2.867   5.028  13.795  1.2878 -1.7429  1.2988
17023TIP3   OH272559   0.951   4.951  13.899 -0.4232 -0.1282  0.2152
17023TIP3    H172560   1.033   4.923  13.940  0.0779 -0.2321 -0.8150
17023TIP3    H272561   0.963   4.931  13.806 -0.1244  3.2066 -0.6038
17024TIP3   OH272562   0.191   2.588   0.165  0.9081 -0.4659 -0.3534
17024TIP3    H172563   0.279   2.556   0.185  0.9985 -0.4423 -0.7071
17024TIP3    H272564   0.132   2.529   0.213  1.1502  0.1355  0.7024
17025TIP3   OH272565   5.712   1.405  13.517  0.3672  0.1343  0.2185
17025TIP3    H172566   5.743   1.427  13.605 -0.8508  0.2177  0.6441
17025TIP3    H272567   5.635   1.461  13.504 -0.4476 -1.0546 -0.2411
17026TIP3   OH272568   2.006   5.788   9.976  0.1285  0.5671 -0.1819
17026TIP3    H172569   1.989   5.827   9.890 -0.7105  1.9291  0.5726
17026TIP3    H272570   1.920   5.784  10.018  0.4309 -0.7330  0.3417
17027TIP3   OH272571   0.616   4.732  15.578 -0.1869 -0.4763  0.0749
17027TIP3    H172572   0.521   4.721  15.580 -0.2775  0.3015  0.5581
17027TIP3    H272573   0.639   4.728  15.486 -0.9075  0.9887 -0.1956
17028TIP3   OH272574   1.138   6.136   1.491 -0.3773 -0.0967  0.2964
17028TIP3    H172575   1.145   6.062   1.431  0.8476 -0.5864  1.0151
17028TIP3    H272576   1.217   6.187   1.476 -0.7572  0.5535  0.4757
17029TIP3   OH272577   4.550   2.059   1.030  0.0199  0.5798  0.3246
17029TIP3    H172578   4.489   2.018   1.092 -2.5370  3.6910  0.0867
17029TIP3    H272579   4.577   2.140   1.072 -0.3292  1.8759 -1.7653
17030TIP3   OH272580   2.119   3.703   5.949 -0.3414 -0.1073  0.1007
17030TIP3    H172581   2.061   3.656   6.009  0.2692 -0.5251  0.3775
17030TIP3    H272582   2.163   3.768   6.005 -1.7637  1.3557 -0.4290
17031TIP3   OH272583   1.573   1.297  14.831  0.0141  0.6564  0.1493
17031TIP3    H172584   1.650   1.263  14.786 -1.1923 -0.0596 -1.4890
17031TIP3    H272585   1.606   1.333  14.913  1.8680 -1.0238  0.1905
17032TIP3   OH272586   1.599   3.052   6.460 -0.0430  0.5889 -0.4882
17032TIP3    H172587   1.687   3.088   6.470 -0.6552  2.1219 -0.3562
17032TIP3    H272588   1.612   2.957   6.460  1.3546  0.7021  1.9772
17033TIP3   OH272589   1.342   5.733  14.008  0.2969 -0.6524  0.3923
17033TIP3    H172590   1.339   5.768  14.097  0.2404 -0.0332  0.1561
17033TIP3    H272591   1.388   5.801  13.957  0.3766 -1.0213 -0.0367
17034TIP3   OH272592   4.117   1.550   1.044  0.0593  0.3249 -0.2545
17034TIP3    H172593   4.128   1.477   1.106  0.9372 -0.8901 -1.7854
17034TIP3    H272594   4.031   1.586   1.065 -0.3441 -1.0697  0.6218
17035TIP3   OH272595   4.906   1.199   4.605 -0.1221 -0.1404 -0.0545
17035TIP3    H172596   4.830   1.219   4.661 -0.4206 -0.6643 -0.2604
17035TIP3    H272597   4.979   1.244   4.647  0.2604 -2.7417  2.3953
17036TIP3   OH272598   4.951   1.727  13.997 -0.0800 -0.2101  0.3062
17036TIP3    H172599   4.864   1.759  13.972  0.0606 -0.7371 -0.9598
17036TIP3    H272600   5.006   1.746  13.921  0.3637 -1.9220  0.1434
17037TIP3   OH272601   2.281   3.438   1.235  0.2060  0.3020  0.5114
17037TIP3    H172602   2.240   3.470   1.315 -1.4033 -0.6156  0.1000
17037TIP3    H272603   2.242   3.352   1.221 -0.2089  0.7901 -1.7203
17038TIP3   OH272604   2.700   1.120  14.512  0.3336  0.1489  0.3404
17038TIP3    H172605   2.789   1.155  14.515  1.0486 -1.5901  0.0902
17038TIP3    H272606   2.666   1.132  14.600  1.1479 -0.0445  0.6796
17039TIP3   OH272607   4.981   0.185  15.470 -0.0847  0.1552  0.1225
17039TIP3    H172608   5.077   0.184  15.473 -0.0978 -1.4738  1.1039
17039TIP3    H272609   4.954   0.213  15.557 -0.5283  1.4274 -0.4011
17040TIP3   OH272610   2.224   6.692   0.274 -0.0298  0.4659  0.1851
17040TIP3    H172611   2.221   6.619   0.337 -0.1988 -0.9954 -1.4363
17040TIP3    H272612   2.247   6.651   0.191 -0.2281  2.2739 -0.8148
17041TIP3   OH272613   1.883   2.022   0.144  0.1148 -0.7419  0.0313
17041TIP3    H172614   1.939   1.984   0.213  0.2841 -0.1243  0.2414
17041TIP3    H272615   1.944   2.069   0.087 -0.1338 -0.4510  0.0005
17042TIP3   OH272616   3.086   4.701  15.628  0.2281 -0.7378  0.7683
17042TIP3    H172617   3.143   4.694  15.704  1.5419 -0.5610 -0.1745
17042TIP3    H272618   3.009   4.749  15.661  1.5089  0.8527  1.5970
17043TIP3   OH272619   3.823   3.036  16.980 -0.2040 -0.4456  0.4635
17043TIP3    H172620   3.896   3.033  16.918 -1.5739 -0.8066 -1.2028
17043TIP3    H272621   3.754   3.083  16.933 -1.8380 -2.1100  1.0930
17044TIP3   OH272622   2.191   6.325   1.213 -0.3622  0.1949 -0.2267
17044TIP3    H172623   2.129   6.254   1.196  0.6437 -0.4623 -1.2961
17044TIP3    H272624   2.264   6.308   1.154  0.7584  1.0690  0.8588
17045TIP3   OH272625   5.105   4.686   3.109 -0.3526 -0.0221 -0.4571
17045TIP3    H172626   5.104   4.770   3.064  0.2824 -0.8719 -2.1491
17045TIP3    H272627   5.021   4.682   3.155 -0.0704  1.8440  0.3328
17046TIP3   OH272628   0.246   0.227  16.436  0.3912  0.1599 -0.1344
17046TIP3    H172629   0.153   0.249  16.443 -0.0728 -1.5823 -0.2407
17046TIP3    H272630   0.278   0.230  16.526 -0.0167 -0.1562  0.0260
17047TIP3   OH272631   2.690   1.315   0.588 -0.4482 -0.7387 -0.5511
17047TIP3    H172632   2.648   1.327   0.674 -0.3721 -3.1291 -0.1165
17047TIP3    H272633   2.640   1.244   0.547  0.9977 -1.2416 -1.4895
17048TIP3   OH272634   6.334   0.414   3.653 -0.5529 -0.0904  0.1968
17048TIP3    H172635   6.292   0.348   3.599 -1.2350  0.1374  0.4473
17048TIP3    H272636   6.296   0.497   3.625 -1.8452 -0.0763  1.8490
17049TIP3   OH272637   3.053   6.775  16.149  0.5778  0.1288  0.0217
17049TIP3    H172638   3.134   6.725  16.142  0.1024 -0.5090 -1.2141
17049TIP3    H272639   3.049   6.802  16.241  2.3978  0.5562  0.0190
17050TIP3   OH272640   6.648   2.495  16.569 -0.0411  0.0773  0.6157
17050TIP3    H172641   6.696   2.550  16.632  0.0695 -0.1713  0.7494
17050TIP3    H272642   6.711   2.428  16.543  0.1678  0.6328 -0.3586
17051TIP3   OH272643   5.803   1.697   2.037  0.1990 -0.1003 -0.4044
17051TIP3    H172644   5.793   1.615   1.989 -1.4215 -0.5089  0.5835
17051TIP3    H272645   5.761   1.762   1.981 -1.8109 -0.5987  0.4549
17052TIP3   OH272646   3.351   4.733   4.679 -0.2831  0.5049  0.1948
17052TIP3    H172647   3.294   4.688   4.742 -0.5744 -0.0416 -0.4502
17052TIP3    H272648   3.319   4.706   4.593  0.3628  0.9301 -0.1918
17053TIP3   OH272649   1.491   1.204   3.458  0.2959  0.0506 -0.2017
17053TIP3    H172650   1.566   1.257   3.488  0.9220 -0.2727 -1.1473
17053TIP3    H272651   1.422   1.222   3.522  1.2360  0.2162  0.7967
17054TIP3   OH272652   1.162   0.064  14.116  0.1723  0.1229 -0.5531
17054TIP3    H172653   1.114   0.008  14.054 -0.7965 -0.3570  0.5957
17054TIP3    H272654   1.163   0.150  14.074 -0.4676 -0.1850 -1.2280
17055TIP3   OH272655   2.159   2.928   3.755 -0.3026  0.1435 -0.3717
17055TIP3    H172656   2.163   3.006   3.811 -1.3989  0.4817 -0.7337
17055TIP3    H272657   2.235   2.876   3.780 -0.5380  0.4904  1.1239
17056TIP3   OH272658   6.415   4.742  14.858 -0.5912  0.1684 -0.2598
17056TIP3    H172659   6.443   4.651  14.848  1.2434  0.4929  1.3656
17056TIP3    H272660   6.492   4.788  14.891 -2.4777  1.5697  2.5985
17057TIP3   OH272661   2.877   4.566  13.952  0.3403  0.3892  0.3219
17057TIP3    H172662   2.955   4.523  13.986  0.2119  0.6307  0.9360
17057TIP3    H272663   2.903   4.599  13.866  1.0133  0.7395  0.6534
17058TIP3   OH272664   5.108   6.312  11.834 -0.5106  0.2290 -0.3580
17058TIP3    H172665   5.125   6.321  11.740  1.8523 -0.4190 -0.0594
17058TIP3    H272666   5.110   6.402  11.867  0.4690  0.3442 -0.6857
17059TIP3   OH272667   3.826   0.360  15.034 -0.1236  0.1076 -0.0513
17059TIP3    H172668   3.870   0.433  15.079  2.1831 -0.6540 -0.9166
17059TIP3    H272669   3.880   0.284  15.055 -1.7824 -1.1456 -0.1805
17060TIP3   OH272670   3.625   6.271   4.491 -0.6222  0.1243  0.2806
17060TIP3    H172671   3.694   6.210   4.466 -0.5881 -0.0712  0.8338
17060TIP3    H272672   3.612   6.326   4.414  0.4274  0.4226  0.2976
17061TIP3   OH272673   1.883   0.656  14.249 -0.1291 -0.4664  0.0195
17061TIP3    H172674   1.921   0.666  14.162 -1.4446  1.1282 -0.4227
17061TIP3    H272675   1.789   0.658  14.235 -0.3728 -0.1633  1.4706
17062TIP3   OH272676   3.525   3.932  15.908  0.4787 -0.4708 -0.0505
17062TIP3    H172677   3.552   4.004  15.850  0.8629 -0.2638  0.3785
17062TIP3    H272678   3.549   3.962  15.996  0.0325 -0.8440  0.2036
17063TIP3   OH272679   5.214   0.172   4.615 -0.0212 -0.2051  0.1243
17063TIP3    H172680   5.239   0.244   4.673  2.1963 -1.3169  0.6169
17063TIP3    H272681   5.169   0.215   4.542 -0.2079  1.4980  1.1942
17064TIP3   OH272682   4.166   2.697  13.296 -0.0879  0.2028  0.2409
17064TIP3    H172683   4.162   2.791  13.274  0.1549  0.3764  0.9246
17064TIP3    H272684   4.256   2.684  13.326  0.1485 -0.4424 -0.6866
17065TIP3   OH272685   2.342   5.880   4.359 -0.2493  0.5315  0.6408
17065TIP3    H172686   2.369   5.790   4.340  4.5607  1.8418  0.0415
17065TIP3    H272687   2.316   5.915   4.274  3.3619  1.1227 -0.3831
17066TIP3   OH272688   0.930   3.876   1.428 -0.0436  0.4271  0.2469
17066TIP3    H172689   0.890   3.954   1.467 -0.7659 -0.8736  2.3087
17066TIP3    H272690   0.944   3.817   1.502  0.6139 -1.3491 -1.2156
17067TIP3   OH272691   5.901   5.677  17.143  0.1257 -0.0080  0.0605
17067TIP3    H172692   5.924   5.593  17.184 -0.0311 -1.1908 -2.1435
17067TIP3    H272693   5.969   5.737  17.172  0.7562 -1.1183  0.9756
17068TIP3   OH272694   1.455   3.749   3.194  0.3395 -0.5875 -0.6644
17068TIP3    H172695   1.512   3.789   3.259 -0.7278  1.4406 -0.8827
17068TIP3    H272696   1.512   3.728   3.121  0.8848  1.1250 -0.7640
17069TIP3   OH272697   5.200   4.586  12.308 -0.7627  0.2119 -0.0764
17069TIP3    H172698   5.239   4.673  12.307  3.4103 -1.4337  0.4409
17069TIP3    H272699   5.204   4.558  12.400 -1.4147 -0.8075 -0.3372
17070TIP3   OH272700   2.735   3.712  15.996  0.1410  0.0842  0.6057
17070TIP3    H172701   2.805   3.696  15.933  0.7094  2.3092  0.5829
17070TIP3    H272702   2.763   3.667  16.076 -0.2322 -2.1430 -0.4473
17071TIP3   OH272703   4.095   4.916  13.419  0.3079  0.1004  0.3006
17071TIP3    H172704   4.055   4.897  13.334 -1.2677 -1.9210  1.4021
17071TIP3    H272705   4.021   4.942  13.474  0.8472 -1.2486  1.7301
17072TIP3   OH272706   5.186   0.434  11.491 -0.2220 -1.0480  0.1931
17072TIP3    H172707   5.114   0.377  11.520 -0.3597 -1.1333 -0.3099
17072TIP3    H272708   5.167   0.452  11.399 -0.7708  0.7229  0.6238
17073TIP3   OH272709   4.436   1.636   0.051  0.1937  0.1433  0.3655
17073TIP3    H172710   4.358   1.584   0.072 -0.9627  0.0457 -3.5152
17073TIP3    H272711   4.407   1.727   0.057  0.5238  0.2011  1.2774
17074TIP3   OH272712   4.066   0.116   6.056  0.3376 -0.6918 -0.1730
17074TIP3    H172713   4.030   0.202   6.033 -1.1299 -1.4568 -0.9003
17074TIP3    H272714   4.157   0.133   6.080 -0.3122  1.2684  1.1393
17075TIP3   OH272715   5.254   5.726  11.327  0.8470 -0.2337  0.8293
17075TIP3    H172716   5.233   5.818  11.310  0.2233 -0.4874  0.1519
17075TIP3    H272717   5.224   5.710  11.416 -1.1441 -0.3506  0.1830
17076TIP3   OH272718   2.571   6.120  11.525 -0.0605  0.4201 -0.0292
17076TIP3    H172719   2.587   6.214  11.526  0.1858  0.3770  0.9197
17076TIP3    H272720   2.507   6.105  11.595 -0.3196 -0.0878 -0.3626
17077TIP3   OH272721   1.894   0.518  13.004 -0.4173 -0.0307 -0.6168
17077TIP3    H172722   1.820   0.493  12.949 -0.3307  1.4547 -1.4472
17077TIP3    H272723   1.967   0.530  12.943 -0.2580  1.3939 -0.1774
17078TIP3   OH272724   1.465   4.268   1.928 -0.0575 -0.7515 -0.4725
17078TIP3    H172725   1.371   4.286   1.922  0.0604  0.4153  0.7220
17078TIP3    H272726   1.502   4.308   1.850 -0.2300  1.3291  0.4615
17079TIP3   OH272727   3.948   3.467  12.125 -0.7614 -0.7219 -0.2735
17079TIP3    H172728   3.950   3.525  12.201  1.4196 -1.1928  0.0866
17079TIP3    H272729   3.920   3.523  12.053  2.2079  1.1404 -0.1406
17080TIP3   OH272730   5.363   0.076   2.392 -0.4153 -0.1878 -0.0873
17080TIP3    H172731   5.377   0.061   2.298 -0.4892 -0.3838 -0.0652
17080TIP3    H272732   5.422   0.149   2.412 -1.3151  0.6902 -0.5571
17081TIP3   OH272733   5.290   4.886  13.328  0.7920 -0.5063  0.0327
17081TIP3    H172734   5.378   4.875  13.364  0.8618  1.6636  0.6789
17081TIP3    H272735   5.304   4.893  13.234  1.5051  1.1149  0.2262
17082TIP3   OH272736   6.728   0.442  15.697 -0.4689 -0.2697 -0.3100
17082TIP3    H172737   6.645   0.478  15.727 -1.2389 -1.0809 -1.4138
17082TIP3    H272738   6.724   0.350  15.722 -0.4376 -0.5898 -1.4484
17083TIP3   OH272739   0.353   1.430  16.695  0.6208  0.0025  0.2333
17083TIP3    H172740   0.308   1.507  16.729  3.8032  1.8708  0.6328
17083TIP3    H272741   0.422   1.412  16.760  0.7376 -2.4566 -0.4772
17084TIP3   OH272742   0.418   1.504  12.788  0.8107  0.3015 -0.2960
17084TIP3    H172743   0.410   1.589  12.744  1.3119  0.3320 -0.3289
17084TIP3    H272744   0.355   1.448  12.742 -0.2761  0.9158  0.3768
17085TIP3   OH272745   2.718   4.589  15.554 -0.1604 -0.0127  0.0321
17085TIP3    H172746   2.702   4.595  15.460  1.4743 -0.5820 -0.3084
17085TIP3    H272747   2.635   4.557  15.590 -0.8075  0.2170 -1.1958
17086TIP3   OH272748   1.314   1.858   6.613  0.2275 -0.1864 -0.0103
17086TIP3    H172749   1.227   1.826   6.589  0.2311 -0.7082  0.6525
17086TIP3    H272750   1.299   1.942   6.655  0.1083  0.0774 -0.5751
17087TIP3   OH272751   5.857   1.684  17.080 -0.6839 -0.4906 -0.2331
17087TIP3    H172752   5.800   1.737  17.024 -2.1221 -1.2311  0.4979
17087TIP3    H272753   5.799   1.647  17.146  1.1374  1.4648  2.6824
17088TIP3   OH272754   2.590   2.542  17.153  0.5171  0.2092 -0.3029
17088TIP3    H172755   2.542   2.580  17.080  1.4368  0.5585 -0.7410
17088TIP3    H272756   2.604   2.615  17.213 -3.3218 -0.7111  2.0292
17089TIP3   OH272757   0.835   4.142   0.819  0.1271  0.5640  0.8538
17089TIP3    H172758   0.876   4.116   0.736 -1.2657  0.5746  0.1273
17089TIP3    H272759   0.753   4.093   0.821 -0.1160  0.9919  1.9639
17090TIP3   OH272760   4.295   2.284  16.296 -0.1638  0.1469 -0.1071
17090TIP3    H172761   4.327   2.361  16.343  1.9110 -0.8027  0.1562
17090TIP3    H272762   4.284   2.313  16.206  0.4618  0.7990  0.0176
17091TIP3   OH272763   4.976   6.329   6.434  0.5281  0.6097 -0.0820
17091TIP3    H172764   4.936   6.358   6.352 -1.1061  0.8381  0.7480
17091TIP3    H272765   4.967   6.234   6.432 -1.1019  0.7148  0.5576
17092TIP3   OH272766   4.431   3.749   4.979 -0.1717 -0.1864 -0.3280
17092TIP3    H172767   4.367   3.716   5.043 -0.2487  1.8262  0.7220
17092TIP3    H272768   4.512   3.702   5.000 -0.7979 -1.2704 -0.3171
17093TIP3   OH272769   2.236   2.809   5.942 -0.1618  0.5361  0.1106
17093TIP3    H172770   2.215   2.716   5.947 -3.2234  1.0036 -1.3511
17093TIP3    H272771   2.318   2.813   5.893  0.8230 -1.4082  1.4880
17094TIP3   OH272772   0.496   1.823  14.330  0.1273  0.2464 -0.6830
17094TIP3    H172773   0.447   1.880  14.389 -0.0160  0.1942 -0.7499
17094TIP3    H272774   0.586   1.852  14.338 -0.0102  0.7756 -1.0568
17095TIP3   OH272775   0.841   1.050  16.086 -0.3208  0.2616 -0.3965
17095TIP3    H172776   0.816   1.015  16.171  0.6744  1.7100  0.5321
17095TIP3    H272777   0.759   1.085  16.050 -0.9111 -1.1312 -0.4384
17096TIP3   OH272778   4.282   3.722   0.875 -0.0747  0.1465  0.4224
17096TIP3    H172779   4.342   3.657   0.841 -1.3309 -0.2505 -1.1722
17096TIP3    H272780   4.203   3.712   0.822 -0.6771  2.2738  0.8101
17097TIP3   OH272781   1.316   2.003  12.883 -0.3513 -0.3079  0.2907
17097TIP3    H172782   1.277   2.045  12.960 -0.7136 -1.5756  0.8142
17097TIP3    H272783   1.401   2.047  12.872  0.0871 -0.6883  1.9351
17098TIP3   OH272784   0.605   2.623   4.822 -0.5418 -0.5978  0.6075
17098TIP3    H172785   0.608   2.702   4.767 -0.2154  0.0059  1.4682
17098TIP3    H272786   0.517   2.590   4.811  0.4068 -2.4200 -2.8945
17099TIP3   OH272787   5.165   2.104   5.501 -0.1352 -0.0189 -0.3931
17099TIP3    H172788   5.153   2.024   5.450 -0.1267 -1.1119  1.2685
17099TIP3    H272789   5.086   2.109   5.556  1.8010 -1.3896  2.7735
17100TIP3   OH272790   4.026   4.000   1.172  0.2349 -0.0779  0.2704
17100TIP3    H172791   4.117   3.986   1.145  0.5936  2.0973  0.1809
17100TIP3    H272792   4.005   3.924   1.226  0.6868 -2.7620 -3.0062
17101TIP3   OH272793   1.509   2.712  11.964  0.0194  0.0450  0.1568
17101TIP3    H172794   1.571   2.639  11.961  0.1229  0.0054  1.8534
17101TIP3    H272795   1.562   2.787  11.992 -0.0735  0.8254 -1.6224
17102TIP3   OH272796   6.552   3.092   1.819  0.3247 -0.2243  1.1604
17102TIP3    H172797   6.538   3.141   1.738 -0.6505  1.4910  2.3003
17102TIP3    H272798   6.489   3.129   1.880  0.3284 -2.1877  2.4304
17103TIP3   OH272799   0.406   3.937  11.097  0.6310 -0.0567  0.4441
17103TIP3    H172800   0.346   3.871  11.132 -0.3707  0.9645  0.7086
17103TIP3    H272801   0.488   3.922  11.143  0.3931 -1.0605  0.5546
17104TIP3   OH272802   0.142   6.698   0.342  0.1299 -0.1089 -0.1943
17104TIP3    H172803   0.054   6.715   0.308  1.0656  1.0682 -2.2276
17104TIP3    H272804   0.164   6.778   0.391  0.7882  0.4496 -1.3686
17105TIP3   OH272805   6.475   3.848  13.611 -0.3442 -0.2054  0.5624
17105TIP3    H172806   6.555   3.797  13.602 -0.1708  0.0996  0.3341
17105TIP3    H272807   6.462   3.887  13.525  0.2790  1.2352  1.0980
17106TIP3   OH272808   0.382   1.861   5.753 -0.0211  0.0834  0.2396
17106TIP3    H172809   0.366   1.927   5.820 -0.7369 -0.1770  0.3415
17106TIP3    H272810   0.344   1.898   5.673  0.0383  0.0149  0.1789
17107TIP3   OH272811   5.079   0.546   6.564  0.0031 -0.0684 -0.1510
17107TIP3    H172812   5.004   0.557   6.505 -0.3883  0.2305  0.3891
17107TIP3    H272813   5.039   0.526   6.649  0.5823 -2.0593 -0.2834
17108TIP3   OH272814   1.558   4.916  10.648 -0.1139  0.0981 -0.3733
17108TIP3    H172815   1.597   4.862  10.716  0.4776  0.5846 -0.3202
17108TIP3    H272816   1.601   4.888  10.567 -1.1797 -0.8437 -0.6594
17109TIP3   OH272817   0.998   3.800   0.827 -0.5113 -0.2936  0.1725
17109TIP3    H172818   0.948   3.793   0.746 -1.4128 -3.5240  0.8677
17109TIP3    H272819   0.935   3.834   0.891 -0.7708 -0.8441  0.2174
17110TIP3   OH272820   6.559   0.086  13.184 -0.6465  0.1762 -0.3181
17110TIP3    H172821   6.515   0.002  13.169 -2.0619  0.8591 -0.2188
17110TIP3    H272822   6.635   0.084  13.126 -1.4225 -0.6236 -1.3670
17111TIP3   OH272823   4.913   2.141   2.949 -0.7115 -0.5545 -0.0944
17111TIP3    H172824   4.987   2.092   2.987  0.1191  0.2518 -0.6304
17111TIP3    H272825   4.862   2.075   2.903  0.4022 -0.9330 -0.8169
17112TIP3   OH272826   1.720   4.208   2.878 -0.0122  0.3547 -0.2645
17112TIP3    H172827   1.651   4.148   2.905 -0.7800  1.1084 -0.5258
17112TIP3    H272828   1.674   4.283   2.840  0.9742  0.0841 -2.0893
17113TIP3   OH272829   2.372   6.388  13.196  0.0452 -0.0986 -0.3034
17113TIP3    H172830   2.318   6.312  13.220  0.7304 -0.8925 -1.1806
17113TIP3    H272831   2.461   6.361  13.215  0.2264  0.8482  0.2311
17114TIP3   OH272832   6.170   4.437  15.280  0.4653 -0.1865  0.1365
17114TIP3    H172833   6.079   4.424  15.307  0.4563  0.5911  0.5157
17114TIP3    H272834   6.213   4.354  15.299  0.2993  0.1009  1.8889
17115TIP3   OH272835   4.200   3.072   2.647  0.3752  0.0658  0.2355
17115TIP3    H172836   4.262   3.026   2.703 -0.4356 -1.2236  0.1277
17115TIP3    H272837   4.162   3.003   2.592  0.3694  1.1314 -1.1620
17116TIP3   OH272838   3.885   0.238  12.505  0.2739  0.1278  0.0600
17116TIP3    H172839   3.818   0.280  12.451  0.0010  1.0747  1.0895
17116TIP3    H272840   3.838   0.167  12.550  1.0285 -2.3170 -2.7135
17117TIP3   OH272841   6.527   4.262  10.735  0.1313  0.1850  0.0658
17117TIP3    H172842   6.569   4.181  10.762  2.1675  0.0735 -2.9578
17117TIP3    H272843   6.496   4.245  10.646 -0.2189  2.4123 -0.3107
17118TIP3   OH272844   2.533   6.367   3.976  0.6913 -0.2483 -0.1894
17118TIP3    H172845   2.464   6.432   3.966  0.7313 -0.1943 -0.1220
17118TIP3    H272846   2.495   6.299   4.032  0.7287 -0.1644 -0.0606
17119TIP3   OH272847   6.135   2.694   1.305  0.1955 -0.0348  1.1256
17119TIP3    H172848   6.225   2.678   1.335  0.7372  0.1367 -0.3191
17119TIP3    H272849   6.104   2.608   1.276  0.3256  0.1232  0.5158
17120TIP3   OH272850   6.610   0.558  12.755 -0.1925 -0.2143  0.0783
17120TIP3    H172851   6.705   0.563  12.754 -0.0860 -1.2974  1.3882
17120TIP3    H272852   6.590   0.467  12.732 -0.9416  0.1155 -0.6320
17121TIP3   OH272853   6.581   0.281   6.005 -0.4107  0.0884  0.1242
17121TIP3    H172854   6.572   0.288   6.100  0.5916 -0.5774  0.2804
17121TIP3    H272855   6.666   0.239   5.992 -0.9722 -0.7336 -1.0404
17122TIP3   OH272856   6.355   0.308  12.814  0.0727 -0.1103 -0.1675
17122TIP3    H172857   6.332   0.398  12.836 -0.1042  0.3063 -1.9709
17122TIP3    H272858   6.276   0.258  12.833 -0.3211  0.3510 -0.5955
17123TIP3   OH272859   0.477   4.688  16.576 -0.6606 -0.5960  0.4207
17123TIP3    H172860   0.399   4.633  16.583 -2.6980  2.1708  1.3978
17123TIP3    H272861   0.469   4.749  16.650  0.1120  2.5379 -1.8875
17124TIP3   OH272862   2.924   5.056   5.919 -0.5552 -0.8066  0.2043
17124TIP3    H172863   3.008   5.101   5.933 -0.0430 -1.3829 -0.9014
17124TIP3    H272864   2.921   4.989   5.987 -0.8221  0.1620  1.1803
17125TIP3   OH272865   5.976   2.070   0.689  0.2292  0.3368  0.1814
17125TIP3    H172866   5.935   2.059   0.603 -0.3233  0.2145  0.4502
17125TIP3    H272867   5.941   1.997   0.741 -1.0765  1.5808  1.1089
17126TIP3   OH272868   5.216   3.707   2.304 -0.1804  0.0974 -0.2574
17126TIP3    H172869   5.122   3.712   2.285 -0.1384  0.1535 -0.4457
17126TIP3    H272870   5.222   3.641   2.374 -0.4748  0.9554  0.5976
17127TIP3   OH272871   2.550   0.168   2.005 -0.7829  0.1523  0.3117
17127TIP3    H172872   2.529   0.075   1.996 -2.2191  0.3092  1.6364
17127TIP3    H272873   2.615   0.185   1.937  0.5863 -2.1387  0.9582
17128TIP3   OH272874   0.047   3.650  13.223  1.2959  0.1891  0.0759
17128TIP3    H172875   0.061   3.661  13.317 -0.1563 -0.6422  0.4063
17128TIP3    H272876   0.127   3.606  13.192  1.8995  0.7099  0.8551
17129TIP3   OH272877   6.199   3.212  15.775  0.1591  0.3315  0.0839
17129TIP3    H172878   6.176   3.305  15.779 -0.0367  0.2688  0.4931
17129TIP3    H272879   6.118   3.167  15.797  0.1073  0.0488 -0.6875
17130TIP3   OH272880   5.043   4.489   0.107  0.7453 -0.1773  0.4944
17130TIP3    H172881   5.059   4.398   0.084  0.4465 -0.0598 -0.1835
17130TIP3    H272882   4.948   4.497   0.107  0.7791  0.2292  0.1794
17131TIP3   OH272883   0.117   6.066   1.800 -0.5585 -0.1983  0.4317
17131TIP3    H172884   0.113   6.083   1.894 -0.2924  0.4609  0.3277
17131TIP3    H272885   0.030   6.092   1.768 -0.6959 -0.5482  0.5058
17132TIP3   OH272886   1.304   5.768  11.571  0.5866  0.2254 -0.2423
17132TIP3    H172887   1.331   5.720  11.649  1.5577  0.6682 -0.2984
17132TIP3    H272888   1.385   5.782  11.522  0.3858  2.2624 -0.0481
17133TIP3   OH272889   3.794   4.560   4.931  0.3503  0.0228 -0.1130
17133TIP3    H172890   3.744   4.480   4.944  0.0601  0.4575  1.6951
17133TIP3    H272891   3.784   4.579   4.837 -0.2269 -1.6043 -0.4161
17134TIP3   OH272892   1.890   5.233   5.966  0.5055 -0.0313  0.3019
17134TIP3    H172893   1.973   5.255   6.007  0.9536 -1.9286  0.4894
17134TIP3    H272894   1.850   5.168   6.025 -3.0253  3.5206  2.3866
17135TIP3   OH272895   6.204   0.604  13.287 -0.3435 -0.2131 -0.2186
17135TIP3    H172896   6.236   0.516  13.264 -0.6418 -0.3452 -0.1408
17135TIP3    H272897   6.262   0.664  13.241  0.1040 -0.4455  0.0348
17136TIP3   OH272898   2.999   5.699   5.719  0.0818 -0.2378 -0.1267
17136TIP3    H172899   2.973   5.787   5.747  2.8930  1.0666 -1.2550
17136TIP3    H272900   3.023   5.654   5.801  2.0530  1.3380  0.2545
17137TIP3   OH272901   5.538   2.893   3.784  0.3777  0.7532  0.2275
17137TIP3    H172902   5.474   2.867   3.850  1.7207 -1.3042  0.8211
17137TIP3    H272903   5.518   2.838   3.708  1.2413  0.2757  0.3312
17138TIP3   OH272904   0.697   4.375   1.242  0.1479  0.0018 -0.4206
17138TIP3    H172905   0.674   4.285   1.265  1.4019 -0.1256  0.4243
17138TIP3    H272906   0.776   4.394   1.293  0.2251  1.3951 -1.0039
17139TIP3   OH272907   1.668   0.779  14.093  0.0810 -0.0863 -0.4642
17139TIP3    H172908   1.691   0.779  14.000  0.0837 -0.4002 -0.4652
17139TIP3    H272909   1.627   0.864  14.108  0.1439 -0.0073 -0.7368
17140TIP3   OH272910   1.060   5.091   3.422  0.4138 -0.0447 -0.3404
17140TIP3    H172911   1.081   5.014   3.475 -1.9780  0.2223  1.1588
17140TIP3    H272912   1.137   5.103   3.366  2.6977 -0.9940  2.3158
17141TIP3   OH272913   0.274   0.453   5.742  0.1610 -0.2789 -0.5988
17141TIP3    H172914   0.312   0.481   5.658  0.5627 -0.5537 -0.5109
17141TIP3    H272915   0.349   0.439   5.799 -0.1650  2.5055  0.6705
17142TIP3   OH272916   2.885   2.625   1.948 -0.6203  0.1172  0.2905
17142TIP3    H172917   2.893   2.714   1.982 -1.3647 -0.2503  1.4777
17142TIP3    H272918   2.880   2.570   2.026  1.1339 -1.1178 -0.4010
17143TIP3   OH272919   0.125   3.978   0.613  0.3300 -0.4098  0.0730
17143TIP3    H172920   0.204   4.032   0.622  0.0531  0.0049  0.0540
17143TIP3    H272921   0.057   4.027   0.660 -0.0474 -0.4863 -0.3828
17144TIP3   OH272922   3.098   0.121   3.700  0.5823  0.4901 -0.1972
17144TIP3    H172923   3.184   0.110   3.659 -0.3304 -0.9839 -1.8541
17144TIP3    H272924   3.060   0.033   3.701 -1.1590  1.1948 -0.0504
17145TIP3   OH272925   4.602   0.672   5.408 -0.0095 -0.3882 -0.1755
17145TIP3    H172926   4.560   0.748   5.449  0.7394  0.3352 -0.7170
17145TIP3    H272927   4.543   0.648   5.337 -0.0623 -0.0663 -0.2423
17146TIP3   OH272928   4.944   3.611  15.933  0.4279 -0.4128  0.6401
17146TIP3    H172929   4.902   3.533  15.897  3.0259 -0.4839 -2.7239
17146TIP3    H272930   4.879   3.681  15.922 -0.8138 -1.4837  0.8927
17147TIP3   OH272931   5.723   4.600   0.935 -0.3417  0.2763 -0.4188
17147TIP3    H172932   5.680   4.685   0.934  0.0945  0.5020 -0.4494
17147TIP3    H272933   5.770   4.598   1.019 -0.2062  0.1420 -0.4976
17148TIP3   OH272934   4.746   2.883  15.484 -0.5465 -0.7399 -0.5244
17148TIP3    H172935   4.783   2.957  15.437  0.1820 -1.2204 -0.7193
17148TIP3    H272936   4.760   2.808  15.427 -1.1265 -1.0568 -0.2578
17149TIP3   OH272937   4.646   2.356   0.747  0.6708  0.1378 -0.3654
17149TIP3    H172938   4.610   2.348   0.658  0.0729  0.0940 -0.1207
17149TIP3    H272939   4.570   2.353   0.804  1.1247 -0.7331  0.2148
17150TIP3   OH272940   1.491   1.841   2.112 -0.2555  0.2726 -0.0112
17150TIP3    H172941   1.559   1.788   2.154  0.1757  0.8888  0.0920
17150TIP3    H272942   1.416   1.835   2.171  0.1369  0.6131  0.5430
17151TIP3   OH272943   6.373   6.141   2.740  0.0057  0.6759 -0.0427
17151TIP3    H172944   6.354   6.050   2.761  1.8818  0.2892  0.1228
17151TIP3    H272945   6.311   6.163   2.670  1.2958 -1.5983 -2.0363
17152TIP3   OH272946   4.088   3.965  16.305 -0.7299  0.4469 -0.2420
17152TIP3    H172947   4.078   3.974  16.400 -0.4535  0.5324 -0.2210
17152TIP3    H272948   4.018   3.905  16.279 -1.3496  1.1084 -0.1094
17153TIP3   OH272949   5.093   4.311   5.637 -0.3030 -0.2307 -0.0364
17153TIP3    H172950   5.125   4.334   5.725 -1.7832  0.4313  0.3646
17153TIP3    H272951   5.003   4.343   5.636  0.0940  0.9722 -2.2654
17154TIP3   OH272952   0.172   5.034   2.375 -0.1266 -0.3851  0.5297
17154TIP3    H172953   0.106   5.030   2.443  0.9223  0.0310  1.6028
17154TIP3    H272954   0.123   5.040   2.293 -1.4065 -1.0724  1.2289
17155TIP3   OH272955   5.687   3.236   0.695  0.6092 -1.1956  0.0250
17155TIP3    H172956   5.613   3.175   0.698  0.2173 -0.7410 -0.1503
17155TIP3    H272957   5.720   3.229   0.605  0.1846 -0.7214 -0.1766
17156TIP3   OH272958   4.774   1.760   3.101 -0.4097 -0.2011 -0.0901
17156TIP3    H172959   4.714   1.758   3.176 -0.2098  1.0225  0.1150
17156TIP3    H272960   4.718   1.782   3.027 -0.3118  0.3802  0.0067
17157TIP3   OH272961   1.426   5.989  12.941 -0.4345  0.3391 -0.1855
17157TIP3    H172962   1.513   5.965  12.908 -0.8575  0.0834 -1.1467
17157TIP3    H272963   1.368   5.980  12.865 -1.6050 -1.1219  0.8263
17158TIP3   OH272964   3.123   5.302   5.515 -0.6755 -0.0597  0.2296
17158TIP3    H172965   3.091   5.250   5.589  2.0707 -2.6986 -0.2540
17158TIP3    H272966   3.198   5.351   5.550 -0.6637  0.3402 -0.3335
17159TIP3   OH272967   3.103   5.322  13.854 -0.1480  0.3104 -0.2676
17159TIP3    H172968   3.069   5.408  13.878  0.0225  0.2404  0.2426
17159TIP3    H272969   3.193   5.338  13.827 -0.1719  0.3193 -0.3404
17160TIP3   OH272970   2.563   1.881   2.351 -0.1543  0.5658 -0.2443
17160TIP3    H172971   2.634   1.818   2.361 -1.3634 -0.6184  1.4714
17160TIP3    H272972   2.595   1.943   2.285  2.1978 -0.2486  0.0352
17161TIP3   OH272973   5.198   4.432   4.830 -0.2918 -0.2856  0.3682
17161TIP3    H172974   5.130   4.369   4.857 -0.7271  0.0672  0.1086
17161TIP3    H272975   5.151   4.515   4.821  0.4060  0.2411  1.3813
17162TIP3   OH272976   2.277   1.750  15.571 -0.6178  0.3384  0.6639
17162TIP3    H172977   2.268   1.664  15.530  0.8537  0.0191  0.9410
17162TIP3    H272978   2.195   1.795  15.552 -0.6960 -0.4618 -1.0391
17163TIP3   OH272979   0.434   6.268   2.011 -0.1622 -0.4394 -0.1875
17163TIP3    H172980   0.496   6.238   2.078 -0.3224 -2.0157 -0.7013
17163TIP3    H272981   0.356   6.293   2.061  0.6142  0.9183  0.4071
17164TIP3   OH272982   1.148   5.760   4.438  0.1901  0.2800  0.5307
17164TIP3    H172983   1.222   5.722   4.485  1.4924  1.6745 -0.2960
17164TIP3    H272984   1.149   5.853   4.463 -0.4009  0.6035 -0.5911
17165TIP3   OH272985   6.766   5.811  15.740  0.1890  0.2896  0.3444
17165TIP3    H172986   6.750   5.881  15.677 -0.5488 -0.2127 -0.0414
17165TIP3    H272987   6.740   5.848  15.824 -0.4016  0.4066  0.1117
17166TIP3   OH272988   3.380   3.805  12.096 -0.1922  0.1223 -0.0670
17166TIP3    H172989   3.293   3.764  12.095  0.7113 -1.9379 -0.4830
17166TIP3    H272990   3.365   3.891  12.136 -2.7511  0.6986 -1.9771
17167TIP3   OH272991   2.117   4.638   3.729  0.0167  0.4296  0.2039
17167TIP3    H172992   2.172   4.651   3.651 -1.3354  0.7503 -0.7403
17167TIP3    H272993   2.047   4.702   3.719 -1.3838 -0.9887  0.5389
17168TIP3   OH272994   0.947   3.935   0.107 -0.2930  0.4868 -0.2997
17168TIP3    H172995   0.950   3.889   0.023  0.1166 -0.1168  0.0334
17168TIP3    H272996   1.030   3.981   0.113  1.0410 -1.8575  1.0489
17169TIP3   OH272997   1.543   3.627  16.197  0.2598 -0.2243  0.4240
17169TIP3    H172998   1.631   3.655  16.170  0.4429  0.6064  1.7748
17169TIP3    H272999   1.515   3.566  16.129  1.8581 -0.4520 -0.0621
17170TIP3   OH273000   5.056   0.801  11.551 -0.1250  0.3774  0.0822
17170TIP3    H173001   5.000   0.836  11.621 -1.3440 -0.3541 -0.4825
17170TIP3    H273002   4.995   0.755  11.493  1.1424 -0.9109 -0.2882
17171TIP3   OH273003   4.806   5.106  13.869 -0.2295  0.1073 -0.2951
17171TIP3    H173004   4.842   5.019  13.889  0.5715  0.1702 -1.3866
17171TIP3    H273005   4.828   5.121  13.777 -0.1215  1.5791 -0.0556
17172TIP3   OH273006   2.726   4.972  13.461  0.0653  0.8297  0.5004
17172TIP3    H173007   2.739   4.997  13.552 -0.3648  0.6784  0.6099
17172TIP3    H273008   2.690   4.883  13.465  3.0403 -0.5253  0.0779
17173TIP3   OH273009   4.224   0.874  15.065  0.3576 -0.1463 -0.3593
17173TIP3    H173010   4.226   0.868  14.970 -0.0657  1.4323 -0.5012
17173TIP3    H273011   4.227   0.968  15.083 -0.6073 -0.3636  1.1532
17174TIP3   OH273012   5.836   0.998   6.112  0.2722 -0.2848  0.2075
17174TIP3    H173013   5.869   0.918   6.153  3.4097  0.7800  0.0408
17174TIP3    H273014   5.823   1.059   6.185  2.1146  0.3693  0.0457
17175TIP3   OH273015   1.058   2.284  11.708  0.0227 -0.6415  0.3542
17175TIP3    H173016   1.025   2.195  11.697 -0.3464 -0.7449  2.1078
17175TIP3    H273017   1.087   2.288  11.799  0.1495  0.9915  0.2631
17176TIP3   OH273018   4.422   1.546   2.020  0.1706 -0.3157 -0.2412
17176TIP3    H173019   4.401   1.488   1.947  1.7344 -0.1945 -0.8186
17176TIP3    H273020   4.413   1.634   1.983  1.3843 -0.2585 -0.4455
17177TIP3   OH273021   2.060   1.195   6.218 -0.5061 -0.4146 -0.3815
17177TIP3    H173022   2.070   1.188   6.123  0.2393  0.1587 -0.3597
17177TIP3    H273023   1.970   1.169   6.235 -0.3756 -1.4259 -1.1436
17178TIP3   OH273024   1.912   1.902   4.771  0.7995  0.4003  0.3774
17178TIP3    H173025   1.928   1.948   4.689  2.5768 -0.1145  0.4085
17178TIP3    H273026   1.821   1.924   4.793  0.2914  0.5541 -1.6913
17179TIP3   OH273027   2.661   1.720   3.412 -0.4284 -0.3850 -0.5727
17179TIP3    H173028   2.620   1.674   3.338 -0.5750 -0.3471 -0.5164
17179TIP3    H273029   2.731   1.661   3.441 -3.2676 -2.7648  2.2731
17180TIP3   OH273030   2.281   3.541  11.289  0.1032  0.3461 -0.6085
17180TIP3    H173031   2.309   3.450  11.302  1.3917  0.9873  1.5368
17180TIP3    H273032   2.187   3.535  11.275  0.3433 -1.4025 -1.9372
17181TIP3   OH273033   1.700   6.591   2.489  0.0692 -0.4610  0.4896
17181TIP3    H173034   1.607   6.573   2.476 -0.1426  0.5573  0.4608
17181TIP3    H273035   1.706   6.687   2.485  1.1972 -0.5427 -0.0406
17182TIP3   OH273036   2.899   4.913  11.728 -0.4632  0.4544 -0.3289
17182TIP3    H173037   2.834   4.975  11.760 -0.2603 -0.2366  1.5260
17182TIP3    H273038   2.904   4.930  11.634 -1.4658  2.2383 -0.1035
17183TIP3   OH273039   2.781   1.565  11.476  0.4426  0.2412  0.0770
17183TIP3    H173040   2.874   1.567  11.499  0.6188  1.5749 -0.6137
17183TIP3    H273041   2.736   1.592  11.555  0.4428 -2.4413  1.0782
17184TIP3   OH273042   2.265   3.571  14.543  0.2504  0.1787 -0.1618
17184TIP3    H173043   2.178   3.578  14.583  0.3783 -0.5369  0.2577
17184TIP3    H273044   2.262   3.489  14.494  0.7537  0.0587  0.0064
17185TIP3   OH273045   1.676   0.850  11.357  0.4804 -0.7120  0.1687
17185TIP3    H173046   1.666   0.934  11.311  3.4222 -0.2254  0.1971
17185TIP3    H273047   1.675   0.785  11.287 -2.5896 -0.8498  0.2058
17186TIP3   OH273048   1.850   3.058  16.411  0.0353 -0.2568 -0.2047
17186TIP3    H173049   1.913   2.988  16.396 -0.7685 -1.0897  0.1556
17186TIP3    H273050   1.896   3.138  16.386  0.7978 -0.9623 -1.1610
17187TIP3   OH273051   3.282   5.847   2.468 -0.0824  0.4542  0.2999
17187TIP3    H173052   3.330   5.769   2.496 -0.9426 -0.2362 -0.0779
17187TIP3    H273053   3.230   5.872   2.544  0.6541  1.0345  0.6188
17188TIP3   OH273054   2.195   2.750  15.746 -0.0994 -0.0397 -0.3216
17188TIP3    H173055   2.134   2.780  15.678 -1.3572 -0.9147  0.3828
17188TIP3    H273056   2.264   2.817  15.747 -0.3619  0.3201 -2.0149
17189TIP3   OH273057   0.248   1.418   1.123  0.3276 -0.2814  0.5406
17189TIP3    H173058   0.306   1.391   1.195  0.5460  0.3117  0.5945
17189TIP3    H273059   0.236   1.512   1.137  0.1724 -0.2117 -0.0621
17190TIP3   OH273060   4.586   1.421  11.516 -0.1155  0.0763  0.1606
17190TIP3    H173061   4.530   1.343  11.521 -0.4989  0.3146 -0.3175
17190TIP3    H273062   4.673   1.387  11.496  0.0599 -0.3511  1.5597
17191TIP3   OH273063   3.351   4.568   4.046 -0.0236  0.0163  0.2176
17191TIP3    H173064   3.419   4.585   4.111 -1.7915  1.2206  1.8704
17191TIP3    H273065   3.297   4.500   4.086 -0.0386 -0.6342 -0.8857
17192TIP3   OH273066   5.683   4.989  17.077 -0.7256  0.2652  0.0623
17192TIP3    H173067   5.716   4.906  17.109  1.1628  1.1015  0.4410
17192TIP3    H273068   5.600   5.002  17.123  0.0423 -0.3641  1.6888
17193TIP3   OH273069   4.231   3.849   3.079 -0.3443  0.0594 -0.7442
17193TIP3    H173070   4.190   3.801   3.152 -1.0373  0.1070 -1.0948
17193TIP3    H273071   4.166   3.845   3.009  0.0557  0.5709 -1.1441
17194TIP3   OH273072   1.905   0.780  13.137  0.0280  0.7566  0.0809
17194TIP3    H173073   1.954   0.763  13.217  2.7090  0.4295 -1.5057
17194TIP3    H273074   1.897   0.694  13.096  0.5603  1.1933 -0.9694
17195TIP3   OH273075   2.942   6.424   0.805  0.0621 -0.7529  0.0293
17195TIP3    H173076   2.860   6.398   0.848  0.0442 -1.0285 -0.1758
17195TIP3    H273077   2.940   6.380   0.720  0.0410 -0.1065 -0.3089
17196TIP3   OH273078   0.393   3.300   1.188 -0.2440 -0.0230 -0.5342
17196TIP3    H173079   0.312   3.261   1.219  0.0775 -0.9477 -0.8265
17196TIP3    H273080   0.366   3.368   1.127 -0.7769 -1.7412 -2.2777
17197TIP3   OH273081   0.576   0.781  16.431 -0.4003 -0.0309  0.6371
17197TIP3    H173082   0.544   0.777  16.521 -0.0670  0.0226  0.7594
17197TIP3    H273083   0.551   0.698  16.393 -1.4710  0.3553  0.4672
17198TIP3   OH273084   1.722   0.043   2.505 -0.1417 -0.1075 -0.2362
17198TIP3    H173085   1.691   0.129   2.533 -0.5379 -0.4038  0.2379
17198TIP3    H273086   1.721   0.047   2.409 -0.7746  0.1883 -0.2176
17199TIP3   OH273087   2.801   0.293   0.871  0.7133  0.2427 -0.6198
17199TIP3    H173088   2.856   0.243   0.810 -2.3210  0.4587 -3.8656
17199TIP3    H273089   2.788   0.234   0.945 -2.0714 -3.8736 -3.9019
17200TIP3   OH273090   2.544   1.807  13.433 -0.1468  0.0541 -0.4983
17200TIP3    H173091   2.579   1.834  13.518 -0.2765  0.2494 -0.5087
17200TIP3    H273092   2.518   1.715  13.446 -1.4838  0.4963  0.0780
17201TIP3   OH273093   0.632   0.044  13.236 -0.2813 -0.0853  0.1852
17201TIP3    H173094   0.540   0.019  13.248 -0.0769 -0.2884  1.4061
17201TIP3    H273095   0.628   0.127  13.189 -1.0143 -1.4579 -2.3671
17202TIP3   OH273096   5.226   3.012  16.076  0.0263 -0.2125 -0.1734
17202TIP3    H173097   5.169   3.000  15.999 -2.0929  0.6241  1.1533
17202TIP3    H273098   5.278   3.090  16.055  1.1980 -1.3382 -1.6644
17203TIP3   OH273099   2.948   0.119   0.725 -0.0801 -0.3326  0.1013
17203TIP3    H173100   2.953   0.141   0.632  0.2884  1.3155  0.4777
17203TIP3    H273101   2.889   0.044   0.729 -0.6834  0.0301 -1.3820
17204TIP3   OH273102   2.746   1.458  15.201 -0.3756  0.0085 -0.0890
17204TIP3    H173103   2.751   1.442  15.295 -1.3471 -0.9175 -0.1847
17204TIP3    H273104   2.773   1.375  15.161  1.3440  0.7855 -0.6646
17205TIP3   OH273105   4.126   3.747  16.681 -0.1546 -0.2928  0.1552
17205TIP3    H173106   4.213   3.774  16.709 -0.1561  0.0564 -0.1690
17205TIP3    H273107   4.080   3.829  16.661 -0.1505 -0.5234 -0.8596
17206TIP3   OH273108   5.534   0.648   3.054  0.8569  0.4296  0.8562
17206TIP3    H173109   5.627   0.665   3.065  0.3603  3.2608  1.4589
17206TIP3    H273110   5.501   0.723   3.005 -1.3056  0.1269  1.7359
17207TIP3   OH273111   6.498   0.122  11.713 -0.4462  0.2924 -0.0176
17207TIP3    H173112   6.463   0.095  11.628 -0.4437  0.5613 -0.1031
17207TIP3    H273113   6.483   0.046  11.770  0.9603 -0.5103 -0.6443
17208TIP3   OH273114   4.566   2.930   3.004 -0.3653 -0.8317  0.6225
17208TIP3    H173115   4.562   3.015   3.047  0.5973  0.8125 -2.2639
17208TIP3    H273116   4.574   2.867   3.076 -0.8668  1.4815  2.8574
17209TIP3   OH273117   2.904   6.754  13.008 -0.3823 -0.1660  0.0165
17209TIP3    H173118   2.934   6.742  12.918  1.5057 -1.4315  0.7472
17209TIP3    H273119   2.834   6.690  13.019  1.0067 -1.7174  0.1148
17210TIP3   OH273120   1.854   2.619   4.886  0.7163  0.0866 -0.7363
17210TIP3    H173121   1.839   2.714   4.888  0.0062 -0.0346  1.0685
17210TIP3    H273122   1.942   2.610   4.850  0.5336  1.3805 -1.5984
17211TIP3   OH273123   0.800   5.551   5.967 -0.2653 -0.3815 -0.0922
17211TIP3    H173124   0.858   5.581   5.897 -0.3532 -0.5882 -0.2599
17211TIP3    H273125   0.725   5.610   5.963  0.0844  0.0858  0.3404
17212TIP3   OH273126   5.073   5.116  11.136 -0.3939 -0.2470 -0.2516
17212TIP3    H173127   5.101   5.089  11.049 -0.3503 -1.7076  0.1842
17212TIP3    H273128   4.978   5.120  11.131 -0.3585  0.3733 -0.5442
17213TIP3   OH273129   4.290   6.116   3.785  0.7553  0.7207  0.2689
17213TIP3    H173130   4.329   6.181   3.726  3.0746 -1.6436 -1.0340
17213TIP3    H273131   4.207   6.093   3.744  0.3855  2.1066  0.2014
17214TIP3   OH273132   2.715   2.124  13.294  0.3758 -0.2141  0.3008
17214TIP3    H173133   2.738   2.206  13.252  1.7310  0.3170  1.9628
17214TIP3    H273134   2.777   2.060  13.260  1.4412  0.2050  1.3820
17215TIP3   OH273135   2.294   3.760  12.271 -0.6240 -0.3598 -0.4236
17215TIP3    H173136   2.232   3.688  12.285  1.1422 -1.6174  1.2697
17215TIP3    H273137   2.260   3.832  12.324  0.8994 -2.0451  3.1090
17216TIP3   OH273138   1.410   6.243  12.997 -0.2835  0.1860 -0.4936
17216TIP3    H173139   1.392   6.280  12.910  1.2479 -0.2020 -0.9936
17216TIP3    H273140   1.423   6.150  12.982  0.3234  0.1662  0.1041
17217TIP3   OH273141   4.400   5.409   6.078 -0.0346  0.0816  0.3107
17217TIP3    H173142   4.446   5.412   5.994  1.1927 -0.2044  0.9493
17217TIP3    H273143   4.307   5.399   6.055  0.5114 -2.9835 -1.0250
17218TIP3   OH273144   3.331   0.154   1.958 -0.5027 -0.1289  0.6350
17218TIP3    H173145   3.369   0.199   2.033 -1.2036  0.5438  0.6015
17218TIP3    H273146   3.253   0.111   1.992 -0.4802 -0.3410  0.4225
17219TIP3   OH273147   3.484   4.492   3.105 -0.6366 -0.2520  0.6574
17219TIP3    H173148   3.443   4.407   3.125 -0.0426 -0.8444 -0.5095
17219TIP3    H273149   3.521   4.480   3.017 -0.1751  1.0915  0.6513
17220TIP3   OH273150   5.795   6.656  16.898 -0.1650 -0.1506  0.2416
17220TIP3    H173151   5.765   6.745  16.915 -2.0751 -0.5249 -0.9381
17220TIP3    H273152   5.853   6.665  16.822 -2.5357 -0.1842 -1.6814
17221TIP3   OH273153   6.414   1.738  14.939 -0.5697 -0.7906 -0.2350
17221TIP3    H173154   6.502   1.773  14.922 -1.1981  1.9670  1.4498
17221TIP3    H273155   6.371   1.738  14.854  0.8008 -1.5195 -0.9729
17222TIP3   OH273156   3.542   2.660  11.570 -0.3095  0.2883 -0.3526
17222TIP3    H173157   3.544   2.579  11.519 -0.3803  0.6901 -1.0052
17222TIP3    H273158   3.471   2.711  11.532  0.5206  1.1773 -0.7636
17223TIP3   OH273159   1.968   4.832   0.904  0.1193  0.4133  0.2053
17223TIP3    H173160   2.019   4.903   0.867 -0.0060  0.3492 -0.0906
17223TIP3    H273161   2.021   4.800   0.977  0.2840  0.6531  0.1905
17224TIP3   OH273162   3.466   4.204   3.052 -0.6324 -0.0927 -0.0660
17224TIP3    H173163   3.471   4.192   2.957  0.1687  2.3983 -0.4325
17224TIP3    H273164   3.557   4.215   3.079 -0.9968  2.5085  0.3963
17225TIP3   OH273165   3.565   4.051   2.835  0.0238  0.1598 -0.8582
17225TIP3    H173166   3.629   4.088   2.773  0.3116 -0.4431 -0.9309
17225TIP3    H273167   3.608   3.972   2.869  0.0649  0.7473  0.4864
17226TIP3   OH273168   0.623   0.491  11.413  0.0989  0.2162 -0.3791
17226TIP3    H173169   0.594   0.563  11.356 -0.5889 -0.9986 -1.6277
17226TIP3    H273170   0.614   0.526  11.502 -1.5245  1.2190 -0.8898
17227TIP3   OH273171   4.093   2.601   2.875  0.1409  0.4064 -0.0870
17227TIP3    H173172   4.013   2.593   2.927 -0.7603 -0.2736 -1.5100
17227TIP3    H273173   4.141   2.520   2.893 -1.0438 -0.7133 -1.6475
17228TIP3   OH273174   4.698   3.980   3.799  0.2360 -0.0824  0.0019
17228TIP3    H173175   4.786   4.015   3.816  0.5382 -1.1437  0.7805
17228TIP3    H273176   4.639   4.052   3.820  0.9461  0.9263 -1.3676
17229TIP3   OH273177   5.419   1.597   0.404  0.0368 -0.0257  1.0116
17229TIP3    H173178   5.341   1.544   0.389 -0.9634  1.6818 -0.1098
17229TIP3    H273179   5.481   1.566   0.338 -1.4244  1.7815 -1.3684
17230TIP3   OH273180   3.306   5.799   5.246 -0.2453 -0.3016  0.2863
17230TIP3    H173181   3.225   5.845   5.271 -0.7638 -0.3724 -1.1706
17230TIP3    H273182   3.308   5.722   5.302  0.5412  1.3299  2.6539
17231TIP3   OH273183   1.542   0.871   3.981  0.0970 -0.2051 -0.2616
17231TIP3    H173184   1.501   0.951   4.015 -0.2736 -0.8677  0.8855
17231TIP3    H273185   1.477   0.803   3.994  0.5540 -0.7745 -0.8921
17232TIP3   OH273186   5.194   4.386   0.515 -0.9651 -0.0185  0.6790
17232TIP3    H173187   5.145   4.317   0.470  0.1129  0.8151 -1.9410
17232TIP3    H273188   5.286   4.363   0.501 -0.5265  0.0483  2.9631
17233TIP3   OH273189   4.729   6.346  14.339 -0.4686 -0.2224  0.0141
17233TIP3    H173190   4.645   6.376  14.305  0.0825  0.5504 -0.7092
17233TIP3    H273191   4.762   6.419  14.392 -0.5540 -0.7794  0.8524
17234TIP3   OH273192   0.573   1.361  16.822  0.3051 -0.3091 -0.2260
17234TIP3    H173193   0.567   1.314  16.905 -1.3032 -0.4520 -0.4016
17234TIP3    H273194   0.666   1.355  16.798  0.4569 -1.8517  0.6278
17235TIP3   OH273195   6.031   3.687   3.089 -0.6404  0.2557  0.1941
17235TIP3    H173196   6.023   3.599   3.052 -1.3357  0.1287  0.6272
17235TIP3    H273197   5.942   3.722   3.087 -0.7840  0.0958  2.1254
17236TIP3   OH273198   1.725   1.380   3.193 -0.1150 -0.0898 -0.0142
17236TIP3    H173199   1.745   1.300   3.242  2.0453  0.9948  1.0391
17236TIP3    H273200   1.810   1.421   3.179 -1.0366  1.3997 -1.6582
17237TIP3   OH273201   0.694   2.622  15.754  0.6295  0.1557  0.4347
17237TIP3    H173202   0.621   2.662  15.801  0.2542 -0.9773  0.8550
17237TIP3    H273203   0.766   2.620  15.818  0.3799 -0.6129  0.7008
17238TIP3   OH273204   0.688   0.175   2.112 -0.0691  0.1679 -0.6885
17238TIP3    H173205   0.639   0.144   2.036  1.7479 -0.3767 -1.6879
17238TIP3    H273206   0.689   0.271   2.102 -0.5345  0.1555 -0.8907
17239TIP3   OH273207   5.366   3.419  16.641 -0.6905 -0.7172  0.4590
17239TIP3    H173208   5.439   3.361  16.619  0.3633  0.6675  0.2140
17239TIP3    H273209   5.291   3.382  16.594  0.0231 -1.6871  0.0497
17240TIP3   OH273210   6.758   5.445  11.524  0.7707 -0.3667  0.0891
17240TIP3    H173211   6.695   5.386  11.482  0.1311  0.0271  0.4798
17240TIP3    H273212   6.798   5.392  11.592 -2.5231  0.5822  3.0622
17241TIP3   OH273213   3.704   6.237  11.325 -0.7076  0.3293 -0.3715
17241TIP3    H173214   3.735   6.216  11.237 -1.2221 -1.4424 -0.1706
17241TIP3    H273215   3.613   6.265  11.313 -0.6843  0.3805 -0.4303
17242TIP3   OH273216   4.056   4.083   0.847 -0.2210 -0.2124 -0.7476
17242TIP3    H173217   4.139   4.036   0.834 -1.2323 -1.6616 -2.5034
17242TIP3    H273218   4.082   4.171   0.873  1.8058 -1.3534  1.5728
17243TIP3   OH273219   1.559   4.788  12.003  0.1143  0.3755  0.0523
17243TIP3    H173220   1.646   4.822  11.985  1.1864 -1.0371  2.1406
17243TIP3    H273221   1.544   4.722  11.936  1.3308 -0.4424  0.5605
17244TIP3   OH273222   5.464   1.876   4.638 -0.0609 -0.6751 -0.2214
17244TIP3    H173223   5.391   1.932   4.610 -0.2534  0.0274  1.5926
17244TIP3    H273224   5.507   1.851   4.556 -0.2568  1.7414 -1.1318
17245TIP3   OH273225   4.085   6.417   4.896 -0.2729  0.3667  0.3396
17245TIP3    H173226   4.044   6.498   4.928 -1.5325  0.3550 -1.1792
17245TIP3    H273227   4.166   6.447   4.855  0.4937  0.5649  1.9271
17246TIP3   OH273228   2.566   0.150   2.292  0.1296 -1.1969 -0.6474
17246TIP3    H173229   2.559   0.159   2.197 -0.0365  2.6030 -0.4432
17246TIP3    H273230   2.476   0.135   2.321  0.2372 -2.8202 -1.0418
17247TIP3   OH273231   4.468   1.176   3.569 -0.5175 -0.0138 -0.6209
17247TIP3    H173232   4.391   1.215   3.528  0.1794  1.6486 -0.4271
17247TIP3    H273233   4.436   1.095   3.608 -2.0590  0.4133 -0.9256
17248TIP3   OH273234   0.708   5.989   4.756 -0.4214  0.1724  0.1295
17248TIP3    H173235   0.681   5.901   4.732  1.2398 -0.4059  0.2749
17248TIP3    H273236   0.708   6.037   4.674  0.8486 -0.5935 -0.3490
17249TIP3   OH273237   4.991   1.872   6.529 -0.3076  0.0222  0.5994
17249TIP3    H173238   4.993   1.966   6.545  2.3241 -0.0308  1.0023
17249TIP3    H273239   5.083   1.845   6.530 -1.0065 -2.6471  0.9985
17250TIP3   OH273240   4.406   1.647   4.661 -0.3934 -0.6883  0.3759
17250TIP3    H173241   4.352   1.720   4.631  0.8040  0.0524 -0.0459
17250TIP3    H273242   4.486   1.653   4.608 -0.8574 -3.2223 -0.7606
17251TIP3   OH273243   5.396   6.429   4.006  0.2860  0.6415  0.1563
17251TIP3    H173244   5.456   6.388   3.944  0.6135  1.9466 -0.4431
17251TIP3    H273245   5.327   6.364   4.020  0.2533  0.2644 -1.5241
17252TIP3   OH273246   2.355   3.550   6.206 -0.3823  0.2862  0.0417
17252TIP3    H173247   2.379   3.506   6.288  0.0772 -0.1412 -0.3182
17252TIP3    H273248   2.354   3.480   6.141  3.1649  1.1271 -1.1399
17253TIP3   OH273249   3.587   2.415   3.247  0.0798 -0.3240  0.0355
17253TIP3    H173250   3.529   2.467   3.191 -0.9597 -1.1997  0.2651
17253TIP3    H273251   3.543   2.330   3.255  1.2670 -0.9273  0.4440
17254TIP3   OH273252   5.426   3.185  16.034 -0.5895  0.0039 -0.1029
17254TIP3    H173253   5.500   3.245  16.032  0.6093 -1.3663  1.2004
17254TIP3    H273254   5.453   3.110  15.981 -1.9088  0.3841 -1.3791
17255TIP3   OH273255   2.510   4.632  16.496  0.1661  0.1734 -0.0080
17255TIP3    H173256   2.580   4.634  16.431 -0.1104  0.6232 -0.3053
17255TIP3    H273257   2.551   4.659  16.577  0.6356 -0.9271  0.1297
17256TIP3   OH273258   1.125   3.237  11.926  0.4956 -0.1618 -0.0896
17256TIP3    H173259   1.047   3.185  11.907  0.2638  0.0035  0.3885
17256TIP3    H273260   1.195   3.196  11.874  0.5083 -1.4618  0.8914
17257TIP3   OH273261   2.597   5.588  16.218  0.2686 -0.0058 -0.3461
17257TIP3    H173262   2.579   5.499  16.247  0.0318  0.5342  1.2913
17257TIP3    H273263   2.521   5.638  16.248  1.4884  1.1580  0.9148
17258TIP3   OH273264   5.363   1.951   1.077  0.3198 -0.0484 -0.6448
17258TIP3    H173265   5.282   1.958   1.027  0.1010  1.8722 -0.0979
17258TIP3    H273266   5.394   2.041   1.086  1.9142 -0.6324  0.1412
17259TIP3   OH273267   4.300   3.688  11.601 -0.0057 -0.6891 -0.1552
17259TIP3    H173268   4.389   3.724  11.601 -1.7207  4.4162  0.4588
17259TIP3    H273269   4.263   3.714  11.516 -1.1340 -2.1043 -0.1353
17260TIP3   OH273270   0.038   3.838   3.771 -0.4591  0.0303  0.5286
17260TIP3    H173271   0.000   3.767   3.822 -0.6175  0.1823  0.6229
17260TIP3    H273272  -0.032   3.865   3.712  0.1483 -1.0760 -0.7521
17261TIP3   OH273273   4.878   3.602   1.425 -0.1067  0.1560  0.9143
17261TIP3    H173274   4.939   3.663   1.382  0.7712  0.8806  3.0565
17261TIP3    H273275   4.839   3.653   1.496 -1.1653 -1.1128  1.2879
17262TIP3   OH273276   4.017   6.201   4.032 -0.1033  0.1413 -0.6599
17262TIP3    H173277   4.013   6.249   4.115 -1.7474  0.6774 -1.0163
17262TIP3    H273278   4.036   6.269   3.967 -0.2195 -0.0537 -0.8972
17263TIP3   OH273279   0.432   6.324   3.088  0.0564  0.2196  0.7844
17263TIP3    H173280   0.339   6.304   3.093  0.1219 -1.0232 -1.5419
17263TIP3    H273281   0.442   6.374   3.007  1.1432  2.4115  2.1650
17264TIP3   OH273282   4.973   2.977   5.931  0.0928 -0.0667 -0.4019
17264TIP3    H173283   4.945   2.975   6.023  0.3931  2.1143 -0.2138
17264TIP3    H273284   4.914   2.916   5.887 -2.4686  1.5253  0.6261
17265TIP3   OH273285   0.682   2.683  10.853  0.3103  0.2974 -0.0892
17265TIP3    H173286   0.637   2.600  10.839 -0.9708  0.4032  2.6352
17265TIP3    H273287   0.773   2.659  10.871 -0.0615 -0.5290  0.7233
17266TIP3   OH273288   0.056   5.485   0.251 -0.4777  0.6537  0.5891
17266TIP3    H173289   0.071   5.416   0.315 -0.5773 -1.6816 -1.7161
17266TIP3    H273290   0.101   5.562   0.286  2.4895 -1.4640  1.8020
17267TIP3   OH273291   6.201   2.406  12.093  0.3939 -0.6886 -0.4932
17267TIP3    H173292   6.229   2.496  12.076 -0.0446 -0.1738  1.3525
17267TIP3    H273293   6.255   2.378  12.167 -0.6464 -1.3648  0.0202
17268TIP3   OH273294   6.196   6.371   0.217 -0.7932 -0.2444 -0.6526
17268TIP3    H173295   6.112   6.396   0.179 -0.5598 -0.9902 -1.7071
17268TIP3    H273296   6.187   6.391   0.310 -1.6580  0.9166 -0.9574
17269TIP3   OH273297   6.146   5.878   0.309 -0.1250  0.2674 -0.4793
17269TIP3    H173298   6.216   5.914   0.255  0.5455 -1.7069 -1.0083
17269TIP3    H273299   6.177   5.791   0.335 -1.3418  0.3010  1.3330
17270TIP3   OH273300   0.714   3.610   4.189 -0.6550  0.0979  0.1804
17270TIP3    H173301   0.689   3.690   4.143  0.1312  0.3693  0.2201
17270TIP3    H273302   0.809   3.605   4.180 -0.8135 -1.6090 -1.0764
17271TIP3   OH273303   6.591   3.248  16.831 -0.1705 -0.1067 -0.2325
17271TIP3    H173304   6.611   3.168  16.878 -0.9442 -0.1625  0.0245
17271TIP3    H273305   6.622   3.318  16.889 -3.0996 -0.0619  1.5310
17272TIP3   OH273306   6.144   2.244   0.331 -0.4212 -0.1529  0.1455
17272TIP3    H173307   6.238   2.231   0.319 -0.7578 -2.3388 -0.4673
17272TIP3    H273308   6.113   2.163   0.370 -2.4900 -0.6157 -2.2468
17273TIP3   OH273309   4.813   5.419   2.968 -0.3614 -1.0203  0.2897
17273TIP3    H173310   4.820   5.513   2.989 -0.3351 -0.7555 -0.8268
17273TIP3    H273311   4.758   5.383   3.037 -0.8805 -0.0534  0.3955
17274TIP3   OH273312   0.209   5.265   3.885  0.4087  0.0762  0.2453
17274TIP3    H173313   0.208   5.254   3.790 -0.2381 -1.4266  0.3986
17274TIP3    H273314   0.128   5.312   3.905 -0.6773 -1.6951  0.2297
17275TIP3   OH273315   0.779   4.976   1.627  0.1368  0.5567  0.0864
17275TIP3    H173316   0.804   4.891   1.592 -1.1003  0.5813 -0.9443
17275TIP3    H273317   0.832   4.986   1.706  0.9606 -0.7581 -0.2641
17276TIP3   OH273318   0.228   2.998  13.116  0.0113  0.6101 -0.3137
17276TIP3    H173319   0.274   2.944  13.179  1.7525  1.9910 -0.3067
17276TIP3    H273320   0.214   3.081  13.161  1.5783  1.7430 -1.7344
17277TIP3   OH273321   0.882   4.133  13.488  0.7237  0.1559 -0.4367
17277TIP3    H173322   0.942   4.067  13.522  0.9888  1.3911  1.6592
17277TIP3    H273323   0.899   4.135  13.394  0.0028 -3.3885 -0.7795
17278TIP3   OH273324   3.201   4.775  15.871  0.0755  0.2034 -0.5777
17278TIP3    H173325   3.200   4.868  15.895  0.0593  0.3247 -1.0389
17278TIP3    H273326   3.150   4.732  15.939 -0.8629  0.6862 -0.9598
17279TIP3   OH273327   0.603   6.495  16.443 -0.0573  0.7214  0.4944
17279TIP3    H173328   0.522   6.484  16.393  1.1820 -0.9863 -1.3236
17279TIP3    H273329   0.574   6.523  16.530 -2.6158 -0.1456  0.0182
17280TIP3   OH273330   2.943   5.919  16.054 -0.1789  0.5474  0.0184
17280TIP3    H173331   2.874   5.852  16.056 -0.6296  0.9936 -0.5004
17280TIP3    H273332   2.975   5.917  15.964 -1.2326  2.0765 -0.4172
17281TIP3   OH273333   0.178   2.617  16.286  0.0985 -0.2924 -0.3170
17281TIP3    H173334   0.189   2.539  16.231 -1.3614  0.7111 -2.1448
17281TIP3    H273335   0.087   2.613  16.316  0.5998 -0.3127  1.3100
17282TIP3   OH273336   0.273   2.230   5.113  0.4550  0.0840 -0.2658
17282TIP3    H173337   0.199   2.180   5.148  1.5574 -1.1159  0.4039
17282TIP3    H273338   0.261   2.227   5.018 -0.5516  0.2444 -0.1566
17283TIP3   OH273339   2.438   2.336  12.327 -0.3142 -0.6586  0.2757
17283TIP3    H173340   2.387   2.306  12.252 -0.9535  1.4072 -0.1892
17283TIP3    H273341   2.514   2.379  12.288 -0.3625 -0.0725  0.8071
17284TIP3   OH273342   4.217   5.007  16.943 -0.2016  0.6183 -0.4721
17284TIP3    H173343   4.244   5.099  16.938 -0.8036  0.9267  1.2868
17284TIP3    H273344   4.299   4.960  16.958 -0.0825  1.1000  0.5390
17285TIP3   OH273345   4.019   3.487   1.408 -0.1984 -0.0961  0.3541
17285TIP3    H173346   4.086   3.471   1.474 -0.3664 -0.1798  0.5038
17285TIP3    H273347   3.938   3.454   1.447 -0.4023  0.3744  0.3387
17286TIP3   OH273348   5.881   2.688   6.121  0.1906  0.3591  0.3860
17286TIP3    H173349   5.875   2.596   6.146  0.8839  0.7114  1.9657
17286TIP3    H273350   5.855   2.737   6.199 -0.0706  1.5105 -0.3941
17287TIP3   OH273351   2.311   3.548   1.681 -0.5564  0.1860 -0.0074
17287TIP3    H173352   2.370   3.474   1.665  0.9948  1.3283  0.2356
17287TIP3    H273353   2.245   3.541   1.612  0.5653 -0.4157 -1.0475
17288TIP3   OH273354   1.642   6.158   5.738 -0.9467  0.1787  0.1792
17288TIP3    H173355   1.676   6.122   5.820  0.2331  1.7074  0.3967
17288TIP3    H273356   1.554   6.120   5.729 -1.0607 -0.0798  2.0978
17289TIP3   OH273357   5.832   2.865   3.715 -0.4422 -0.0291 -0.2870
17289TIP3    H173358   5.774   2.806   3.763 -1.6686  0.6481 -0.9070
17289TIP3    H273359   5.889   2.902   3.782 -0.6168 -0.8236  0.3112
17290TIP3   OH273360   5.434   2.480   2.746 -0.2376  0.2151  0.2060
17290TIP3    H173361   5.377   2.404   2.742  0.1348 -0.1832  1.7397
17290TIP3    H273362   5.397   2.541   2.682 -2.1740 -0.1809  0.8685
17291TIP3   OH273363   4.028   1.543   4.399 -0.5912 -0.3605 -0.0015
17291TIP3    H173364   3.981   1.597   4.336 -0.7297 -1.0137 -0.4629
17291TIP3    H273365   3.971   1.542   4.476  0.0312  1.2497  0.5233
17292TIP3   OH273366   3.294   5.105  14.644 -0.3040  0.8134  0.1287
17292TIP3    H173367   3.348   5.124  14.720 -0.8322  0.6378  0.5572
17292TIP3    H273368   3.356   5.088  14.574  0.2383 -0.6364  0.9087
17293TIP3   OH273369   4.242   5.712   4.348  0.0438  0.3967 -0.1738
17293TIP3    H173370   4.270   5.686   4.436 -1.1851  0.2064  0.1815
17293TIP3    H273371   4.188   5.639   4.318 -2.6145  1.9703  0.4196
17294TIP3   OH273372   5.646   1.976   4.821  0.2786 -0.2035  0.1243
17294TIP3    H173373   5.668   2.033   4.747  0.1719 -1.8233 -1.2141
17294TIP3    H273374   5.571   1.925   4.791 -0.5012 -0.1140  1.8030
17295TIP3   OH273375   5.276   1.329   2.209 -0.3194  0.1151  0.4731
17295TIP3    H173376   5.195   1.331   2.259  0.8858 -1.4995  2.6484
17295TIP3    H273377   5.257   1.271   2.135 -0.1289 -3.7205  3.1754
17296TIP3   OH273378   2.719   1.859  12.575 -0.0197  0.0153 -0.0790
17296TIP3    H173379   2.693   1.767  12.577  0.4115 -0.1125  1.8877
17296TIP3    H273380   2.667   1.900  12.644  1.1795  0.8124  0.3961
17297TIP3   OH273381   4.660   6.274   0.409 -0.3636 -0.5116  0.1356
17297TIP3    H173382   4.658   6.367   0.432  0.2943 -0.5572  0.4192
17297TIP3    H273383   4.681   6.272   0.316  0.0744 -0.3832  0.2313
17298TIP3   OH273384   4.909   5.322   5.257  0.3365  0.0128  0.3505
17298TIP3    H173385   4.955   5.399   5.290  0.7617  0.6295 -1.5908
17298TIP3    H273386   4.924   5.255   5.325 -0.1800  1.6328  2.1457
17299TIP3   OH273387   6.328   6.310  14.491  0.0316 -1.1266  0.1183
17299TIP3    H173388   6.419   6.318  14.520  0.0598  2.1596 -0.4428
17299TIP3    H273389   6.283   6.381  14.537 -1.1401  0.5088 -3.2792
17300TIP3   OH273390   6.088   5.405  16.551 -0.2504 -0.1283  0.1679
17300TIP3    H173391   6.043   5.459  16.616  0.4607  0.3729  0.2544
17300TIP3    H273392   6.161   5.365  16.598  1.8201  2.2023 -0.8040
17301TIP3   OH273393   5.127   2.314  14.793 -0.2886 -0.0797 -0.0526
17301TIP3    H173394   5.116   2.233  14.743 -2.0799  1.2448 -2.0138
17301TIP3    H273395   5.202   2.357  14.752 -0.4600  0.0492 -0.2367
17302TIP3   OH273396   2.950   4.186  12.779  0.0337 -0.0099  0.9141
17302TIP3    H173397   3.044   4.197  12.791 -0.0211  0.1876  1.1684
17302TIP3    H273398   2.919   4.150  12.862  0.2087 -2.1790  0.1021
17303TIP3   OH273399   4.534   2.735   3.190 -0.5425 -1.0532  1.1075
17303TIP3    H173400   4.445   2.700   3.186 -0.2393 -1.7466 -1.4595
17303TIP3    H273401   4.590   2.658   3.200 -0.1276 -0.8220  0.5941
17304TIP3   OH273402   0.406   4.694  12.600  0.2119  0.0710  0.8829
17304TIP3    H173403   0.324   4.689  12.650  1.1965 -0.8416  2.4960
17304TIP3    H273404   0.441   4.605  12.604  0.7520  0.1772 -0.7657
17305TIP3   OH273405   2.768   2.268   4.045  0.4821 -0.2319 -0.2638
17305TIP3    H173406   2.863   2.265   4.031  0.5646 -0.2474  0.2738
17305TIP3    H273407   2.731   2.235   3.964  0.8445  2.4709 -1.6513
17306TIP3   OH273408   2.816   2.379   3.586 -0.2452 -0.4586 -0.2579
17306TIP3    H173409   2.813   2.413   3.497 -0.4565  0.2616  0.0158
17306TIP3    H273410   2.741   2.420   3.630  0.1488 -0.4061  0.3866
17307TIP3   OH273411   3.761   5.545   0.605 -0.0037  0.2025 -0.2164
17307TIP3    H173412   3.851   5.528   0.633  0.0596  2.4270  1.1721
17307TIP3    H273413   3.726   5.605   0.670 -2.0276  0.5863 -1.5471
17308TIP3   OH273414   4.039   4.483   1.068 -0.4847  0.2910 -0.3491
17308TIP3    H173415   4.073   4.572   1.060  1.8975 -0.0825  3.1783
17308TIP3    H273416   4.076   4.436   0.993  1.7891  1.3888  0.0124
17309TIP3   OH273417   0.957   1.732  15.010 -0.1098 -0.3389 -0.5690
17309TIP3    H173418   0.955   1.781  14.928 -1.9447  1.9859  0.7251
17309TIP3    H273419   0.886   1.669  15.003 -1.3537  0.9675 -0.2174
17310TIP3   OH273420   4.169   2.458  15.315  0.1828 -0.3352  0.5321
17310TIP3    H173421   4.179   2.411  15.398  0.2380 -0.1254  0.6443
17310TIP3    H273422   4.175   2.550  15.339 -0.1794 -0.2612  0.3456
17311TIP3   OH273423   3.439   4.932  12.153  0.1369 -0.4781  0.2977
17311TIP3    H173424   3.476   4.862  12.206  0.7313  0.8421  1.7284
17311TIP3    H273425   3.494   5.008  12.173 -1.6696  0.8802  0.3518
17312TIP3   OH273426   4.236   1.838   4.460  0.2817 -0.1045 -0.0707
17312TIP3    H173427   4.194   1.892   4.394 -0.2438  0.6451  0.8464
17312TIP3    H273428   4.176   1.763   4.471  1.3892 -1.3304 -1.8931
17313TIP3   OH273429   6.473   1.510   5.232  0.6631 -0.3584 -0.1179
17313TIP3    H173430   6.378   1.519   5.244  0.5194 -0.9010 -0.7680
17313TIP3    H273431   6.485   1.420   5.202  1.2001  0.2341 -1.8008
17314TIP3   OH273432   1.766   5.411  15.559 -0.5371 -0.0576  0.3729
17314TIP3    H173433   1.690   5.467  15.573  0.2494  1.2034 -0.1582
17314TIP3    H273434   1.735   5.342  15.501 -1.2278  0.5590 -0.0035
17315TIP3   OH273435   1.449   0.674   0.662  0.4662 -0.0238  0.0949
17315TIP3    H173436   1.446   0.579   0.667 -0.2730 -0.0726 -1.0511
17315TIP3    H273437   1.465   0.693   0.570  1.8726  0.9562  0.5043
17316TIP3   OH273438   2.527   1.384  12.981 -0.2682 -0.2459 -0.1534
17316TIP3    H173439   2.520   1.477  12.961  0.8201 -0.3409 -1.0932
17316TIP3    H273440   2.451   1.365  13.036 -0.5789  1.1586 -0.0660
17317TIP3   OH273441   5.526   1.685  15.518 -0.1086  0.0177  0.8489
17317TIP3    H173442   5.620   1.669  15.505 -0.1246 -0.4738  1.3274
17317TIP3    H273443   5.522   1.738  15.598 -0.2429  0.0025  0.8512
17318TIP3   OH273444   3.763   3.676  14.564 -0.0168  0.1545 -0.1877
17318TIP3    H173445   3.818   3.603  14.592 -0.9097 -0.9584 -1.2485
17318TIP3    H273446   3.824   3.737  14.523  0.7810  0.1417  0.9290
17319TIP3   OH273447   3.264   3.975  11.271  0.3315  0.0429 -0.6182
17319TIP3    H173448   3.344   4.028  11.264 -0.3242  0.9823 -1.2946
17319TIP3    H273449   3.290   3.888  11.243  1.3926  0.0298  0.3212
17320TIP3   OH273450   1.403   0.367  11.054  0.4208 -0.2715 -0.1540
17320TIP3    H173451   1.411   0.317  10.972  1.5655 -0.7597  0.2467
17320TIP3    H273452   1.431   0.455  11.031  1.1554 -0.5116 -0.1922
17321TIP3   OH273453   4.225   1.431   1.808 -0.2587  0.1716  0.2464
17321TIP3    H173454   4.166   1.377   1.860 -3.0072  0.5345 -2.2445
17321TIP3    H273455   4.190   1.520   1.818  0.8793  0.6638 -0.0200
17322TIP3   OH273456   3.735   1.873   1.554  0.4036 -0.0662  0.1963
17322TIP3    H173457   3.671   1.920   1.608  0.0332  1.9241 -1.8164
17322TIP3    H273458   3.794   1.942   1.522  1.8296 -1.4691 -0.3006
17323TIP3   OH273459   1.018   3.210   1.060  0.3155 -0.4190 -0.4435
17323TIP3    H173460   0.999   3.238   0.970  1.2987  0.5466 -0.3631
17323TIP3    H273461   0.963   3.132   1.072  0.4247 -0.7864 -2.0029
17324TIP3   OH273462   6.010   6.387  15.708  0.0335  0.2521  0.0058
17324TIP3    H173463   5.976   6.323  15.646  1.4301 -0.6108  0.0884
17324TIP3    H273464   6.089   6.347  15.744  0.0520  1.3407  1.2810
17325TIP3   OH273465   6.005   1.081  11.769  0.4168  0.9663 -0.2392
17325TIP3    H173466   6.017   1.027  11.847 -1.8005 -0.7487 -0.9713
17325TIP3    H273467   6.092   1.084  11.728  0.7967 -1.4715  0.2373
17326TIP3   OH273468   0.070   5.260  15.988 -0.2114  0.1583 -0.5262
17326TIP3    H173469   0.031   5.281  16.072  1.7214 -0.7816  0.6767
17326TIP3    H273470   0.075   5.164  15.987  1.4663  0.2197 -0.8782
17327TIP3   OH273471   4.743   3.995  13.439 -0.5787 -0.2734  0.2575
17327TIP3    H173472   4.654   3.959  13.439 -0.5206 -0.5814  2.6670
17327TIP3    H273473   4.731   4.086  13.414 -1.6693 -0.1927  0.9672
17328TIP3   OH273474   3.880   0.782  12.843  0.3030  0.0988  0.0016
17328TIP3    H173475   3.797   0.742  12.867  0.2337  0.4606  0.3809
17328TIP3    H273476   3.921   0.719  12.784 -0.7471  0.4370 -1.1324
17329TIP3   OH273477   4.235   2.876  11.229 -0.1346 -0.3212  0.0117
17329TIP3    H173478   4.248   2.895  11.322 -1.0976  0.7561 -0.0558
17329TIP3    H273479   4.294   2.803  11.211  2.1777  1.2297  0.8208
17330TIP3   OH273480   0.468   1.595   5.725 -0.7864  0.3913  0.4785
17330TIP3    H173481   0.524   1.569   5.652 -0.8906 -0.8889  0.8351
17330TIP3    H273482   0.452   1.689   5.711  0.0014  0.3798 -0.5844
17331TIP3   OH273483   1.134   1.101   1.449 -0.2264 -0.3467 -0.0421
17331TIP3    H173484   1.217   1.111   1.495 -0.4282 -0.8877  0.4407
17331TIP3    H273485   1.093   1.025   1.488  0.1988 -1.6870 -2.0321
17332TIP3   OH273486   5.183   2.958   1.916  0.3288  0.0975  0.1358
17332TIP3    H173487   5.278   2.966   1.915  0.2892  0.5227 -0.6863
17332TIP3    H273488   5.153   3.035   1.964  0.5136 -1.7416  3.5616
17333TIP3   OH273489   0.006   6.782  11.738 -0.6325  0.5260  0.2631
17333TIP3    H173490  -0.046   6.845  11.788 -0.6035 -0.2824  1.3374
17333TIP3    H273491  -0.021   6.697  11.770  1.6547  0.0880  1.1854
17334TIP3   OH273492   1.401   2.795  16.404 -0.2320 -0.4244 -0.3817
17334TIP3    H173493   1.383   2.792  16.498  0.8316 -0.4831 -0.1663
17334TIP3    H273494   1.315   2.808  16.364 -0.5110  1.7402  0.7186
17335TIP3   OH273495   2.308   3.835  14.701  0.0572 -0.3769 -0.2361
17335TIP3    H173496   2.316   3.773  14.629  0.9473 -1.0163  0.4033
17335TIP3    H273497   2.218   3.868  14.694  0.0827 -0.5341 -1.5375
17336TIP3   OH273498   4.678   5.615  14.967 -0.4339  0.3162 -0.6940
17336TIP3    H173499   4.616   5.566  14.914  0.5068 -0.1391 -1.4084
17336TIP3    H273500   4.628   5.689  15.000 -1.5787 -0.5010 -0.5368
17337TIP3   OH273501   4.148   1.579  16.444  0.5973  0.4636  0.4002
17337TIP3    H173502   4.108   1.664  16.427 -2.0371 -0.7709 -0.1141
17337TIP3    H273503   4.227   1.579  16.391 -0.5927  1.7323 -1.5175
17338TIP3   OH273504   4.110   6.232  11.470  0.3508 -0.3382  0.0369
17338TIP3    H173505   4.064   6.202  11.548 -1.3104 -1.0005 -1.1458
17338TIP3    H273506   4.122   6.152  11.418 -1.3362  0.5235 -1.7654
17339TIP3   OH273507   3.646   1.017  15.924  0.1351 -0.4421  0.1065
17339TIP3    H173508   3.618   0.935  15.966 -0.8743 -0.2134 -0.0954
17339TIP3    H273509   3.584   1.082  15.955  1.6096  0.5152  1.1725
17340TIP3   OH273510   2.445   2.950  13.783 -0.2972 -0.0983  0.2709
17340TIP3    H173511   2.452   3.004  13.862  0.0873 -0.4165  0.4570
17340TIP3    H273512   2.352   2.932  13.775 -0.4360  0.6168  0.1924
17341TIP3   OH273513   0.483   1.430  13.300  0.1302  0.0839  0.5201
17341TIP3    H173514   0.475   1.446  13.206  0.9408 -2.1619  0.0149
17341TIP3    H273515   0.552   1.364  13.308  0.9849  1.1611  2.8150
17342TIP3   OH273516   5.641   1.747   0.283 -0.0447 -0.1067  0.8495
17342TIP3    H173517   5.670   1.826   0.238 -1.8490  0.3188  0.3353
17342TIP3    H273518   5.720   1.693   0.291  1.3544  1.9691  1.7666
17343TIP3   OH273519   5.023   3.516  10.774  0.2938  0.0645 -0.2722
17343TIP3    H173520   5.033   3.536  10.867 -0.6701  0.1651 -0.1753
17343TIP3    H273521   5.092   3.454  10.755  0.0443 -0.5326  0.6977
17344TIP3   OH273522   3.162   2.817  11.235 -1.3628 -0.0776  0.2396
17344TIP3    H173523   3.121   2.752  11.178 -1.7324 -0.8484  1.3377
17344TIP3    H273524   3.090   2.853  11.287 -1.0447  0.6411  0.1876
17345TIP3   OH273525   1.360   5.121   3.301  0.1362 -0.0420  0.1475
17345TIP3    H173526   1.399   5.165   3.377  0.1600 -0.8241  0.5988
17345TIP3    H273527   1.434   5.074   3.261  0.2407  0.7959 -0.6876
17346TIP3   OH273528   2.971   3.152  15.590  0.8871  0.2936 -0.3494
17346TIP3    H173529   3.008   3.240  15.590  0.0774  0.6574 -1.3103
17346TIP3    H273530   2.922   3.147  15.508  0.0843 -0.7023  0.1701
17347TIP3   OH273531   6.235   6.246  13.308  0.0511  0.8577 -0.0452
17347TIP3    H173532   6.208   6.271  13.396  0.4811 -0.4622  0.4838
17347TIP3    H273533   6.194   6.161  13.292  1.9697 -0.1309 -0.1002
17348TIP3   OH273534   5.611   3.533  11.099  0.1680 -1.0104  0.2196
17348TIP3    H173535   5.534   3.585  11.076  0.9149  1.1620  2.2602
17348TIP3    H273536   5.579   3.443  11.102 -2.2459 -0.2000  0.7306
17349TIP3   OH273537   5.964   3.501   4.599  0.5552  0.4131 -0.0854
17349TIP3    H173538   5.956   3.413   4.561 -0.3687  0.6339 -0.4394
17349TIP3    H273539   5.885   3.511   4.652  1.1755  0.6288  0.8257
17350TIP3   OH273540   5.737   2.200   4.656  0.0298 -0.6305 -0.4437
17350TIP3    H173541   5.666   2.189   4.592 -0.5189 -0.1272  0.0610
17350TIP3    H273542   5.705   2.269   4.715  0.2183 -1.5428  0.7758
17351TIP3   OH273543   4.118   5.671   6.392  0.5219 -0.4811  0.0600
17351TIP3    H173544   4.044   5.664   6.333 -1.1264 -0.6432  2.0403
17351TIP3    H273545   4.190   5.628   6.346 -0.1268  1.0817 -2.5983
17352TIP3   OH273546   0.820   2.213   3.540  0.2530 -0.3240 -0.6129
17352TIP3    H173547   0.786   2.263   3.613  0.9264 -0.9784  0.1752
17352TIP3    H273548   0.915   2.225   3.545  0.2401  1.0040 -2.4110
17353TIP3   OH273549   3.735   4.003  11.357  0.0304 -0.3724  0.4087
17353TIP3    H173550   3.742   4.089  11.398  0.1896  1.5217 -3.1592
17353TIP3    H273551   3.819   3.960  11.376  0.7912  1.1244  0.5600
17354TIP3   OH273552   2.819   6.632  11.373  0.0451  0.0830  0.4867
17354TIP3    H173553   2.795   6.618  11.281 -0.3425  0.6956  0.4944
17354TIP3    H273554   2.906   6.592  11.381  0.5515  0.9697 -0.4118
17355TIP3   OH273555   0.157   4.016   5.082  0.1451  0.1617  0.0362
17355TIP3    H173556   0.242   4.058   5.068 -0.0914  2.3091  3.7281
17355TIP3    H273557   0.111   4.028   4.999  2.3723  1.6796 -1.0953
17356TIP3   OH273558   3.328   2.320  12.292  0.6084 -0.2744  0.8003
17356TIP3    H173559   3.345   2.234  12.332 -0.5417 -0.9032 -0.0067
17356TIP3    H273560   3.279   2.300  12.212  2.1050  0.9915 -0.5094
17357TIP3   OH273561   0.575   6.758  11.712 -0.0234 -0.1098 -0.1554
17357TIP3    H173562   0.523   6.708  11.775  0.4750 -1.0507 -0.4706
17357TIP3    H273563   0.625   6.820  11.766  0.4318 -0.9354  0.3954
17358TIP3   OH273564   2.032   0.220   4.991 -0.1314 -0.4427  0.1172
17358TIP3    H173565   1.997   0.307   4.972 -0.3353 -0.7694 -1.0778
17358TIP3    H273566   2.087   0.233   5.068 -1.1466  0.4969  0.7065
17359TIP3   OH273567   5.445   6.128   0.265 -0.1180 -0.0396  0.5202
17359TIP3    H173568   5.454   6.166   0.178 -0.8848  0.9889  0.8686
17359TIP3    H273569   5.527   6.081   0.280  1.5186  2.6781  0.6399
17360TIP3   OH273570   2.089   2.967   1.205  0.5336 -0.0535  0.0355
17360TIP3    H173571   2.082   2.931   1.117  1.0295 -0.2724  0.0823
17360TIP3    H273572   2.132   2.898   1.256  2.3650  0.9473 -0.0786
17361TIP3   OH273573   0.185   3.097  16.196  0.0088 -0.3391 -0.4323
17361TIP3    H173574   0.214   3.031  16.133 -1.2300  0.3093 -1.7397
17361TIP3    H273575   0.160   3.172  16.142 -0.4054  0.5084  0.8959
17362TIP3   OH273576   6.816   0.851   1.690  0.4555 -0.1202 -0.2544
17362TIP3    H173577   6.828   0.894   1.775 -1.6295 -4.0477  2.3568
17362TIP3    H273578   6.905   0.830   1.661  1.2148  1.1355  1.0323
17363TIP3   OH273579   4.379   3.477  16.018 -0.0681 -0.0162 -0.0862
17363TIP3    H173580   4.295   3.523  16.012  0.2853  0.5351 -1.0305
17363TIP3    H273581   4.443   3.547  16.036  0.1284 -0.5016  1.2061
17364TIP3   OH273582   1.870   4.379  13.080 -0.5056 -0.3747 -0.2662
17364TIP3    H173583   1.949   4.433  13.085 -0.1825 -0.8754  0.2364
17364TIP3    H273584   1.890   4.314  13.012 -1.8611  1.6303 -2.7042
17365TIP3   OH273585   3.381   6.016   4.318  0.1836 -0.2693 -0.2215
17365TIP3    H173586   3.338   6.102   4.325  0.4252 -0.1613 -0.0356
17365TIP3    H273587   3.445   6.027   4.247  0.2460 -0.2808 -0.1672
17366TIP3   OH273588   3.172   1.045   3.602 -0.3590 -0.1146  0.0344
17366TIP3    H173589   3.199   0.955   3.585 -1.5540 -0.3303 -0.9553
17366TIP3    H273590   3.174   1.087   3.515 -0.9706  0.4563  0.2851
17367TIP3   OH273591   0.044   5.090  12.058  0.2463  0.3819 -0.1784
17367TIP3    H173592  -0.020   5.101  11.988 -1.4233 -2.2933  0.7967
17367TIP3    H273593   0.053   4.996  12.069 -0.3197  0.6094  3.7923
17368TIP3   OH273594   0.412   6.506   4.407 -0.8743  0.1489  0.0542
17368TIP3    H173595   0.339   6.553   4.366 -0.2651  0.9357 -0.1529
17368TIP3    H273596   0.438   6.562   4.480 -0.9024 -0.4497  0.5220
17369TIP3   OH273597   4.856   3.567  14.977 -0.2129 -0.1193 -0.1853
17369TIP3    H173598   4.763   3.588  14.985  0.2403  1.6269  0.9706
17369TIP3    H273599   4.857   3.479  14.940 -2.3150 -0.0423 -0.5574
17370TIP3   OH273600   3.431   4.930   5.705 -0.0445 -0.2680 -0.2316
17370TIP3    H173601   3.479   4.955   5.784 -0.7065  0.5209 -0.0637
17370TIP3    H273602   3.340   4.924   5.734 -1.0200  3.9576 -1.6371
17371TIP3   OH273603   1.591   0.115  11.232 -0.2555 -0.2631  0.0602
17371TIP3    H173604   1.651   0.040  11.232 -0.7528 -0.6757  0.6482
17371TIP3    H273605   1.648   0.191  11.240  0.1768 -0.6846  1.3853
17372TIP3   OH273606   1.326   2.938  11.940 -0.3794  0.2255 -0.3631
17372TIP3    H173607   1.369   2.859  11.974  0.1861  0.5460 -0.3314
17372TIP3    H273608   1.245   2.905  11.901 -0.9697 -0.1834  1.1222
17373TIP3   OH273609   3.282   4.619   3.538  0.1486 -0.5633 -0.1013
17373TIP3    H173610   3.328   4.538   3.560 -0.1888 -0.7475 -0.0708
17373TIP3    H273611   3.246   4.604   3.450  1.0414 -0.0278 -0.5806
17374TIP3   OH273612   0.518   6.137  11.768 -0.2531 -0.2249 -0.2426
17374TIP3    H173613   0.594   6.137  11.711  0.0853 -1.9801  0.1615
17374TIP3    H273614   0.467   6.061  11.742  0.2417 -1.4766  2.1449
17375TIP3   OH273615   1.757   2.324  15.644 -0.6166 -0.1539  0.3797
17375TIP3    H173616   1.689   2.390  15.652 -0.4866  0.1450 -0.8365
17375TIP3    H273617   1.823   2.349  15.709 -0.9265  0.4530  0.4619
17376TIP3   OH273618   2.743   0.781  16.412  0.0331 -1.3543 -0.1486
17376TIP3    H173619   2.760   0.772  16.318  1.7742 -2.1332  0.2100
17376TIP3    H273620   2.676   0.715  16.430 -3.4351  1.4482 -1.4978
17377TIP3   OH273621   3.376   4.135  11.874  0.1442  0.0933 -0.0208
17377TIP3    H173622   3.353   4.111  11.784 -0.3653 -0.2199  0.1883
17377TIP3    H273623   3.314   4.086  11.928  0.8917 -0.2493  0.5313
17378TIP3   OH273624   1.047   1.340   5.235 -0.3466 -0.0507  0.5266
17378TIP3    H173625   1.027   1.251   5.205 -1.7264 -0.0316  1.2951
17378TIP3    H273626   1.054   1.331   5.330 -1.3406  0.7874  0.6977
17379TIP3   OH273627   0.572   6.257   5.165 -0.4152 -0.1245 -0.3551
17379TIP3    H173628   0.586   6.206   5.245  0.6375  1.0907  0.2685
17379TIP3    H273629   0.584   6.194   5.094  0.5968 -0.8178  0.3966
17380TIP3   OH273630   4.753   1.612  12.370 -0.0108  0.3745  0.0165
17380TIP3    H173631   4.696   1.630  12.445  1.4529  1.5429  0.9225
17380TIP3    H273632   4.815   1.685  12.369 -0.4738  0.8541 -2.8915
17381TIP3   OH273633   5.343   6.529   5.783 -0.1474 -0.0003  0.8872
17381TIP3    H173634   5.388   6.612   5.765 -0.4254  0.2133  1.1531
17381TIP3    H273635   5.413   6.465   5.790  0.0147  0.0318 -0.2380
17382TIP3   OH273636   4.730   6.715   3.714  0.3247 -0.1728  0.6485
17382TIP3    H173637   4.766   6.671   3.637  0.4164  0.6104  0.2362
17382TIP3    H273638   4.790   6.692   3.785  0.1146 -1.0881  0.5479
17383TIP3   OH273639   2.389   4.934   1.237  0.1635  0.3961  0.2157
17383TIP3    H173640   2.301   4.897   1.243  0.0008  0.9688  2.1193
17383TIP3    H273641   2.446   4.858   1.227 -0.6261  0.1203 -3.0783
17384TIP3   OH273642   5.630   5.738   3.081 -0.5053  0.1692 -0.4325
17384TIP3    H173643   5.679   5.804   3.130 -1.6126  1.8926 -1.5409
17384TIP3    H273644   5.615   5.667   3.145  1.0914  0.7550  0.6591
17385TIP3   OH273645   3.309   5.646   3.769 -0.3986 -0.1367 -0.1535
17385TIP3    H173646   3.307   5.699   3.689 -0.2729 -0.3011 -0.2658
17385TIP3    H273647   3.380   5.684   3.821  0.6074 -1.0408 -0.8233
17386TIP3   OH273648   4.438   2.320   3.313 -0.2554  0.3008 -0.5181
17386TIP3    H173649   4.448   2.384   3.382  0.2076  1.0206 -1.2348
17386TIP3    H273650   4.351   2.336   3.277  0.2693  1.3044 -1.4246
17387TIP3   OH273651   3.300   6.148  16.498 -0.0692  0.0135 -0.6957
17387TIP3    H173652   3.255   6.232  16.495 -0.7617 -0.3706 -1.7838
17387TIP3    H273653   3.246   6.093  16.554 -0.8380 -0.3624 -1.7759
17388TIP3   OH273654   5.103   0.394  13.378 -0.8598  0.4523  0.4437
17388TIP3    H173655   5.043   0.424  13.447 -1.9075  0.7823 -0.5913
17388TIP3    H273656   5.175   0.457  13.382 -1.3964  1.0774  0.5810
17389TIP3   OH273657   5.566   0.570  14.467 -0.2887  0.0135  0.0944
17389TIP3    H173658   5.561   0.628  14.543 -1.0086  0.0305  0.0450
17389TIP3    H273659   5.577   0.629  14.392 -0.6145  0.0627  0.0846
17390TIP3   OH273660   2.258   0.844  15.472  0.3314 -0.0477  0.3694
17390TIP3    H173661   2.290   0.933  15.456 -2.4646  1.1118  0.6443
17390TIP3    H273662   2.216   0.849  15.557 -1.3160 -1.1679 -0.3258
17391TIP3   OH273663   5.358   5.371  13.961  0.1349  0.0433 -0.2028
17391TIP3    H173664   5.376   5.396  14.052 -1.4513 -0.4427  0.2788
17391TIP3    H273665   5.361   5.454  13.913 -0.4819  0.5268  0.5616
17392TIP3   OH273666   0.953   4.751  11.931  0.3783  0.6305  0.0921
17392TIP3    H173667   0.901   4.811  11.985 -1.9991 -0.7419 -0.5185
17392TIP3    H273668   0.919   4.763  11.842 -0.3667 -1.7432 -0.0044
17393TIP3   OH273669   2.555   5.863  14.274 -0.4897 -0.1754  0.2478
17393TIP3    H173670   2.522   5.773  14.282  0.6379 -0.6011  0.3892
17393TIP3    H273671   2.535   5.903  14.359  0.5774 -0.8659  0.8487
17394TIP3   OH273672   4.349   2.306   6.088  0.0632 -0.4033  0.1121
17394TIP3    H173673   4.422   2.310   6.150 -0.9140 -1.2482  1.3707
17394TIP3    H273674   4.271   2.326   6.141 -0.4927  2.3792 -1.5466
17395TIP3   OH273675   0.657   0.189  11.047 -0.4877 -0.0201  0.6406
17395TIP3    H173676   0.610   0.108  11.033 -2.8351  1.3243  0.2245
17395TIP3    H273677   0.721   0.193  10.975  1.1631 -2.4018  1.8552
17396TIP3   OH273678   4.229   5.729   2.775 -0.1035  0.3490  0.0460
17396TIP3    H173679   4.238   5.637   2.801 -1.2960  0.3431  0.5208
17396TIP3    H273680   4.297   5.775   2.822 -0.8667  0.0116  1.5283
17397TIP3   OH273681   1.332   0.204   4.037 -0.2949  0.3409  0.8329
17397TIP3    H173682   1.294   0.250   3.962 -0.2495  2.6352  2.1453
17397TIP3    H273683   1.340   0.270   4.105 -1.4427 -1.8891  3.3393
17398TIP3   OH273684   1.344   5.076  12.741  0.4913 -0.1800  0.0794
17398TIP3    H173685   1.404   5.148  12.723  0.6054  0.4440  2.5563
17398TIP3    H273686   1.399   4.997  12.738  0.5108 -0.1365 -1.9106
17399TIP3   OH273687   0.845   5.885   0.565  0.0538  0.0587  0.0418
17399TIP3    H173688   0.868   5.793   0.547  2.7648  0.6322  0.1800
17399TIP3    H273689   0.872   5.899   0.656 -0.6273  0.9256  0.1171
17400TIP3   OH273690   1.564   2.281  16.706  0.1741 -0.2438  0.2310
17400TIP3    H173691   1.542   2.337  16.631  2.7931  0.6641  0.0605
17400TIP3    H273692   1.487   2.225  16.716 -1.4248  1.5014 -1.3427
17401TIP3   OH273693   6.329   0.471  12.032  0.6255  0.3121  0.3178
17401TIP3    H173694   6.252   0.516  12.066 -0.1982 -1.6256  1.1378
17401TIP3    H273695   6.325   0.485  11.938 -0.9973 -0.1384  0.2982
17402TIP3   OH273696   2.051   3.171   0.922  0.1822  0.4236  0.5006
17402TIP3    H173697   2.105   3.123   0.860 -1.1422 -0.2599 -0.1588
17402TIP3    H273698   1.997   3.228   0.868  0.7353  1.6526  1.1938
17403TIP3   OH273699   3.905   6.388  13.261 -0.0788 -0.0479 -0.6092
17403TIP3    H173700   3.915   6.357  13.351 -1.6250  1.9333  0.3136
17403TIP3    H273701   3.908   6.308  13.207  2.7441 -1.1402  0.9487
17404TIP3   OH273702   4.692   2.468  11.812 -0.6597  0.3900  0.9756
17404TIP3    H173703   4.604   2.503  11.804 -0.2800  1.5527  1.7347
17404TIP3    H273704   4.685   2.401  11.881 -0.3881  2.6464  3.3727
17405TIP3   OH273705   5.897   1.488  14.715 -0.0789 -0.1763 -0.5148
17405TIP3    H173706   5.898   1.513  14.807 -1.0012  0.1229 -0.5761
17405TIP3    H273707   5.826   1.540  14.676  0.1640 -0.4465 -1.3498
17406TIP3   OH273708   3.856   4.151  15.122 -0.0182 -0.2050  0.2011
17406TIP3    H173709   3.827   4.060  15.126 -2.6844  0.5179 -0.5882
17406TIP3    H273710   3.933   4.150  15.064 -0.7657 -1.7927 -0.8111
17407TIP3   OH273711   1.773   0.309   3.711 -0.2054  0.0048  0.0673
17407TIP3    H173712   1.852   0.347   3.749 -0.2657  1.3506 -1.0498
17407TIP3    H273713   1.803   0.235   3.659  0.1419 -0.3343  0.7360
17408TIP3   OH273714   5.226   0.818   5.735 -0.5282  0.2044  0.4254
17408TIP3    H173715   5.225   0.817   5.831  2.0513 -0.1910  0.5270
17408TIP3    H273716   5.275   0.897   5.712 -2.2460  1.0038 -0.6437
17409TIP3   OH273717   2.864   2.542  16.136  0.1390 -0.0768 -0.1996
17409TIP3    H173718   2.868   2.446  16.141 -1.3341 -0.1732 -0.4438
17409TIP3    H273719   2.882   2.562  16.045 -1.9526 -0.3246 -0.7240
17410TIP3   OH273720   0.642   6.744   2.692  0.2469  1.1196  0.4767
17410TIP3    H173721   0.690   6.663   2.709 -0.1160  0.6575 -0.6514
17410TIP3    H273722   0.564   6.717   2.644  0.1407  2.1302  0.0518
17411TIP3   OH273723   4.702   2.798   3.982  0.1722 -0.4071  0.1316
17411TIP3    H173724   4.671   2.764   3.898  0.1819 -1.2306  0.4576
17411TIP3    H273725   4.669   2.736   4.047 -0.4890  0.6304  0.8214
17412TIP3   OH273726   5.428   5.095  14.853  1.5195  0.8134  0.3730
17412TIP3    H173727   5.374   5.130  14.782  1.6301 -1.4898 -0.9471
17412TIP3    H273728   5.372   5.100  14.931  0.9299  2.1835 -0.1022
17413TIP3   OH273729   5.644   0.499   3.917  0.2834  0.7873 -0.0170
17413TIP3    H173730   5.687   0.583   3.902 -0.1751  1.3761  1.7239
17413TIP3    H273731   5.711   0.444   3.959  0.6946  0.1231 -1.4736
17414TIP3   OH273732   2.723   0.691  15.124  0.4691  0.1382  0.0231
17414TIP3    H173733   2.697   0.606  15.089 -0.4567  1.6594 -3.3531
17414TIP3    H273734   2.650   0.717  15.181 -0.7996 -0.0214 -1.4469
17415TIP3   OH273735   6.012   4.859  13.136 -0.3176  0.6337 -0.2003
17415TIP3    H173736   6.100   4.863  13.100  0.5001  0.0666  1.6846
17415TIP3    H273737   6.014   4.788  13.200 -0.9911  3.0804  2.7601
17416TIP3   OH273738   1.646   5.609  12.059 -0.3720  0.4810  0.2590
17416TIP3    H173739   1.719   5.553  12.033 -0.1685  0.4114  0.9740
17416TIP3    H273740   1.570   5.570  12.015  0.1407  1.1074 -1.2566
17417TIP3   OH273741   4.784   5.443   0.763 -0.8124  0.2376 -0.4641
17417TIP3    H173742   4.734   5.362   0.769 -0.6411  0.1880  0.3044
17417TIP3    H273743   4.725   5.510   0.798 -0.3648  0.1905  0.3837
17418TIP3   OH273744   1.823   4.388   0.950 -0.0071 -0.1235 -0.6404
17418TIP3    H173745   1.811   4.317   1.012 -1.1386 -2.6770 -3.5307
17418TIP3    H273746   1.772   4.461   0.986  1.1790 -0.6413  2.4188
17419TIP3   OH273747   1.370   6.600   3.933 -0.1486  0.0039  0.4223
17419TIP3    H173748   1.404   6.689   3.930  2.9596 -1.0316  0.9106
17419TIP3    H273749   1.365   6.580   4.027 -2.0503  0.0065  0.3674
17420TIP3   OH273750   6.800   5.260  14.825 -0.0406 -0.5198  0.1589
17420TIP3    H173751   6.795   5.351  14.853 -0.6615 -0.2752 -0.7021
17420TIP3    H273752   6.876   5.225  14.872  1.2251  0.8898 -0.7225
17421TIP3   OH273753   6.048   5.850   5.048  0.4060  0.0418  0.0538
17421TIP3    H173754   6.095   5.928   5.018  1.3316 -0.2057  0.8040
17421TIP3    H273755   6.086   5.778   4.999 -0.7953  0.0909 -1.0078
17422TIP3   OH273756   2.044   4.414   3.149  0.4187  0.0954 -0.1777
17422TIP3    H173757   2.032   4.509   3.143  0.9436  0.2984  1.4950
17422TIP3    H273758   2.138   4.401   3.137  0.4826 -0.1156  0.5222
17423TIP3   OH273759   5.217   1.955  16.734  0.1677 -0.2504  0.3921
17423TIP3    H173760   5.136   1.910  16.713 -1.2486  1.5574  1.6545
17423TIP3    H273761   5.216   2.033  16.679 -0.1331  0.9476  2.0101
17424TIP3   OH273762   6.654   4.405   5.040  0.2595 -0.4802 -0.6158
17424TIP3    H173763   6.710   4.391   4.964  0.8937 -0.1958 -0.2035
17424TIP3    H273764   6.660   4.323   5.089  3.7092  0.8818  1.6222
17425TIP3   OH273765   3.588   3.111  11.835  0.5916 -0.1274  0.1177
17425TIP3    H173766   3.658   3.082  11.894  1.2702  1.2745  0.0236
17425TIP3    H273767   3.511   3.061  11.864  1.5141 -1.3949  0.4883
17426TIP3   OH273768   1.512   2.740   3.455 -0.2576  0.5592 -0.0471
17426TIP3    H173769   1.496   2.830   3.483 -0.7873  0.0927  1.2309
17426TIP3    H273770   1.564   2.702   3.525  0.9434  0.1774 -1.1197
17427TIP3   OH273771   0.179   0.012  14.598  0.3878  0.4969 -0.0654
17427TIP3    H173772   0.264  -0.000  14.640  0.1386 -0.6880  0.1127
17427TIP3    H273773   0.190  -0.025  14.511 -0.1476 -0.3340  0.2092
17428TIP3   OH273774   0.850   2.944   0.124  0.0823 -0.1723  0.5725
17428TIP3    H173775   0.836   2.859   0.165 -1.5296  0.9961  2.6251
17428TIP3    H273776   0.937   2.970   0.153 -0.7339  0.3030  2.8141
17429TIP3   OH273777   0.789   0.199  11.297  0.1356  0.4411 -0.0454
17429TIP3    H173778   0.807   0.221  11.205 -1.4838 -0.9411 -0.7628
17429TIP3    H273779   0.818   0.108  11.305 -0.7465  0.2004  0.4994
17430TIP3   OH273780   4.905   5.799  12.246  0.0985 -0.7598  0.2606
17430TIP3    H173781   4.915   5.847  12.164 -0.6756 -1.0893 -0.0274
17430TIP3    H273782   4.818   5.822  12.278  1.0793  0.8394  1.9614
17431TIP3   OH273783   1.826   0.336   2.157  0.2950 -0.1112  0.0098
17431TIP3    H173784   1.733   0.343   2.177  0.4727 -0.1957  0.9056
17431TIP3    H273785   1.832   0.260   2.099 -0.3330  0.6449 -1.0718
17432TIP3   OH273786   4.982   2.851  14.430  0.6482  0.8130  0.0594
17432TIP3    H173787   4.958   2.857  14.338 -1.1776 -0.4466  0.3999
17432TIP3    H273788   5.025   2.766  14.439  2.0039  1.4845  0.1602
17433TIP3   OH273789   2.513   1.009   3.286  0.0059  0.0798  0.0623
17433TIP3    H173790   2.566   0.943   3.241 -0.6595 -1.0487  0.9177
17433TIP3    H273791   2.564   1.031   3.364 -0.0606  0.1361  0.0902
17434TIP3   OH273792   4.369   1.303  14.047  0.4861  0.2527  0.3452
17434TIP3    H173793   4.314   1.348  13.983  0.5504 -0.4138 -0.1882
17434TIP3    H273794   4.322   1.222  14.066  1.9473 -1.0287 -1.2202
17435TIP3   OH273795   4.106   2.294  11.809 -0.1066 -0.2573  0.1268
17435TIP3    H173796   4.075   2.385  11.803  1.8036  0.5960  1.8370
17435TIP3    H273797   4.027   2.241  11.801 -1.7546  1.6992  2.1719
17436TIP3   OH273798   5.595   1.142   5.297 -0.2901  0.5995 -0.1161
17436TIP3    H173799   5.590   1.214   5.360  0.2826  1.1106 -0.6389
17436TIP3    H273800   5.686   1.114   5.300 -0.8250 -1.1979  1.2404
17437TIP3   OH273801   5.794   1.566   4.850 -0.3229  0.4478 -0.1098
17437TIP3    H173802   5.787   1.599   4.760  1.6668 -0.8033 -0.7689
17437TIP3    H273803   5.810   1.644   4.903  0.0993  1.0241 -1.0590
17438TIP3   OH273804   3.354   1.544   0.345 -0.6965 -0.0415  0.1173
17438TIP3    H173805   3.392   1.527   0.431  0.1239  0.9344 -0.0307
17438TIP3    H273806   3.294   1.471   0.330  0.6026 -1.2614  0.6601
17439TIP3   OH273807   5.964   2.415  12.475 -0.5113  0.0599  0.0341
17439TIP3    H173808   5.897   2.470  12.434 -1.6523  0.2153  1.9748
17439TIP3    H273809   5.917   2.337  12.504  0.7848 -1.2764 -1.2674
17440TIP3   OH273810   2.113   4.546  13.187  0.3826  0.5761 -0.0603
17440TIP3    H173811   2.204   4.553  13.158  0.7914  2.4340  1.4713
17440TIP3    H273812   2.119   4.520  13.279 -0.6038  1.3872  0.2483
17441TIP3   OH273813   3.897   5.695   4.229 -0.0891 -0.1402  0.1684
17441TIP3    H173814   3.914   5.614   4.276  0.1182  0.6307  1.4918
17441TIP3    H273815   3.976   5.709   4.176  0.8675  0.2982  1.6326
17442TIP3   OH273816   5.680   0.979  14.641 -0.3280  1.4877 -0.3457
17442TIP3    H173817   5.769   0.969  14.675 -0.6067 -0.8246 -0.1127
17442TIP3    H273818   5.628   1.005  14.716 -0.0308  1.7328 -0.2252
17443TIP3   OH273819   5.366   4.894  11.123 -0.2829 -0.0916 -0.4756
17443TIP3    H173820   5.401   4.810  11.093 -1.8672 -0.7373 -0.6350
17443TIP3    H273821   5.276   4.896  11.088 -0.4891  1.3696  0.0854
17444TIP3   OH273822   1.200   1.577   2.085 -0.5035  0.1849  0.2472
17444TIP3    H173823   1.263   1.518   2.043 -0.0431  1.7902 -1.4715
17444TIP3    H273824   1.115   1.549   2.052 -0.2003  1.0226 -1.3440
17445TIP3   OH273825   3.388   6.213   4.656  0.0865 -0.0977 -0.5656
17445TIP3    H173826   3.479   6.211   4.625  0.6078  0.9437  0.8071
17445TIP3    H273827   3.338   6.239   4.579  1.3680  2.5889 -0.6332
17446TIP3   OH273828   1.240   5.743  15.752 -0.7184 -0.0983  0.1290
17446TIP3    H173829   1.324   5.787  15.735 -1.2968  1.0172  0.1238
17446TIP3    H273830   1.216   5.769  15.840 -0.9332 -0.6412  0.2361
17447TIP3   OH273831   0.440   5.106  16.607 -0.0749  0.6736  0.9249
17447TIP3    H173832   0.528   5.068  16.617 -0.1631  0.3598  0.4995
17447TIP3    H273833   0.384   5.051  16.661 -0.2164  0.1398  0.2469
17448TIP3   OH273834   2.889   1.086   1.473 -0.2123 -0.2919  0.0818
17448TIP3    H173835   2.805   1.047   1.449  0.2000 -0.7461 -0.6761
17448TIP3    H273836   2.903   1.155   1.408  0.5440 -1.0028 -0.5322
17449TIP3   OH273837   3.296   1.541  13.505  0.2177 -0.5094  0.4690
17449TIP3    H173838   3.339   1.530  13.420 -0.1323 -0.9095  0.3432
17449TIP3    H273839   3.234   1.612  13.490  0.3551 -0.3886  0.4673
17450TIP3   OH273840   0.087   0.646  12.276  0.2213 -0.4714 -0.1604
17450TIP3    H173841   0.139   0.705  12.331 -0.5231 -0.5287  0.6339
17450TIP3    H273842  -0.004   0.673  12.293  0.0111  0.3345 -2.3237
17451TIP3   OH273843   1.277   5.450   1.784 -0.1277  0.1815  0.0235
17451TIP3    H173844   1.336   5.387   1.744  0.1651  0.5246 -0.0869
17451TIP3    H273845   1.307   5.458   1.874 -1.5388 -1.5252  0.7055
17452TIP3   OH273846   2.149   3.664  15.085 -0.0960  0.0537  0.3526
17452TIP3    H173847   2.057   3.689  15.076 -0.1412  0.6971  2.1840
17452TIP3    H273848   2.167   3.672  15.178  1.5236 -1.1778  0.1896
17453TIP3   OH273849   2.054   0.520  12.336 -0.0108  0.2094 -0.5420
17453TIP3    H173850   2.138   0.475  12.345 -1.2093 -1.9702  0.7735
17453TIP3    H273851   2.037   0.523  12.242  1.5534  0.7590 -0.8228
17454TIP3   OH273852   3.754   6.206   5.694  0.5356 -0.3510 -0.4061
17454TIP3    H173853   3.772   6.295   5.661 -0.7871 -0.5749 -1.8369
17454TIP3    H273854   3.664   6.211   5.728  0.4286 -1.1674 -0.5639
17455TIP3   OH273855   4.228   3.936  15.592 -0.5537 -0.1935  0.1540
17455TIP3    H173856   4.278   3.882  15.531 -1.2056 -2.6859  1.6884
17455TIP3    H273857   4.294   3.976  15.649 -0.1488 -1.5028  0.6286
17456TIP3   OH273858   6.577   4.109  14.261  0.1207 -0.0507 -0.3326
17456TIP3    H173859   6.595   4.068  14.177  1.8648  2.4891 -1.3476
17456TIP3    H273860   6.504   4.168  14.244 -1.2191 -1.3822  0.6431
17457TIP3   OH273861   3.381   0.141  12.878 -0.2366 -0.2323 -0.5181
17457TIP3    H173862   3.362   0.060  12.925 -0.2423  0.4910  0.7818
17457TIP3    H273863   3.470   0.164  12.906 -0.1605  0.1087 -1.0293
17458TIP3   OH273864   3.197   6.709  13.258 -0.4089  0.3112 -0.0411
17458TIP3    H173865   3.248   6.771  13.311  0.6248 -1.5750  1.2968
17458TIP3    H273866   3.167   6.761  13.183  0.1075  2.4911  1.1639
17459TIP3   OH273867   6.692   1.908   5.299  0.4180 -0.0714 -0.1582
17459TIP3    H173868   6.649   1.847   5.240  0.0840 -0.5602  0.5779
17459TIP3    H273869   6.684   1.993   5.256 -0.0717 -0.3764 -0.6769
17460TIP3   OH273870   4.061   6.175  16.213  0.0133 -0.3654 -0.2965
17460TIP3    H173871   4.046   6.260  16.171 -0.3009 -0.3967 -0.2502
17460TIP3    H273872   4.150   6.151  16.188  0.3817  0.3350  0.3131
17461TIP3   OH273873   3.906   6.077  14.946 -0.1911  0.0158  0.4486
17461TIP3    H173874   3.920   5.987  14.976 -1.0180 -1.0181 -1.9876
17461TIP3    H273875   3.937   6.077  14.856 -0.4749  2.1194  0.3011
17462TIP3   OH273876   3.868   0.818  14.863 -0.2891  0.2031  0.2734
17462TIP3    H173877   3.933   0.827  14.794 -0.4755  1.3440  0.2335
17462TIP3    H273878   3.908   0.757  14.926  0.8860  1.0165  0.3351
17463TIP3   OH273879   5.803   2.179   1.615  0.1024  0.1598  0.4744
17463TIP3    H173880   5.810   2.275   1.619 -0.4394  0.2026  0.4446
17463TIP3    H273881   5.736   2.157   1.679  0.9542 -0.2975  1.2326
17464TIP3   OH273882   3.499   2.128   1.040  0.2150  0.4388 -0.8898
17464TIP3    H173883   3.573   2.163   1.089 -0.7188  1.6029 -0.2380
17464TIP3    H273884   3.485   2.040   1.075  1.4311  0.1014 -1.2136
17465TIP3   OH273885   1.115   0.065  11.526  0.4119 -0.0918  0.1025
17465TIP3    H173886   1.197   0.032  11.562  0.4349  0.3391  0.4529
17465TIP3    H273887   1.047   0.027  11.582  0.5173  1.6880  1.5066
17466TIP3   OH273888   4.718   0.745  14.712 -0.3669  0.2812  0.5072
17466TIP3    H173889   4.636   0.702  14.738 -0.1696 -0.4761 -0.0914
17466TIP3    H273890   4.697   0.787  14.628  0.5837 -2.3550 -1.1785
17467TIP3   OH273891   5.136   4.124  12.312 -0.1421  0.0262  0.2704
17467TIP3    H173892   5.133   4.029  12.324 -0.9291 -0.2455 -1.7699
17467TIP3    H273893   5.193   4.136  12.236 -0.4709  1.1466  0.1943
17468TIP3   OH273894   2.954   3.392   6.245 -0.2318  0.4228 -0.0718
17468TIP3    H173895   2.998   3.473   6.271 -1.2070  1.7502 -2.2806
17468TIP3    H273896   2.990   3.372   6.159 -0.5291 -1.1281  0.1333
17469TIP3   OH273897   2.996   2.557   2.377  0.5976 -0.7223 -0.0665
17469TIP3    H173898   3.066   2.504   2.416  1.9058  0.1942 -1.0686
17469TIP3    H273899   3.036   2.644   2.366 -1.0156  0.0867  0.2020
17470TIP3   OH273900   6.612   0.402   4.892 -0.1296  0.1175 -1.1343
17470TIP3    H173901   6.581   0.354   4.969 -1.5270  0.6716 -1.3272
17470TIP3    H273902   6.707   0.388   4.892 -0.0079  0.5398  0.9967
17471TIP3   OH273903   1.715   3.088  14.924  0.1925  0.2756 -0.0707
17471TIP3    H173904   1.698   3.008  14.875  0.2927 -0.0619  0.4292
17471TIP3    H273905   1.629   3.114  14.958  0.0796  0.6640 -0.6551
17472TIP3   OH273906   2.535   0.491   0.430 -0.2126  0.2528  0.0614
17472TIP3    H173907   2.458   0.467   0.482 -0.3328  1.6650  0.6073
17472TIP3    H273908   2.512   0.467   0.340 -0.1313 -1.9381  0.5810
17473TIP3   OH273909   2.452   0.647   4.078  0.6912  0.4650  0.4153
17473TIP3    H173910   2.405   0.639   3.995  0.1767 -1.4440  0.8316
17473TIP3    H273911   2.470   0.740   4.087 -1.8286  1.1087 -0.4315
17474TIP3   OH273912   3.598   4.879  16.500 -0.0711  0.1257 -0.2143
17474TIP3    H173913   3.555   4.796  16.519 -0.1303  0.1323 -0.3209
17474TIP3    H273914   3.683   4.854  16.464 -0.1907  0.1108 -0.4859
17475TIP3   OH273915   2.769   3.549   2.277  0.2795 -0.2309  0.0512
17475TIP3    H173916   2.784   3.530   2.370  0.3340 -0.3097  0.0259
17475TIP3    H273917   2.770   3.645   2.272  2.2346 -0.2177 -0.1882
17476TIP3   OH273918   1.112   2.818  15.271 -0.5805  0.2470  0.0772
17476TIP3    H173919   1.197   2.777  15.257 -0.1814  1.5777 -1.8167
17476TIP3    H273920   1.057   2.748  15.305  0.3475 -1.5916 -1.9611
17477TIP3   OH273921   4.815   4.033  10.678 -0.2505  0.4313 -0.1427
17477TIP3    H173922   4.904   4.037  10.644  0.3887 -0.0278  1.4072
17477TIP3    H273923   4.823   3.993  10.764 -2.0618 -0.3770 -0.2930
17478TIP3   OH273924   2.273   4.558   2.615 -0.5964  0.2135  0.0751
17478TIP3    H173925   2.267   4.471   2.654 -0.2919  0.6239  1.0699
17478TIP3    H273926   2.190   4.600   2.638 -1.2088 -0.1770 -1.3476
17479TIP3   OH273927   0.682   1.663  13.363 -0.1329 -0.2647  0.8316
17479TIP3    H173928   0.615   1.614  13.412 -0.8473  0.3317  0.4705
17479TIP3    H273929   0.647   1.752  13.357  0.3573 -0.1163  0.0171
17480TIP3   OH273930   5.830   2.598  15.274  0.2316  0.0251 -0.3590
17480TIP3    H173931   5.828   2.527  15.338 -0.8434 -0.1017 -0.5123
17480TIP3    H273932   5.836   2.553  15.189 -1.3152  0.0581 -0.5093
17481TIP3   OH273933   4.213   5.108   3.435  0.8350  0.3832 -0.1092
17481TIP3    H173934   4.166   5.187   3.463  0.5950 -0.0155  0.6307
17481TIP3    H273935   4.150   5.037   3.444  0.7998  0.2073 -1.5444
17482TIP3   OH273936   1.141   6.455  15.864  0.1350  0.6001  0.7948
17482TIP3    H173937   1.141   6.446  15.959 -1.2193  0.5920  0.8239
17482TIP3    H273938   1.092   6.536  15.847 -1.2948 -0.3503  0.0835
17483TIP3   OH273939   5.971   1.286  15.188 -0.5631  0.5904  0.5419
17483TIP3    H173940   6.011   1.329  15.264  1.6040 -3.6522  2.1323
17483TIP3    H273941   6.021   1.318  15.113 -2.7605  4.8921  0.6212
17484TIP3   OH273942   0.957   4.018  14.377  0.9355  0.6025 -0.1749
17484TIP3    H173943   0.962   4.113  14.371 -0.1577  0.6395 -0.7173
17484TIP3    H273944   0.881   3.994  14.323  0.9911 -0.5452  0.2223
17485TIP3   OH273945   2.080   5.607  14.924 -0.0367 -0.2051  0.2546
17485TIP3    H173946   2.120   5.532  14.880 -1.9083 -1.2388  0.2057
17485TIP3    H273947   2.126   5.613  15.008  0.4642 -1.1306  0.0623
17486TIP3   OH273948   5.731   6.035  13.068  0.1904 -0.0850 -0.2517
17486TIP3    H173949   5.689   6.110  13.025 -4.0004 -1.5734  0.7630
17486TIP3    H273950   5.733   6.058  13.161  0.1708 -0.6649 -0.1018
17487TIP3   OH273951   1.228   3.006  12.881  0.4964  0.4071 -0.2940
17487TIP3    H173952   1.204   3.082  12.933  2.9782  1.7161 -0.9018
17487TIP3    H273953   1.282   2.953  12.939 -1.7766 -1.3518  0.3530
17488TIP3   OH273954   4.381   6.554   0.702  0.1235 -0.4041 -0.3164
17488TIP3    H173955   4.416   6.644   0.699  0.2025 -0.4513 -1.2362
17488TIP3    H273956   4.298   6.560   0.655 -0.6045 -0.5185  0.9274
17489TIP3   OH273957   1.348   5.799   1.901 -0.2901 -0.7845  0.5358
17489TIP3    H173958   1.270   5.830   1.946 -1.2901 -2.0665 -0.2694
17489TIP3    H273959   1.315   5.746   1.829  1.3363 -2.0145  0.6462
17490TIP3   OH273960   2.044   2.312  14.791 -0.3209  0.0117 -0.1896
17490TIP3    H173961   2.079   2.375  14.854 -0.9783 -0.6941  0.9135
17490TIP3    H273962   2.096   2.233  14.805  0.1301  0.1100 -1.1821
17491TIP3   OH273963   0.112   1.580  11.621 -0.0688 -0.4917 -0.5440
17491TIP3    H173964   0.100   1.674  11.630  1.2687 -0.3100 -0.4565
17491TIP3    H273965   0.133   1.550  11.710  0.9847 -0.6286 -0.8299
17492TIP3   OH273966   1.314   3.797   0.834  0.0423  0.0200  0.2153
17492TIP3    H173967   1.325   3.880   0.880 -0.5967  0.0270  0.3717
17492TIP3    H273968   1.219   3.783   0.833  0.2130 -1.4613  1.5302
17493TIP3   OH273969   5.927   6.809   5.765  0.0301  0.2750  0.2244
17493TIP3    H173970   5.945   6.871   5.695  0.9533  0.6444  0.7595
17493TIP3    H273971   5.856   6.754   5.732  1.9173 -1.0446 -1.9373
17494TIP3   OH273972   6.723   3.384   4.730  0.3866 -0.7970 -0.0302
17494TIP3    H173973   6.630   3.385   4.709  0.6200 -0.2428 -1.1593
17494TIP3    H273974   6.759   3.312   4.678  0.7603 -0.2742 -0.5161
17495TIP3   OH273975   2.315   4.098   4.866  0.0578  0.1574  0.5707
17495TIP3    H173976   2.356   4.118   4.949 -1.4981 -0.2040  1.4654
17495TIP3    H273977   2.265   4.018   4.881 -0.0193 -0.0871 -0.7908
17496TIP3   OH273978   4.838   0.637   5.559  0.1556  0.6367  0.2414
17496TIP3    H173979   4.758   0.651   5.509  0.7141 -0.3852 -0.9773
17496TIP3    H273980   4.854   0.543   5.554  0.1909  0.4841  2.4397
17497TIP3   OH273981   3.582   5.440  11.944  0.9500  0.2834  0.3584
17497TIP3    H173982   3.669   5.480  11.943  0.3605  1.6189  0.3975
17497TIP3    H273983   3.559   5.430  11.851 -0.8379  4.5844  0.1121
17498TIP3   OH273984   3.315   0.945  15.806 -0.0269  0.2061 -0.7385
17498TIP3    H173985   3.380   0.878  15.827  1.0054  1.1778 -0.7513
17498TIP3    H273986   3.259   0.904  15.740  0.0422 -0.9395 -0.1140
17499TIP3   OH273987   6.517   1.441   1.553  0.3409 -0.0470  0.3613
17499TIP3    H173988   6.489   1.522   1.510  0.5927 -0.5580 -0.7995
17499TIP3    H273989   6.551   1.470   1.638  0.3835  1.0557 -0.0097
17500TIP3   OH273990   3.080   3.772   5.915 -0.0224 -0.3777  0.2259
17500TIP3    H173991   3.170   3.741   5.923  0.7583  1.4418 -0.9096
17500TIP3    H273992   3.052   3.739   5.829 -0.6614 -1.3712  0.7903
17501TIP3   OH273993   5.892   3.145   6.504 -0.1012  0.5694  0.0469
17501TIP3    H173994   5.844   3.189   6.433  1.6200  0.4527 -1.2440
17501TIP3    H273995   5.892   3.209   6.576 -2.0690  0.6042  0.0824
17502TIP3   OH273996   2.741   5.151  11.747  0.1082 -0.1927 -0.0293
17502TIP3    H173997   2.650   5.140  11.775  0.2781  1.3153  1.2336
17502TIP3    H273998   2.735   5.201  11.666 -0.1822 -0.1928 -0.0107
17503TIP3   OH273999   4.291   5.497  17.217  0.0992  0.1352 -0.3649
17503TIP3    H174000   4.369   5.446  17.238 -1.0939 -1.3315  0.7296
17503TIP3    H274001   4.220   5.451  17.261 -1.7450  0.1585 -3.0687
17504TIP3   OH274002   3.391   1.126  11.925 -0.2575 -0.4537 -0.4457
17504TIP3    H174003   3.339   1.205  11.906 -2.4821 -2.1809 -2.2178
17504TIP3    H274004   3.481   1.152  11.905 -0.8266  1.7815 -0.4575
17505TIP3   OH274005   0.263   1.198   0.963 -0.3363  0.1621  0.1915
17505TIP3    H174006   0.270   1.279   1.014 -0.8662  0.2685  0.0964
17505TIP3    H274007   0.179   1.204   0.919  0.0854  0.0298 -0.6433
17506TIP3   OH274008   6.083   2.656   4.487 -1.1552 -0.0506 -0.2969
17506TIP3    H174009   6.138   2.694   4.419  1.0906  0.5227  1.7104
17506TIP3    H274010   6.139   2.655   4.565 -3.6471 -0.5262  1.5933
17507TIP3   OH274011   0.954   1.083   5.690  0.1691  0.0513 -0.8059
17507TIP3    H174012   1.035   1.038   5.713  0.0763 -0.0134 -0.6036
17507TIP3    H274013   0.913   1.104   5.774 -0.6723 -1.0996 -0.9051
17508TIP3   OH274014   2.219   1.442  15.565 -0.1811  0.4838  0.2110
17508TIP3    H174015   2.154   1.404  15.506  0.2945  0.2785 -0.1866
17508TIP3    H274016   2.174   1.449  15.649 -0.4069 -0.5752  0.1889
17509TIP3   OH274017   4.699   0.487   3.694 -0.2448 -0.0189 -0.1868
17509TIP3    H174018   4.694   0.578   3.666 -1.1459  0.1933  0.5965
17509TIP3    H274019   4.675   0.489   3.787  0.4110 -0.9714  0.0182
17510TIP3   OH274020   1.831   2.179  12.416  0.5834  0.4504 -0.0905
17510TIP3    H174021   1.876   2.098  12.440  0.2538  0.6923  1.3920
17510TIP3    H274022   1.839   2.236  12.492 -1.3306  0.8908 -0.1710
17511TIP3   OH274023   6.774   2.652  12.891  0.4706 -0.2270  0.0223
17511TIP3    H174024   6.816   2.608  12.966 -1.0889  0.7452  1.5359
17511TIP3    H274025   6.700   2.699  12.930 -0.2671  0.4747 -2.1365
17512TIP3   OH274026   6.683   1.033   3.260 -0.4318 -0.3088  0.1951
17512TIP3    H174027   6.703   0.954   3.310 -0.0855 -0.7172 -0.5547
17512TIP3    H274028   6.706   1.105   3.318  1.5158 -0.7654  0.0584
17513TIP3   OH274029   4.272   5.115  13.243  0.3377 -0.0250 -0.8703
17513TIP3    H174030   4.190   5.066  13.238  0.5700 -0.2813 -2.9366
17513TIP3    H274031   4.247   5.206  13.232  0.1656  0.1092  0.4518
17514TIP3   OH274032   4.704   3.743  13.022  0.3029  0.2219  0.5054
17514TIP3    H174033   4.786   3.792  13.014  0.2903  0.0863 -0.6997
17514TIP3    H274034   4.656   3.787  13.092  1.2725  0.4949  1.0098
17515TIP3   OH274035   2.324   1.192   3.564  0.1417  0.3339 -0.3161
17515TIP3    H174036   2.322   1.288   3.559 -1.9916  0.3898  0.6097
17515TIP3    H274037   2.289   1.171   3.651  0.2660 -1.2955 -0.6245
17516TIP3   OH274038   5.555   3.578  12.046 -0.3230  0.1820 -0.0140
17516TIP3    H174039   5.590   3.521  12.115  0.4687  0.9813  0.2625
17516TIP3    H274040   5.531   3.518  11.976 -2.0192 -0.7396  1.2902
17517TIP3   OH274041   0.857   6.722  12.365 -0.1202 -0.1222  0.0794
17517TIP3    H174042   0.942   6.683  12.345  0.1385 -0.5303  1.8398
17517TIP3    H274043   0.872   6.817  12.361  1.1169 -0.1257  2.8474
17518TIP3   OH274044   1.025   1.276  15.437  0.3151  0.0620 -0.3033
17518TIP3    H174045   0.988   1.236  15.516 -0.8511 -1.8067 -1.7023
17518TIP3    H274046   1.101   1.223  15.417  1.2147  1.1595  0.0717
17519TIP3   OH274047   2.486   3.760   3.102 -0.0757 -0.0249  0.2108
17519TIP3    H174048   2.415   3.799   3.154  0.9388 -1.1477  2.6240
17519TIP3    H274049   2.443   3.690   3.053 -0.9556  0.5258  0.1669
17520TIP3   OH274050   5.290   3.742   4.508  0.1383  0.0315  0.3692
17520TIP3    H174051   5.251   3.719   4.424  0.6348  0.4541  0.0142
17520TIP3    H274052   5.298   3.658   4.554  0.7208 -0.3382 -0.3791
17521TIP3   OH274053   2.750   1.935  14.469  0.0365 -0.0303 -0.5197
17521TIP3    H174054   2.831   1.954  14.422  0.0460  0.6641 -0.2298
17521TIP3    H274055   2.757   1.843  14.492  0.4020 -0.1690 -1.1634
17522TIP3   OH274056   2.712   4.249   3.978  0.1934  0.2174 -0.2608
17522TIP3    H174057   2.636   4.283   3.929 -0.1098  0.0960  0.1245
17522TIP3    H274058   2.787   4.291   3.936 -0.0543  0.0396 -0.9015
17523TIP3   OH274059   3.729   3.787  11.707  0.2623 -0.0718  0.0848
17523TIP3    H174060   3.670   3.785  11.782  0.8508  0.0298  0.5596
17523TIP3    H274061   3.674   3.768  11.632 -0.2616 -0.5550  0.5906
17524TIP3   OH274062   0.254   5.227   5.720  0.4701 -0.3457  0.8736
17524TIP3    H174063   0.222   5.251   5.807 -0.1310 -0.6775  0.7494
17524TIP3    H274064   0.180   5.182   5.679  1.6036 -2.6063  1.1743
17525TIP3   OH274065   0.419   3.866  15.375  0.3016 -1.0859  0.2857
17525TIP3    H174066   0.509   3.843  15.396  0.3154 -1.1982  0.1006
17525TIP3    H274067   0.420   3.885  15.281  0.0197 -1.6297  0.1700
17526TIP3   OH274068   1.330   4.731   4.440  0.7364  0.1905 -0.1938
17526TIP3    H174069   1.249   4.681   4.425  2.9286 -3.9250  0.2565
17526TIP3    H274070   1.340   4.733   4.535  2.2262 -1.3725 -0.2873
17527TIP3   OH274071   1.082   2.118  14.148 -0.3468 -0.4172 -0.1326
17527TIP3    H174072   1.068   2.032  14.190 -1.9624  0.1847  0.6626
17527TIP3    H274073   1.102   2.177  14.221 -0.1045  0.0580 -0.5784
17528TIP3   OH274074   2.284   0.871  12.260  0.5220 -0.2715  0.6832
17528TIP3    H174075   2.220   0.830  12.318  0.3809  0.2974  0.9318
17528TIP3    H274076   2.364   0.874  12.311  0.1902  0.9686  1.1547
17529TIP3   OH274077   6.120   1.597  17.139 -0.6589 -0.7862 -0.0125
17529TIP3    H174078   6.034   1.624  17.107 -0.2625 -1.5485 -1.8480
17529TIP3    H274079   6.136   1.653  17.216 -1.3238  1.7729 -1.6199
17530TIP3   OH274080   4.049   4.024  16.595  0.4428  0.1693  0.2300
17530TIP3    H174081   3.956   4.039  16.616  0.6375  2.0406 -0.0725
17530TIP3    H274082   4.094   4.037  16.678  0.4722 -0.4678  0.3175
17531TIP3   OH274083   2.938   6.279  11.275 -0.2087  0.4539 -0.3536
17531TIP3    H174084   2.949   6.372  11.294 -1.1769  0.6693 -0.7965
17531TIP3    H274085   2.905   6.276  11.185 -0.6648 -0.2854 -0.1723
17532TIP3   OH274086   1.979   6.789  13.561  0.3554  0.2413 -0.4813
17532TIP3    H174087   2.018   6.766  13.477  0.3470  0.9010 -0.6692
17532TIP3    H274088   2.029   6.737  13.625  1.2032  0.6730 -0.7715
17533TIP3   OH274089   1.377   2.796   0.290  0.0351  0.6128  0.2482
17533TIP3    H174090   1.333   2.725   0.338  1.4875 -0.0366  0.6642
17533TIP3    H274091   1.392   2.760   0.203  0.8032  0.3669  0.4696
17534TIP3   OH274092   5.653   4.900   3.849  0.6868 -0.0436  0.1812
17534TIP3    H174093   5.700   4.818   3.832 -1.9350 -1.3915 -1.1071
17534TIP3    H274094   5.563   4.873   3.866 -0.1768  2.5728  0.1857
17535TIP3   OH274095   1.792   0.488   2.398 -0.2665  1.0577  0.3348
17535TIP3    H174096   1.746   0.404   2.400  0.7273  0.4322 -1.1931
17535TIP3    H274097   1.745   0.543   2.461 -1.8559 -0.1689  0.2801
17536TIP3   OH274098   3.634   4.792   6.127  0.1155 -0.1812  0.2204
17536TIP3    H174099   3.647   4.769   6.219  0.1235  1.5765  0.7024
17536TIP3    H274100   3.709   4.848   6.106  0.3566 -0.9380 -0.9980
17537TIP3   OH274101   4.220   5.866  16.439  0.5195  0.1160 -0.6084
17537TIP3    H174102   4.284   5.936  16.426  0.2980  0.4148 -0.1157
17537TIP3    H274103   4.135   5.910  16.436  0.3180 -0.3057 -1.4609
17538TIP3   OH274104   3.992   2.980   3.186 -0.2628 -0.0193  0.3004
17538TIP3    H174105   3.909   3.001   3.143 -0.3367 -1.4549 -0.3294
17538TIP3    H274106   4.059   3.013   3.127 -0.3735 -1.3412 -0.5917
17539TIP3   OH274107   2.540   4.838  14.512  0.2084  0.2674  0.6929
17539TIP3    H174108   2.634   4.822  14.507  0.2258  0.5035  0.0704
17539TIP3    H274109   2.511   4.834  14.421 -0.3986  0.1171  0.8912
17540TIP3   OH274110   6.334   1.779   5.388 -0.2122 -0.1303  0.5532
17540TIP3    H174111   6.316   1.871   5.410  1.2624 -0.0248  1.4540
17540TIP3    H274112   6.429   1.777   5.371 -0.5206 -1.1452 -1.2615
17541TIP3   OH274113   3.700   3.192  16.807 -0.4856  0.6747  0.7107
17541TIP3    H174114   3.627   3.254  16.801 -0.3873  0.9590  2.2090
17541TIP3    H274115   3.772   3.238  16.763 -1.0882  0.5141 -0.5098
17542TIP3   OH274116   2.498   5.704  10.850  0.5533 -0.1966  0.0345
17542TIP3    H174117   2.569   5.694  10.787  1.1951 -1.0486  0.8467
17542TIP3    H274118   2.439   5.768  10.811  0.8280 -0.8311 -1.5033
17543TIP3   OH274119   1.528   5.594   0.058  0.5484 -0.5547 -0.1927
17543TIP3    H174120   1.555   5.637   0.140  0.4167  0.6690 -0.7691
17543TIP3    H274121   1.591   5.624  -0.007  0.0672 -0.7334 -0.7545
17544TIP3   OH274122   6.188   4.098  12.926 -0.2269 -0.6846  0.3794
17544TIP3    H174123   6.249   4.169  12.904  0.5688 -1.0213  1.4585
17544TIP3    H274124   6.148   4.125  13.008 -3.0191  0.4468 -1.2101
17545TIP3   OH274125   5.660   3.045  15.480  0.1881 -0.1037  0.5586
17545TIP3    H174126   5.565   3.040  15.488  0.2516 -0.0219  1.3979
17545TIP3    H274127   5.674   3.100  15.403 -0.4473  1.0965  1.2761
17546TIP3   OH274128   2.460   1.764   0.422 -0.0776 -0.1548 -0.0410
17546TIP3    H174129   2.386   1.797   0.372 -1.8069 -1.2362  1.6657
17546TIP3    H274130   2.518   1.840   0.432 -1.0904  0.8056 -1.1752
17547TIP3   OH274131   5.471   6.273   2.887  0.3160  0.4812  0.6185
17547TIP3    H174132   5.496   6.313   2.970  1.3949 -1.5486  1.3718
17547TIP3    H274133   5.554   6.250   2.846 -0.1996  1.5208 -1.1018
17548TIP3   OH274134   4.355   4.459  14.360 -0.4569  0.2349 -0.1902
17548TIP3    H174135   4.338   4.389  14.423 -0.5157 -0.0520 -0.5192
17548TIP3    H274136   4.329   4.421  14.276  0.2014  0.3985 -0.4698
17549TIP3   OH274137   6.348   6.154  10.993 -0.2335 -0.3954 -0.6594
17549TIP3    H174138   6.326   6.081  10.935 -0.0942  1.0348 -2.6133
17549TIP3    H274139   6.438   6.178  10.968 -1.3941  2.5671 -2.5625
17550TIP3   OH274140   0.645   5.051  11.691 -0.4373 -0.3434 -0.8053
17550TIP3    H174141   0.631   5.117  11.623 -0.1947  0.1825 -0.3526
17550TIP3    H274142   0.589   4.978  11.665 -0.7764  0.0727 -1.2673
17551TIP3   OH274143   5.822   1.552  11.955  0.1421 -0.0991  0.6029
17551TIP3    H174144   5.845   1.460  11.964 -1.7180 -0.4876  2.1372
17551TIP3    H274145   5.897   1.599  11.991  1.4606 -0.9222 -0.9192
17552TIP3   OH274146   4.532   2.782   6.301  0.0971  0.1627 -0.0933
17552TIP3    H174147   4.618   2.773   6.341 -0.2630  0.2548  0.7097
17552TIP3    H274148   4.477   2.818   6.370 -0.9116 -1.1556 -0.1721
17553TIP3   OH274149   4.452   0.702   0.782 -0.3152 -0.4014 -0.0979
17553TIP3    H174150   4.488   0.639   0.720  0.3841  0.0106 -0.1093
17553TIP3    H274151   4.424   0.648   0.857  0.9139 -0.6631  0.1864
17554TIP3   OH274152   2.725   5.953  12.614  0.3630  0.4288 -0.3446
17554TIP3    H174153   2.786   6.025  12.633  0.4052  0.1076  0.8537
17554TIP3    H274154   2.761   5.879  12.664  0.6547 -0.6010 -2.0207
17555TIP3   OH274155   0.492   1.658   0.385 -0.5509  0.1501  0.8596
17555TIP3    H174156   0.467   1.599   0.314 -1.2452  1.1946  0.2193
17555TIP3    H274157   0.457   1.743   0.359  0.9104  0.9762  1.5017
17556TIP3   OH274158   0.757   0.095   0.329 -0.4652  0.8130  0.8601
17556TIP3    H174159   0.742   0.079   0.422 -1.3320  1.5521  0.8597
17556TIP3    H274160   0.849   0.124   0.325  2.1671 -5.7985  0.6002
17557TIP3   OH274161   1.519   1.088   5.757  0.3199 -0.0127  0.1465
17557TIP3    H174162   1.470   1.139   5.822  0.2255  0.0981 -0.0130
17557TIP3    H274163   1.564   1.021   5.809 -0.8496 -0.8016  0.1995
17558TIP3   OH274164   0.156   3.481  16.771  0.0524  0.0633  0.0885
17558TIP3    H174165   0.097   3.555  16.759 -0.9001 -0.8096 -1.0191
17558TIP3    H274166   0.193   3.492  16.858 -0.0684  1.8165 -0.0556
17559TIP3   OH274167   3.793   1.241   2.643  0.0063 -0.0920 -0.0059
17559TIP3    H174168   3.794   1.271   2.734 -0.3807 -0.6819  0.1999
17559TIP3    H274169   3.872   1.188   2.635  1.5786  2.2297 -0.8271
17560TIP3   OH274170   5.825   2.674  16.766  0.2493 -0.4123 -0.6846
17560TIP3    H174171   5.803   2.715  16.850 -0.2952 -0.4642 -0.7929
17560TIP3    H274172   5.878   2.739  16.720 -1.6103  0.7336 -1.3627
17561TIP3   OH274173   2.784   5.253  12.333 -0.4870 -0.3440 -0.0018
17561TIP3    H174174   2.772   5.267  12.427  2.5219  0.0580  0.4395
17561TIP3    H274175   2.783   5.341  12.295  3.2940  0.1263  0.5370
17562TIP3   OH274176   1.264   0.791  14.677  0.2961 -0.0657 -0.0002
17562TIP3    H174177   1.276   0.699  14.701 -0.0206 -0.2978 -0.6862
17562TIP3    H274178   1.353   0.825  14.666  0.5204 -1.4382 -3.8620
17563TIP3   OH274179   3.830   2.519   0.776  0.1016 -0.3019  0.0564
17563TIP3    H174180   3.904   2.570   0.811  0.5125 -1.2557  0.6311
17563TIP3    H274181   3.871   2.442   0.737 -0.6153 -1.1602  0.9474
17564TIP3   OH274182   6.151   4.518  16.616 -0.0232  0.1741  0.1907
17564TIP3    H174183   6.225   4.535  16.675  0.1506  0.7749 -0.1911
17564TIP3    H274184   6.093   4.461  16.667 -0.3581  1.4800  1.3349
17565TIP3   OH274185   1.369   2.463   4.904 -0.2374 -0.4696 -0.1241
17565TIP3    H174186   1.454   2.503   4.886  0.1761 -1.0684  0.4644
17565TIP3    H274187   1.365   2.456   4.999 -1.6014  0.9340 -0.0258
17566TIP3   OH274188   0.799   5.382   5.478  0.2183  0.1139  0.3941
17566TIP3    H174189   0.868   5.330   5.517  0.0691  0.2436  0.8412
17566TIP3    H274190   0.720   5.357   5.526  0.2019  0.9883  0.8612
17567TIP3   OH274191   6.444   3.471  13.559  0.6962  0.0289  0.4978
17567TIP3    H174192   6.362   3.506  13.524  0.6824  0.6692  1.1484
17567TIP3    H274193   6.443   3.379  13.533 -0.8913 -0.3278  1.6510
17568TIP3   OH274194   3.809   4.984   3.708  0.2277 -0.6059  0.0286
17568TIP3    H174195   3.795   4.992   3.614  1.1744 -0.8160 -0.1349
17568TIP3    H274196   3.758   4.907   3.733  0.3188 -0.8026 -0.3844
17569TIP3   OH274197   1.695   2.998   3.577 -0.4294 -0.2497 -0.2960
17569TIP3    H174198   1.732   2.984   3.664 -1.0123  1.6930  0.3151
17569TIP3    H274199   1.771   2.998   3.519  0.2652  0.9256  0.5646
17570TIP3   OH274200   5.968   6.776   6.083  0.3461  0.4074  0.0191
17570TIP3    H174201   5.898   6.807   6.025  0.4247  1.2718  0.3753
17570TIP3    H274202   5.939   6.689   6.110 -0.6099  0.7531  0.1748
17571TIP3   OH274203   5.895   3.169  12.785 -0.3981  0.0014  0.2251
17571TIP3    H174204   5.947   3.234  12.739 -0.4870 -0.1501 -0.0898
17571TIP3    H274205   5.875   3.210  12.869  0.4025 -0.0248  0.4311
17572TIP3   OH274206   2.542   1.140  12.824 -0.7344 -0.2624  0.1155
17572TIP3    H174207   2.530   1.227  12.862 -0.6385 -0.1149 -0.1918
17572TIP3    H274208   2.632   1.118  12.844 -0.0808  0.6107 -1.6357
17573TIP3   OH274209   1.746   2.506   2.122  0.6752  0.0598  0.3753
17573TIP3    H174210   1.818   2.560   2.088  0.5705  0.0649  0.1595
17573TIP3    H274211   1.671   2.566   2.123  0.5172 -0.1249 -0.0279
17574TIP3   OH274212   5.882   4.119  16.898 -0.7005  0.3580  0.6719
17574TIP3    H174213   5.904   4.026  16.904 -3.7756 -0.6859 -1.5985
17574TIP3    H274214   5.913   4.156  16.981  3.1497 -1.9913  0.5211
17575TIP3   OH274215   0.420   3.083  16.361 -0.2768 -0.0106 -0.3460
17575TIP3    H174216   0.409   2.990  16.343 -1.7277 -0.6767  3.2053
17575TIP3    H274217   0.335   3.122  16.338  0.1374  0.4025 -1.2668
17576TIP3   OH274218   5.712   6.073  14.186  0.0067  0.3394  0.5703
17576TIP3    H174219   5.772   6.000  14.197  0.2132 -0.1096 -2.6361
17576TIP3    H274220   5.768   6.148  14.165 -0.3179  1.0494  2.1018
17577TIP3   OH274221   6.120   6.284  12.726 -0.2625  0.4684  0.1329
17577TIP3    H174222   6.071   6.358  12.691  1.0583  1.0270 -0.6471
17577TIP3    H274223   6.155   6.315  12.810 -1.5101 -0.0557  0.8612
17578TIP3   OH274224   0.605   2.361  12.092  0.0758 -0.3506  0.6141
17578TIP3    H174225   0.519   2.398  12.115 -0.1358 -1.0964  1.0879
17578TIP3    H274226   0.641   2.421  12.028 -0.0488  0.9216  1.6929
17579TIP3   OH274227   4.930   4.150  13.152  0.2861 -0.5773 -0.3600
17579TIP3    H174228   4.869   4.223  13.161  1.0941  0.0215  0.4318
17579TIP3    H274229   4.995   4.165  13.220 -0.0645 -2.5813  0.4761
17580TIP3   OH274230   5.388   3.314   3.385  0.2397  0.4590  0.6204
17580TIP3    H174231   5.484   3.313   3.386  0.2984  1.0715 -1.1258
17580TIP3    H274232   5.363   3.272   3.468  1.9943 -0.5839  0.6810
17581TIP3   OH274233   5.503   5.220  15.544  0.3929 -0.5252 -0.1461
17581TIP3    H174234   5.553   5.159  15.490 -0.6561 -0.6868 -0.9568
17581TIP3    H274235   5.470   5.168  15.616 -0.3661 -0.8888 -0.7503
17582TIP3   OH274236   2.145   0.608   3.424  0.6222  0.4193 -0.7571
17582TIP3    H174237   2.204   0.669   3.380  0.6583  0.8228 -0.1702
17582TIP3    H274238   2.118   0.655   3.504  1.2492 -0.6119  0.0905
17583TIP3   OH274239   2.405   0.400  17.053  0.0593  0.1572  0.0431
17583TIP3    H174240   2.376   0.309  17.048  0.7979 -0.4905  4.1072
17583TIP3    H274241   2.330   0.448  17.087 -0.0237  0.9513 -1.1866
17584TIP3   OH274242   5.285   4.845  14.669 -0.4555  0.3049  0.7854
17584TIP3    H174243   5.332   4.837  14.586 -1.4453  2.0848 -0.0040
17584TIP3    H274244   5.301   4.762  14.713  1.2257 -0.1687 -0.5820
17585TIP3   OH274245   3.158   6.700  13.722  0.1649  0.0163 -0.4824
17585TIP3    H174246   3.086   6.674  13.779  2.3516  0.1558  2.5879
17585TIP3    H274247   3.152   6.795  13.716  0.3237  0.0655  0.1218
17586TIP3   OH274248   3.139   2.589   0.983  0.3812 -0.7417  0.8484
17586TIP3    H174249   3.195   2.540   1.042  3.4009 -1.6449 -2.3966
17586TIP3    H274250   3.054   2.546   0.988  0.9431 -1.7087  3.2717
17587TIP3   OH274251   6.460   0.931   6.339  0.1632 -0.3072  0.4113
17587TIP3    H174252   6.407   0.934   6.418  0.5221 -0.7045  0.6735
17587TIP3    H274253   6.546   0.899   6.369  0.9028  1.3749  0.1981
17588TIP3   OH274254   2.873   3.129   4.685  0.1039 -0.1239  0.2021
17588TIP3    H174255   2.780   3.145   4.670 -0.0214 -0.0928  0.9485
17588TIP3    H274256   2.890   3.165   4.772  0.8028 -0.1744  0.0938
17589TIP3   OH274257   5.094   0.604   3.467  0.5782  0.6220 -0.6533
17589TIP3    H174258   5.064   0.514   3.451 -1.7822  0.9497  1.3392
17589TIP3    H274259   5.048   0.656   3.402  1.1973  0.4998 -1.1915
17590TIP3   OH274260   4.442   6.516   5.794  0.0109 -0.6519  0.4418
17590TIP3    H174261   4.372   6.474   5.744  1.9790 -2.2846 -1.1094
17590TIP3    H274262   4.464   6.595   5.744 -0.7489 -0.0847  0.9839
17591TIP3   OH274263   1.573   2.229  11.089 -0.2753 -0.4075 -0.3170
17591TIP3    H174264   1.569   2.185  11.005 -1.2749  0.4694 -0.7479
17591TIP3    H274265   1.651   2.284  11.084  1.4265 -2.5846  0.5037
17592TIP3   OH274266   1.068   1.280  13.528 -0.3285 -0.5646  0.6404
17592TIP3    H174267   1.025   1.355  13.569  0.8946 -0.4390  1.8035
17592TIP3    H274268   1.149   1.270  13.578  0.1855 -1.8088 -0.3908
17593TIP3   OH274269   2.839   0.106  15.547  0.6439 -0.2534  0.4918
17593TIP3    H174270   2.799   0.027  15.582  0.0898  0.5846  1.8396
17593TIP3    H274271   2.770   0.172  15.551  1.6093  0.7647  1.1620
17594TIP3   OH274272   0.072   5.969   1.147 -0.0778  0.0342 -0.1927
17594TIP3    H174273   0.077   5.981   1.242 -1.0711 -1.6709  0.1436
17594TIP3    H274274   0.125   5.891   1.130  0.2816  0.4590 -1.0850
17595TIP3   OH274275   4.832   5.362  12.749 -0.5747  0.2958  0.6935
17595TIP3    H174276   4.910   5.360  12.805 -0.7180  0.5384  0.9099
17595TIP3    H274277   4.832   5.450  12.712  0.2155 -0.2664 -0.7096
17596TIP3   OH274278   2.002   4.903   3.989  0.3652  1.0035  0.7744
17596TIP3    H174279   1.996   4.849   4.068  1.4197  0.5102  0.5307
17596TIP3    H274280   1.938   4.973   4.003 -1.4733 -0.6100  0.8378
17597TIP3   OH274281   3.552   4.009   5.172 -0.4672  0.1752 -0.4235
17597TIP3    H174282   3.646   4.021   5.185 -0.3944 -1.0170  0.3092
17597TIP3    H274283   3.524   3.960   5.249 -1.3082 -1.3116 -1.6359
17598TIP3   OH274284   0.099   1.234   2.305 -0.0587 -0.1191  0.0568
17598TIP3    H174285   0.088   1.326   2.325  1.1649 -0.1088  0.7704
17598TIP3    H274286   0.058   1.188   2.378 -1.0489 -0.1556 -0.5116
17599TIP3   OH274287   4.591   5.792   4.052  0.1401  0.4779 -0.6132
17599TIP3    H174288   4.685   5.783   4.063  0.0226  1.6072  2.0522
17599TIP3    H274289   4.566   5.863   4.111 -2.2837  0.8404 -1.9150
17600TIP3   OH274290   3.893   3.485   3.198 -0.1627  0.4322  0.0935
17600TIP3    H174291   3.910   3.516   3.287 -2.1851  0.3641  0.5386
17600TIP3    H274292   3.894   3.564   3.144 -1.4995  0.8162  0.6068
17601TIP3   OH274293   5.237   1.220   4.352 -0.4269  0.0617  0.1073
17601TIP3    H174294   5.230   1.263   4.438  0.8516  0.6138 -0.0423
17601TIP3    H274295   5.151   1.233   4.312 -0.5234  1.2547  0.6500
17602TIP3   OH274296   4.135   0.974   3.799  0.0162  0.5807  0.3136
17602TIP3    H174297   4.202   0.937   3.857 -0.5080  0.4975  0.8787
17602TIP3    H274298   4.136   1.068   3.817  1.1618  0.8405 -0.9290
17603TIP3   OH274299   1.477   3.822  13.239  0.0715 -0.0564  0.3394
17603TIP3    H174300   1.470   3.769  13.319  2.4136  2.1696  2.2069
17603TIP3    H274301   1.460   3.911  13.269  1.9167  0.9629 -1.4466
17604TIP3   OH274302   6.128   1.585   5.722  0.1937 -0.2661 -0.2027
17604TIP3    H174303   6.151   1.514   5.662  0.2593 -1.0476  0.7267
17604TIP3    H274304   6.070   1.544   5.786  1.4003  0.1534  1.2091
17605TIP3   OH274305   0.917   2.971  15.699 -0.0226  0.2265 -0.0219
17605TIP3    H174306   0.911   3.049  15.755  1.1446 -0.3697  0.9830
17605TIP3    H274307   0.961   2.906  15.753  1.0331 -0.4247 -1.5860
17606TIP3   OH274308   4.653   1.101   1.678  0.0218  0.1624 -0.6525
17606TIP3    H174309   4.702   1.183   1.669  0.2657  0.1039  0.0578
17606TIP3    H274310   4.577   1.112   1.621 -0.7217  1.4868  0.5509
17607TIP3   OH274311   1.781   0.232  11.503 -0.1968  0.5226 -0.5560
17607TIP3    H174312   1.870   0.220  11.470  0.0303  0.7801 -0.0478
17607TIP3    H274313   1.728   0.245  11.424 -0.1506 -1.7580 -1.0379
17608TIP3   OH274314   3.021   1.108  13.130 -0.1411 -0.3592  0.7441
17608TIP3    H174315   3.099   1.068  13.169 -0.0751 -0.4404  0.5260
17608TIP3    H274316   2.964   1.126  13.205  0.5606  0.7569  1.0359
17609TIP3   OH274317   5.112   3.848   1.137  0.3059 -0.1314 -0.1733
17609TIP3    H174318   5.116   3.759   1.105  0.8722 -0.6431  1.2292
17609TIP3    H274319   5.201   3.882   1.126  0.2041  0.1044 -0.2816
17610TIP3   OH274320   1.721   4.752  15.938  0.7697  0.3434  0.0384
17610TIP3    H174321   1.811   4.754  15.905  0.3960  2.3355 -1.0252
17610TIP3    H274322   1.670   4.713  15.868  0.6935 -0.1187  0.3485
17611TIP3   OH274323   1.135   0.548  10.726  0.2899 -0.1670  0.3106
17611TIP3    H174324   1.203   0.492  10.689  0.4360  1.0449 -1.3968
17611TIP3    H274325   1.141   0.629  10.675 -2.7121 -0.1702 -0.1887
17612TIP3   OH274326   0.776   0.723  12.362 -1.1082 -0.0826 -0.0072
17612TIP3    H174327   0.860   0.727  12.315 -0.7609 -0.2091  0.6012
17612TIP3    H274328   0.716   0.775  12.308 -0.4148  0.7393 -0.0021
17613TIP3   OH274329   4.658   4.969   4.850 -0.3462 -0.0857 -0.0092
17613TIP3    H174330   4.620   5.004   4.931 -0.2986 -0.4990  0.1955
17613TIP3    H274331   4.583   4.947   4.796 -0.4059 -0.8406  0.3688
17614TIP3   OH274332   3.654   5.594   2.035  0.1256 -0.2133 -0.4251
17614TIP3    H174333   3.604   5.642   2.101 -1.5942  0.8714 -2.4136
17614TIP3    H274334   3.651   5.503   2.064  1.0656  0.4093  1.9394
17615TIP3   OH274335   4.629   5.126  17.195 -0.1417  0.6526  0.1841
17615TIP3    H174336   4.667   5.203  17.238 -0.4621  0.9786 -0.1079
17615TIP3    H274337   4.688   5.055  17.218 -0.3640  0.7931  1.2527
17616TIP3   OH274338   1.593   5.253   1.746  0.3256 -0.3738 -0.2695
17616TIP3    H174339   1.622   5.286   1.661  0.1548 -0.5652 -0.4004
17616TIP3    H274340   1.507   5.215   1.730  0.9349 -1.8197 -0.3456
17617TIP3   OH274341   0.712   3.340  10.511  0.2701  0.0461  0.2899
17617TIP3    H174342   0.745   3.409  10.569  1.9621 -0.8162  0.4074
17617TIP3    H274343   0.619   3.359  10.502 -0.0139  0.3923  3.0773
17618TIP3   OH274344   3.445   0.160  10.693 -0.4678 -0.4647  0.0292
17618TIP3    H174345   3.416   0.090  10.751  0.6165 -0.4399  0.6419
17618TIP3    H274346   3.525   0.193  10.734 -0.4577  0.5184 -0.7346
17619TIP3   OH274347   3.785   3.145   3.549 -0.2068  0.3956  0.2539
17619TIP3    H174348   3.807   3.200   3.474 -1.4229  1.6030  0.7517
17619TIP3    H274349   3.750   3.065   3.510  0.9744  0.1992 -0.4666
17620TIP3   OH274350   1.660   3.716  15.456  0.1697  0.1609  0.7811
17620TIP3    H174351   1.633   3.806  15.434  1.4751  0.7159  1.3760
17620TIP3    H274352   1.755   3.719  15.456  0.2193 -0.8675  2.2880
17621TIP3   OH274353   6.270   3.003  16.630  0.2250  0.5214 -0.3905
17621TIP3    H174354   6.271   2.930  16.568 -0.1701  1.4490 -1.5113
17621TIP3    H274355   6.202   3.062  16.598  0.4767  1.3572  0.5427
17622TIP3   OH274356   5.695   4.188  17.252  0.2925 -0.0535  0.1854
17622TIP3    H174357   5.786   4.217  17.256  0.9254 -1.6284 -1.6588
17622TIP3    H274358   5.694   4.119  17.186 -2.2853  0.0390  0.0300
17623TIP3   OH274359   0.890   5.865  12.327 -0.0114  0.1295 -0.1795
17623TIP3    H174360   0.984   5.859  12.343  0.7182  4.9803 -1.0647
17623TIP3    H274361   0.850   5.860  12.413  0.9129 -2.3286  0.1823
17624TIP3   OH274362   0.225   1.705   5.403  0.1861 -0.2047 -0.1676
17624TIP3    H174363   0.133   1.731   5.416  0.0117 -0.0581 -1.5103
17624TIP3    H274364   0.275   1.779   5.438 -0.1486 -0.9168  1.9112
17625TIP3   OH274365   0.336   0.575  10.590 -0.2594  0.1769 -0.1438
17625TIP3    H174366   0.286   0.624  10.524 -1.0991 -0.5745 -0.0779
17625TIP3    H274367   0.427   0.583  10.561 -0.5257  0.5884 -0.9102
17626TIP3   OH274368   2.488   5.536  13.902 -0.3944 -0.3333  0.3846
17626TIP3    H174369   2.524   5.460  13.947  0.7251  0.2977  0.5800
17626TIP3    H274370   2.476   5.507  13.811  0.9825 -0.4505  0.2225
17627TIP3   OH274371   2.725   6.041  13.665  0.4745 -0.1093 -0.8249
17627TIP3    H174372   2.719   6.004  13.753  0.3300  0.4185 -0.6110
17627TIP3    H274373   2.710   6.135  13.677  4.1576  0.6232 -0.9073
17628TIP3   OH274374   5.576   5.314   4.105 -0.4666  0.0849 -0.3748
17628TIP3    H174375   5.640   5.330   4.175 -0.6364  0.6333 -0.3460
17628TIP3    H274376   5.618   5.249   4.049 -0.5585 -0.8125  0.5490
17629TIP3   OH274377   1.115   5.266  12.992 -0.7426 -0.0467  0.5780
17629TIP3    H174378   1.081   5.350  12.962  2.0483  0.9310 -0.1914
17629TIP3    H274379   1.188   5.248  12.932 -0.3599 -2.2998  1.6400
17630TIP3   OH274380   3.979   3.535  14.675 -0.5796  0.1436  0.0633
17630TIP3    H174381   4.009   3.470  14.611  0.4033  0.7705 -0.1560
17630TIP3    H274382   3.994   3.495  14.760  0.4027  0.2129 -0.0604
17631TIP3   OH274383   1.769   2.055   5.815  0.4364 -0.8517  0.2620
17631TIP3    H174384   1.806   2.054   5.727  1.4298 -0.5584  0.6597
17631TIP3    H274385   1.845   2.052   5.873 -0.0441  1.4820  1.1249
17632TIP3   OH274386   2.058   6.404  15.322  0.4893 -0.1770 -0.1315
17632TIP3    H174387   1.997   6.475  15.300  0.3230 -0.8486 -1.9761
17632TIP3    H274388   2.104   6.385  15.240 -0.2559 -2.9359 -0.0085
17633TIP3   OH274389   5.335   2.138  13.770 -0.3082  0.0295 -0.2727
17633TIP3    H174390   5.381   2.123  13.853  0.0051 -1.0691 -0.6232
17633TIP3    H274391   5.324   2.050  13.734  1.3812  0.5931 -2.3634
17634TIP3   OH274392   4.550   6.751   1.328 -0.8852 -0.0406 -0.0285
17634TIP3    H174393   4.602   6.829   1.348 -0.5079 -0.0590 -0.8960
17634TIP3    H274394   4.474   6.758   1.386 -0.1861  0.2666  0.8671
17635TIP3   OH274395   5.537   0.245  15.736  0.7269  0.3814 -0.1353
17635TIP3    H174396   5.561   0.173  15.677 -1.3817 -1.5538  1.1965
17635TIP3    H274397   5.481   0.301  15.682  0.7028 -0.1047 -0.6349
17636TIP3   OH274398   2.260   2.893  14.589 -0.1511 -0.1649  0.0149
17636TIP3    H174399   2.273   2.963  14.653  0.1433 -0.6159  0.4596
17636TIP3    H274400   2.227   2.819  14.641 -1.3374 -0.0847 -0.5779
17637TIP3   OH274401   6.285   5.201   2.317 -0.0045 -0.5343 -0.2239
17637TIP3    H174402   6.344   5.259   2.270  0.2496  0.4944  1.2804
17637TIP3    H274403   6.203   5.250   2.324 -0.4117 -1.1519 -0.6094
17638TIP3   OH274404   5.354   2.079   3.849  0.7634  0.3709  0.1050
17638TIP3    H174405   5.442   2.043   3.837  0.4558 -0.6645  0.7652
17638TIP3    H274406   5.308   2.056   3.768  0.5776 -0.7537  0.5111
17639TIP3   OH274407   0.895   0.715  12.612 -0.2247  0.3479 -0.8832
17639TIP3    H174408   0.968   0.654  12.602  0.5597  1.4913 -2.5418
17639TIP3    H274409   0.867   0.734  12.523 -2.0946  0.5077 -0.2976
17640TIP3   OH274410   5.889   0.658  14.690  0.4154 -0.5488 -0.0688
17640TIP3    H174411   5.934   0.733  14.728  1.3544 -1.8132  1.4185
17640TIP3    H274412   5.950   0.624  14.624 -0.9394  1.2520 -2.3890
17641TIP3   OH274413   2.719   1.827  13.980 -0.2018  0.2975  0.1759
17641TIP3    H174414   2.633   1.869  13.982 -0.0882  0.6380 -1.0224
17641TIP3    H274415   2.712   1.753  14.040 -1.3446  0.3067  0.0654
17642TIP3   OH274416   6.302   1.058  12.239  0.2205  0.2463 -0.3081
17642TIP3    H174417   6.271   0.978  12.281  0.6460 -0.0992 -0.6472
17642TIP3    H274418   6.232   1.121  12.253 -0.3863 -0.3599 -0.5565
17643TIP3   OH274419   4.333   0.901  11.028  0.0045  0.0815  0.2069
17643TIP3    H174420   4.330   0.972  10.964  0.7402 -0.8037 -0.8503
17643TIP3    H274421   4.333   0.945  11.113 -0.5854  1.3035 -0.3980
17644TIP3   OH274422   2.250   2.638  11.248 -0.2819  0.1934 -0.0433
17644TIP3    H174423   2.337   2.662  11.281 -0.9989  1.9897  0.6950
17644TIP3    H274424   2.259   2.548  11.218  1.9312  0.4601 -0.3294
17645TIP3   OH274425   2.612   0.809  11.680  0.0114 -0.2093 -0.0464
17645TIP3    H174426   2.606   0.717  11.707  0.9448 -0.6447 -1.2220
17645TIP3    H274427   2.689   0.842  11.727  0.0865 -0.2294 -0.1543
17646TIP3   OH274428   4.405   4.360  13.513 -0.2123  0.9564  0.0430
17646TIP3    H174429   4.431   4.428  13.574  0.8323 -0.0228  0.7325
17646TIP3    H274430   4.336   4.311  13.559 -1.4996  1.9694 -0.7476
17647TIP3   OH274431   3.893   5.081   5.445 -0.1155  0.6119 -0.3288
17647TIP3    H174432   3.854   4.998   5.472 -2.1645  0.6355 -2.8541
17647TIP3    H274433   3.982   5.058   5.420 -0.1769 -0.5239  0.4128
17648TIP3   OH274434   5.914   3.552  16.718 -0.6103  0.3695  0.0515
17648TIP3    H174435   5.967   3.612  16.769 -0.9580  2.2507 -1.6912
17648TIP3    H274436   5.977   3.496  16.672 -0.1763  1.1997 -0.3866
17649TIP3   OH274437   0.869   5.933  10.781 -0.4475  0.1150  0.0250
17649TIP3    H174438   0.963   5.924  10.793 -0.4223  0.0527 -0.2016
17649TIP3    H274439   0.834   5.846  10.803 -0.4567  0.1542  0.1626
17650TIP3   OH274440   1.380   1.879  13.352  1.1740 -0.0760  0.5190
17650TIP3    H174441   1.352   1.936  13.280  0.7447 -1.2297 -0.2762
17650TIP3    H274442   1.305   1.820  13.365  2.5857 -2.2724 -0.6286
17651TIP3   OH274443   5.357   5.698  12.626  0.0978 -0.0046  0.2038
17651TIP3    H174444   5.313   5.712  12.710 -0.7513 -0.5432 -0.1375
17651TIP3    H274445   5.446   5.673  12.649 -0.4814 -1.4919  1.0157
17652TIP3   OH274446   3.819   3.484   6.478  0.4773  0.5460  0.3394
17652TIP3    H174447   3.801   3.391   6.489 -2.1556  0.9645  0.2099
17652TIP3    H274448   3.859   3.490   6.391  1.5599 -0.5407  0.7413
17653TIP3   OH274449   0.215   0.805   5.579 -0.2791 -0.7590  0.0670
17653TIP3    H174450   0.224   0.900   5.589 -1.0076 -0.7860  1.2354
17653TIP3    H274451   0.275   0.782   5.508 -1.3554  0.8122 -1.4483
17654TIP3   OH274452   0.831   2.191  14.826  0.1819  0.1890 -0.2332
17654TIP3    H174453   0.838   2.287  14.821 -1.9607  0.6055  2.4871
17654TIP3    H274454   0.921   2.160  14.815  1.2563  2.6663  0.7806
17655TIP3   OH274455   6.599   1.435   2.672  0.2721  0.3280 -0.1629
17655TIP3    H174456   6.590   1.445   2.766  0.2462  0.4084 -0.1739
17655TIP3    H274457   6.532   1.371   2.648  0.8992 -0.4037  0.0071
17656TIP3   OH274458   1.791   1.467   6.138  0.1998 -0.2416 -0.0036
17656TIP3    H174459   1.814   1.384   6.096  0.9620 -1.0789  1.9416
17656TIP3    H274460   1.698   1.478   6.119 -0.6157 -2.9277  1.7601
17657TIP3   OH274461   2.782   3.996   2.513  0.1501 -0.2542 -0.0814
17657TIP3    H174462   2.698   3.949   2.519 -0.2655  0.5100  0.2585
17657TIP3    H274463   2.757   4.089   2.512  1.0573  0.0660  2.0870
17658TIP3   OH274464   2.554   2.269  14.095 -0.1944 -0.3222 -0.4175
17658TIP3    H174465   2.615   2.302  14.029 -0.3414 -0.3625 -0.5730
17658TIP3    H274466   2.609   2.247  14.170 -0.0624  0.0203 -0.4132
17659TIP3   OH274467   2.980   0.480  13.488  0.4437 -0.0351  0.3685
17659TIP3    H174468   2.977   0.516  13.400  3.5939  1.5598  0.7812
17659TIP3    H274469   3.018   0.393  13.478  3.3494  1.1414  0.2560
17660TIP3   OH274470   2.763   1.287   3.169  0.2414 -0.6534  0.2561
17660TIP3    H174471   2.788   1.303   3.077  0.1595 -0.4843  0.2618
17660TIP3    H274472   2.815   1.211   3.195  1.3175  0.1306  0.4949
17661TIP3   OH274473   1.847   5.606   3.718 -0.0821 -0.1518 -0.3231
17661TIP3    H174474   1.877   5.611   3.627 -0.4407 -2.2198 -0.6002
17661TIP3    H274475   1.861   5.694   3.752  1.3482  0.3268 -1.9742
17662TIP3   OH274476   3.873   3.136   6.260 -0.3012 -0.6460  0.4879
17662TIP3    H174477   3.792   3.095   6.230 -1.1105  0.5293  0.9713
17662TIP3    H274478   3.852   3.168   6.348  0.3870  0.4792  0.2648
17663TIP3   OH274479   4.598   5.583  13.942 -0.5884  0.1279 -0.5768
17663TIP3    H174480   4.672   5.597  14.001 -2.4290  0.3871  1.8578
17663TIP3    H274481   4.590   5.664  13.893 -0.0408  0.5934  0.0890
17664TIP3   OH274482   1.134   0.806  15.156  0.2219 -0.1948 -0.2236
17664TIP3    H174483   1.221   0.813  15.195  0.3424  0.1125 -0.5428
17664TIP3    H274484   1.146   0.752  15.078 -0.6532 -4.0502  2.0735
17665TIP3   OH274485   1.329   1.712  16.235  0.0500  0.1548  0.1473
17665TIP3    H174486   1.344   1.697  16.142 -0.7918  0.9477 -0.1290
17665TIP3    H274487   1.235   1.700  16.247 -0.0563  1.3145  0.6388
17666TIP3   OH274488   2.866   0.587  17.063 -0.1229 -0.3991 -0.2492
17666TIP3    H174489   2.790   0.626  17.020 -0.1932  0.2019  0.3931
17666TIP3    H274490   2.832   0.554  17.147 -0.0841 -1.9542 -0.8139
17667TIP3   OH274491   5.691   6.155  13.792 -0.5168  0.4458  0.7852
17667TIP3    H174492   5.702   6.077  13.846 -1.5147  1.0087  1.8450
17667TIP3    H274493   5.704   6.228  13.853 -1.1834  1.0963  0.1635
17668TIP3   OH274494   2.029   6.265   4.892 -0.5931 -0.3757 -0.1316
17668TIP3    H174495   2.062   6.351   4.864  0.0722 -1.1530 -1.8786
17668TIP3    H274496   2.066   6.253   4.979 -0.9357  1.2235  0.2757
17669TIP3   OH274497   3.211   1.075  11.639  0.3750  0.3564  0.9280
17669TIP3    H174498   3.143   1.107  11.578 -1.5547 -1.5055  1.9652
17669TIP3    H274499   3.169   1.002  11.685  2.1676  0.8786  3.6195
17670TIP3   OH274500   0.062   6.066  10.699 -0.5335 -0.2491 -0.8986
17670TIP3    H174501  -0.007   6.003  10.678 -1.7481  0.6277  0.2777
17670TIP3    H274502   0.069   6.062  10.795 -2.2096  2.9129 -0.5192
17671TIP3   OH274503   3.751   6.667  15.206  0.3361  0.5886  0.7749
17671TIP3    H174504   3.798   6.718  15.140  0.7016  0.9859  1.3320
17671TIP3    H274505   3.796   6.686  15.288  0.5928 -0.7697  0.9791
17672TIP3   OH274506   3.756   4.677  12.571 -0.1155 -0.0110  0.2010
17672TIP3    H174507   3.787   4.721  12.650 -1.3100 -0.3838  0.9064
17672TIP3    H274508   3.788   4.731  12.499  0.1417  0.8946  0.9783
17673TIP3   OH274509   2.581   5.619   2.713  0.2305  0.1136  0.3433
17673TIP3    H174510   2.625   5.698   2.683  1.4269  0.1168  2.0242
17673TIP3    H274511   2.649   5.551   2.714 -0.7974 -1.0144 -1.1924
17674TIP3   OH274512   5.289   6.402   3.227  0.4748 -0.0608 -0.0376
17674TIP3    H174513   5.264   6.310   3.217  2.5547 -0.7229  0.4803
17674TIP3    H274514   5.229   6.435   3.294 -0.5328 -0.9071 -0.4796
17675TIP3   OH274515   3.002   4.602   3.989 -0.2414  0.0606 -0.5080
17675TIP3    H174516   3.092   4.620   3.964  1.0130 -1.8916  2.0991
17675TIP3    H274517   2.994   4.506   3.985 -1.8901  0.1202  0.2337
17676TIP3   OH274518   6.690   2.524   3.385 -0.4760  0.0418  0.3426
17676TIP3    H174519   6.740   2.447   3.411  1.5373  0.5977 -1.5964
17676TIP3    H274520   6.647   2.553   3.466  0.9980 -1.4482  1.7375
17677TIP3   OH274521   6.673   2.746   4.507 -0.4206  0.1380  0.3119
17677TIP3    H174522   6.613   2.802   4.557 -0.5777  1.5750 -1.3857
17677TIP3    H274523   6.739   2.718   4.571  0.9357  4.0676  0.8956
17678TIP3   OH274524   5.488   1.036  14.883 -0.2067  0.3330  0.2351
17678TIP3    H174525   5.455   0.947  14.889 -0.5929  0.1921 -2.6033
17678TIP3    H274526   5.415   1.092  14.909 -0.2112 -0.1295  1.2544
17679TIP3   OH274527   2.799   4.108   6.125  0.2447 -0.0595 -0.1190
17679TIP3    H174528   2.712   4.110   6.167 -0.8684 -2.0322 -2.1217
17679TIP3    H274529   2.854   4.061   6.188 -0.6432 -0.4839  0.3705
17680TIP3   OH274530   4.224   3.650  14.034  0.6628 -0.0155  0.0335
17680TIP3    H174531   4.269   3.662  13.950  1.3426 -1.4930  0.1564
17680TIP3    H274532   4.138   3.692  14.021  0.0278 -1.7497 -2.0659
17681TIP3   OH274533   1.537   3.377   2.368 -0.5534 -0.0116 -0.0192
17681TIP3    H174534   1.601   3.364   2.439 -1.7306 -0.1227  1.0596
17681TIP3    H274535   1.482   3.299   2.371 -1.2818  0.4769 -0.3525
17682TIP3   OH274536   2.232   1.618   0.685  0.1777 -0.0350  0.0846
17682TIP3    H174537   2.202   1.527   0.688  0.2241 -0.1863 -2.2486
17682TIP3    H274538   2.318   1.614   0.644 -0.1309  1.0921 -0.7392
17683TIP3   OH274539   0.440   6.051  16.256 -0.0035  0.3859 -0.3686
17683TIP3    H174540   0.497   6.035  16.182  0.9252  1.1141  0.1678
17683TIP3    H274541   0.487   6.014  16.331 -0.5932  0.3072 -0.0297
17684TIP3   OH274542   0.742   3.702  15.232 -0.4217  0.1288 -0.1225
17684TIP3    H174543   0.767   3.629  15.289 -2.6943  0.4514  1.4381
17684TIP3    H274544   0.727   3.775  15.292 -0.4711  1.2173 -1.4131
17685TIP3   OH274545   5.729   0.326  14.501  0.4867  0.2943  0.1279
17685TIP3    H174546   5.756   0.301  14.413  1.9088  1.1860  0.2674
17685TIP3    H274547   5.649   0.376  14.489 -0.6361 -1.5545 -0.4135
17686TIP3   OH274548   1.779   4.379   4.036  0.0105 -0.4760 -0.3117
17686TIP3    H174549   1.800   4.468   4.006  0.8621 -0.2694  0.8345
17686TIP3    H274550   1.699   4.390   4.088  1.0042 -0.1006  1.1685
17687TIP3   OH274551   1.907   4.420  16.330  0.6111 -1.0504 -0.3078
17687TIP3    H174552   2.000   4.421  16.306  0.6855  1.3652 -0.1202
17687TIP3    H274553   1.862   4.423  16.246  0.7232 -0.8838 -0.3635
17688TIP3   OH274554   1.792   2.614   2.881 -0.3327 -0.0798 -0.5121
17688TIP3    H174555   1.768   2.683   2.819  0.3628  0.1674 -0.5149
17688TIP3    H274556   1.794   2.534   2.828 -1.3661 -0.1476 -0.4605
17689TIP3   OH274557   4.884   4.245  13.644  0.5676  0.2100 -0.4109
17689TIP3    H174558   4.879   4.257  13.739 -0.6519  0.4218 -0.4883
17689TIP3    H274559   4.810   4.188  13.623  2.1079 -1.6896 -0.9791
17690TIP3   OH274560   4.395   1.840   3.008  0.0427  0.5941  0.0915
17690TIP3    H174561   4.389   1.899   2.932 -2.0843  0.6278  0.2347
17690TIP3    H274562   4.356   1.889   3.080 -1.9395 -0.9924  0.1768
17691TIP3   OH274563   5.315   5.633   2.424 -0.1518  0.1688  0.6663
17691TIP3    H174564   5.384   5.698   2.434  0.8767 -0.4616 -1.6957
17691TIP3    H274565   5.321   5.605   2.333 -2.1725 -1.4560  0.9545
17692TIP3   OH274566   0.587   5.812  13.789  0.6981  0.0112 -0.2384
17692TIP3    H174567   0.603   5.777  13.876 -1.1114  0.3380  0.2744
17692TIP3    H274568   0.503   5.775  13.763  1.6122 -0.7947 -2.2590
17693TIP3   OH274569   5.512   5.839   4.008 -0.1736  0.0674  0.1537
17693TIP3    H174570   5.513   5.749   3.978 -1.3837  0.3176 -0.6799
17693TIP3    H274571   5.602   5.856   4.035  0.5769 -0.7325 -1.6804
17694TIP3   OH274572   6.112   1.946  16.861  0.3484 -0.3475  0.5285
17694TIP3    H174573   6.105   1.866  16.808 -1.2145  1.3634 -2.0725
17694TIP3    H274574   6.022   1.963  16.889  0.5868  0.7634  0.6519
17695TIP3   OH274575   2.821   3.682   3.638  0.0995  0.2460 -0.5943
17695TIP3    H174576   2.771   3.705   3.559  0.9382 -0.0026 -1.2153
17695TIP3    H274577   2.830   3.765   3.685  0.2137  0.5422 -1.1270
17696TIP3   OH274578   3.979   0.121  14.778 -0.3653 -0.5956  0.3436
17696TIP3    H174579   3.951   0.209  14.803 -0.5989 -0.6319  0.2168
17696TIP3    H274580   4.044   0.135  14.709 -0.4707 -0.5250  0.2579
17697TIP3   OH274581   5.187   2.623   4.011 -0.0355 -0.5984  0.6481
17697TIP3    H174582   5.105   2.632   3.962 -0.3107 -2.0443  0.8053
17697TIP3    H274583   5.251   2.594   3.946  0.7908  2.0026  0.1850
17698TIP3   OH274584   1.795   1.391   3.604  0.0466 -0.3138 -0.3760
17698TIP3    H174585   1.724   1.436   3.559  1.7205  1.1785 -1.6695
17698TIP3    H274586   1.784   1.415   3.696 -1.0876 -0.0589 -0.5670
17699TIP3   OH274587   6.530   4.310  15.019 -0.2000 -0.2900  0.3424
17699TIP3    H174588   6.509   4.307  14.926  1.0458 -0.6707  0.0636
17699TIP3    H274589   6.516   4.401  15.044 -0.8565 -0.2512 -0.1286
17700TIP3   OH274590   3.301   0.100  16.231  0.5089  0.2386 -0.2661
17700TIP3    H174591   3.386   0.096  16.276  1.1643  1.0886 -1.3886
17700TIP3    H274592   3.313   0.044  16.154 -0.5780 -1.1358  0.5103
17701TIP3   OH274593   1.469   5.216  13.904  0.2399 -0.0329  0.0453
17701TIP3    H174594   1.522   5.296  13.903 -0.0265  0.1815  1.3292
17701TIP3    H274595   1.383   5.245  13.934  0.4067 -0.9269  1.4785
17702TIP3   OH274596   0.038   2.166  15.780  0.1055 -0.2308 -0.1472
17702TIP3    H174597  -0.038   2.177  15.837  1.1996 -1.6098  1.6834
17702TIP3    H274598   0.113   2.174  15.839  1.3123 -0.7049 -1.5758
17703TIP3   OH274599   0.416   5.890  15.909  0.0937  0.7334 -0.4024
17703TIP3    H174600   0.430   5.898  15.815 -1.9226 -1.6222 -0.9900
17703TIP3    H274601   0.323   5.908  15.921 -0.3990 -2.0271  0.6291
17704TIP3   OH274602   3.926   0.420   0.229  0.1146 -0.3756 -0.6378
17704TIP3    H174603   4.013   0.423   0.188 -0.5189  2.1385 -1.9699
17704TIP3    H274604   3.876   0.360   0.175  0.4224 -0.1464 -1.1804
17705TIP3   OH274605   1.965   2.660   0.307  0.3392  0.2466 -0.6178
17705TIP3    H174606   1.952   2.566   0.311 -0.8587  0.3527 -1.5246
17705TIP3    H274607   1.887   2.694   0.264 -0.0770  1.8441  1.2348
17706TIP3   OH274608   0.918   5.710   2.912  0.2513  0.0441  0.1752
17706TIP3    H174609   0.956   5.674   2.993  1.5416  2.2421  0.6257
17706TIP3    H274610   0.863   5.782   2.942 -2.3067 -1.4131 -0.7037
17707TIP3   OH274611   1.777   4.223  11.953 -0.1427  0.2643  0.0686
17707TIP3    H174612   1.774   4.171  12.034 -1.0791 -0.1245 -0.2020
17707TIP3    H274613   1.696   4.273  11.953 -0.6335 -0.4745 -1.0922
17708TIP3   OH274614   1.682   2.629   1.037  0.0863  0.2165 -0.7063
17708TIP3    H174615   1.768   2.658   1.006  0.0454 -0.8144 -1.8631
17708TIP3    H274616   1.634   2.710   1.052  1.0985  0.8011 -0.5058
17709TIP3   OH274617   0.331   4.790   1.824 -0.3924  0.3526 -0.1273
17709TIP3    H174618   0.391   4.722   1.794 -0.7106 -0.4719  1.0483
17709TIP3    H274619   0.376   4.872   1.804  1.0213 -0.2380  0.5092
17710TIP3   OH274620   5.950   6.527   5.562 -0.8097  0.4331  0.3437
17710TIP3    H174621   5.983   6.457   5.505 -0.3130  0.2710  0.8153
17710TIP3    H274622   5.888   6.482   5.621 -0.9110  0.4955  0.2845
17711TIP3   OH274623   6.666   2.289   1.785 -0.6412  1.0095  0.2455
17711TIP3    H174624   6.588   2.266   1.734 -0.9089  1.3984  0.4811
17711TIP3    H274625   6.666   2.227   1.858 -1.3108  1.6698  0.8266
17712TIP3   OH274626   0.525   5.138   0.125  0.4153  0.6041 -0.0633
17712TIP3    H174627   0.559   5.208   0.069  1.3424  0.6893  0.5840
17712TIP3    H274628   0.573   5.148   0.207  0.5796 -0.8234  0.0278
17713TIP3   OH274629   3.444   6.740   1.839 -0.8189 -0.3957  0.1926
17713TIP3    H174630   3.406   6.823   1.870 -1.4308 -0.0342 -1.4109
17713TIP3    H274631   3.516   6.767   1.782 -2.4338 -0.8290 -2.1873
17714TIP3   OH274632   0.370   3.774  14.611  0.1303 -0.4899 -0.5055
17714TIP3    H174633   0.385   3.691  14.565  0.8447 -1.2549  0.9957
17714TIP3    H274634   0.458   3.810  14.624 -0.0660 -0.2229  0.1126
17715TIP3   OH274635   2.314   3.948   2.225  0.1734  0.3197  0.5701
17715TIP3    H174636   2.297   3.952   2.131  3.8956 -1.0614 -0.3294
17715TIP3    H274637   2.267   3.871   2.255 -0.1217  0.1172 -0.3960
17716TIP3   OH274638   2.296   4.270  14.676  0.4286  0.2653 -0.0489
17716TIP3    H174639   2.275   4.200  14.738 -1.3873 -1.5521 -2.5285
17716TIP3    H274640   2.218   4.326  14.676 -0.7792 -1.2570 -2.4933
17717TIP3   OH274641   1.616   5.134   2.946  0.3821  0.0504 -0.3255
17717TIP3    H174642   1.623   5.215   2.997  0.4755  0.0270 -0.3016
17717TIP3    H274643   1.526   5.136   2.910  0.7242  0.6867 -1.1990
17718TIP3   OH274644   0.125   3.333   2.747 -0.0429 -0.2937  0.3370
17718TIP3    H174645   0.139   3.275   2.823  0.6989 -0.6638 -0.0697
17718TIP3    H274646   0.195   3.398   2.754  0.2757 -0.5706 -0.2534
17719TIP3   OH274647   2.242   5.381  14.881 -0.5698 -0.3861  0.4641
17719TIP3    H174648   2.282   5.296  14.896  1.7227  0.1565 -2.0044
17719TIP3    H274649   2.231   5.387  14.787 -0.7516  2.0292  0.5761
17720TIP3   OH274650   4.441   1.228   0.232 -0.3349  0.2922 -0.0472
17720TIP3    H174651   4.359   1.229   0.183  0.6268  0.4929 -1.7160
17720TIP3    H274652   4.510   1.232   0.165  1.0389  3.3963  1.3280
17721TIP3   OH274653   4.990   1.064   2.472 -0.6901  0.1688 -0.4108
17721TIP3    H174654   4.941   0.983   2.461  0.4891 -0.7146  0.5464
17721TIP3    H274655   4.996   1.076   2.567  3.0789 -1.1957 -0.2957
17722TIP3   OH274656   0.645   2.704  14.312  0.1341 -0.1045  0.2501
17722TIP3    H174657   0.565   2.673  14.356  0.2485  0.8105  1.1376
17722TIP3    H274658   0.642   2.663  14.226 -0.5807 -1.2048  0.7709
17723TIP3   OH274659   6.490   2.830   1.228 -0.3208  0.2482  0.1073
17723TIP3    H174660   6.558   2.824   1.162 -1.6536  0.9440 -1.3922
17723TIP3    H274661   6.493   2.921   1.259 -0.5026  0.2603  0.0952
17724TIP3   OH274662   1.554   0.532   2.724  0.2777  0.2536  0.0052
17724TIP3    H174663   1.572   0.569   2.811 -2.8354  2.1513 -0.0067
17724TIP3    H274664   1.468   0.492   2.732  0.3785 -0.4508 -1.9567
17725TIP3   OH274665   0.264   3.452   5.970  0.2038  0.3322  0.7191
17725TIP3    H174666   0.170   3.438   5.969  0.3614 -0.8044  0.9390
17725TIP3    H274667   0.282   3.497   5.887 -0.5208  0.5897  0.6927
17726TIP3   OH274668   3.174   2.444  12.789 -0.1988 -0.1105 -0.2770
17726TIP3    H174669   3.107   2.506  12.759 -0.4733  0.0067  0.5399
17726TIP3    H274670   3.150   2.361  12.750 -2.6182 -0.7860  2.3715
17727TIP3   OH274671   5.740   6.776   4.873 -0.7483  0.1407 -0.2466
17727TIP3    H174672   5.820   6.798   4.921 -1.1820  2.0951 -0.3226
17727TIP3    H274673   5.761   6.796   4.781 -1.5955  1.7282 -0.1433
17728TIP3   OH274674   0.635   4.790   6.380 -0.2911 -0.2852  0.5739
17728TIP3    H174675   0.639   4.872   6.332 -0.7498 -0.3859  0.3623
17728TIP3    H274676   0.568   4.804   6.447  0.1520 -0.2366  1.0169
17729TIP3   OH274677   3.187   1.010   2.468 -0.3284 -0.1873 -1.0481
17729TIP3    H174678   3.212   0.944   2.533 -0.7467 -1.5530 -2.2067
17729TIP3    H274679   3.197   1.094   2.513  1.8416 -0.9273 -0.0123
17730TIP3   OH274680   6.398   5.406   4.036  0.3933 -0.1499 -0.3130
17730TIP3    H174681   6.337   5.438   3.970 -0.0820 -0.9595 -0.2739
17730TIP3    H274682   6.383   5.462   4.112 -2.0896 -1.8788  0.5661
17731TIP3   OH274683   2.537   3.729  12.841 -0.0106  0.4830  0.0898
17731TIP3    H174684   2.631   3.748  12.838 -0.2179  1.5368 -0.4043
17731TIP3    H274685   2.515   3.703  12.751 -0.4925  1.9161 -0.2387
17732TIP3   OH274686   2.577   2.353  11.349  0.6756  0.2675  0.0827
17732TIP3    H174687   2.540   2.361  11.261  1.4316 -1.3988 -0.4230
17732TIP3    H274688   2.664   2.316  11.335  1.1385  0.7594  1.4950
17733TIP3   OH274689   2.807   4.403  13.574  0.2772  0.0540 -0.0770
17733TIP3    H174690   2.829   4.380  13.665  0.9214 -0.2537 -0.3002
17733TIP3    H274691   2.712   4.392  13.569  0.1557  0.6480  0.7196
17734TIP3   OH274692   0.885   6.530  17.245  0.5270 -0.4824 -0.0708
17734TIP3    H174693   0.806   6.503  17.291  0.4499 -3.2541 -1.6311
17734TIP3    H274694   0.957   6.513  17.307  0.0561  0.7613  0.8505
17735TIP3   OH274695   3.680   3.730   4.194  0.0042 -0.3087  0.5561
17735TIP3    H174696   3.679   3.679   4.113 -0.9354 -1.4930  1.2836
17735TIP3    H274697   3.756   3.698   4.242  0.4404  0.2465  0.2484
17736TIP3   OH274698   2.082   2.502   4.773 -0.5346  0.2773  0.0501
17736TIP3    H174699   2.096   2.559   4.698 -0.0633 -2.0091 -1.7235
17736TIP3    H274700   2.156   2.520   4.831 -0.7905  1.9264 -0.0852
17737TIP3   OH274701   6.059   3.106   3.452  0.0726 -0.1724 -0.1175
17737TIP3    H174702   6.093   3.188   3.487  0.4428 -0.4616  0.2230
17737TIP3    H274703   6.105   3.095   3.369  1.6212 -1.0629  0.8081
17738TIP3   OH274704   4.266   6.397  15.898 -0.0769  0.8414  0.4376
17738TIP3    H174705   4.259   6.410  15.993 -0.5883  0.3481  0.4675
17738TIP3    H274706   4.344   6.343  15.888 -0.3747  0.3758  0.6231
17739TIP3   OH274707   6.047   3.577  12.646 -0.6505  0.3105  0.1007
17739TIP3    H174708   6.128   3.564  12.695 -1.7632 -0.9343  1.7180
17739TIP3    H274709   6.063   3.656  12.595  2.9226 -1.7956 -2.5744
17740TIP3   OH274710   6.077   2.987   2.391  0.5809  0.1425 -0.3682
17740TIP3    H174711   6.062   2.892   2.396  4.3250 -0.5295  1.5528
17740TIP3    H274712   6.002   3.025   2.436 -0.3145 -2.0130  0.0998
17741TIP3   OH274713   0.350   3.733   0.294  0.1013 -0.2640  0.6021
17741TIP3    H174714   0.417   3.682   0.248 -0.2081 -0.8269  0.7662
17741TIP3    H274715   0.332   3.806   0.235  0.3670 -0.4831  0.2431
17742TIP3   OH274716   4.954   5.665   4.020  0.2882 -0.0366  0.2921
17742TIP3    H174717   5.024   5.599   4.029 -1.5492 -1.9740  1.2548
17742TIP3    H274718   4.918   5.674   4.108 -1.2833  0.1601 -0.3343
17743TIP3   OH274719   4.294   2.936  12.267  0.2374 -0.3751  0.2342
17743TIP3    H174720   4.366   2.965  12.212 -0.2990 -0.3197 -0.4568
17743TIP3    H274721   4.296   2.994  12.343  0.3413  0.2384 -0.2300
17744TIP3   OH274722   5.190   4.099  13.861 -0.3163  0.2472  0.0563
17744TIP3    H174723   5.245   4.094  13.784 -0.7783  0.9835 -0.3341
17744TIP3    H274724   5.102   4.077  13.830 -0.5178  0.6132  0.3448
17745TIP3   OH274725   6.788   3.492   1.419 -0.0370 -0.4511 -0.1200
17745TIP3    H174726   6.871   3.492   1.466 -0.2566 -1.3907  0.2831
17745TIP3    H274727   6.727   3.447   1.477 -0.8665  0.3246 -0.3588
17746TIP3   OH274728   4.774   3.192  13.583  0.3375 -0.0566 -0.2811
17746TIP3    H174729   4.824   3.269  13.610 -0.4764 -0.0570  1.3794
17746TIP3    H274730   4.834   3.118  13.598  0.3980  0.0815  0.1999
17747TIP3   OH274731   0.876   1.338  16.728 -0.2911  0.0329  0.5385
17747TIP3    H174732   0.964   1.363  16.756 -0.6446 -0.1493  1.8773
17747TIP3    H274733   0.871   1.366  16.636  0.5163  1.7502  0.9752
17748TIP3   OH274734   0.217   1.519  11.367 -0.5485  0.6972 -0.0169
17748TIP3    H174735   0.170   1.531  11.450  0.4095  0.7436  0.5350
17748TIP3    H274736   0.151   1.487  11.306 -0.4470 -3.5521  1.8215
17749TIP3   OH274737   5.312   0.004   0.947  0.0218  0.2827 -0.2576
17749TIP3    H174738   5.279  -0.032   1.029 -0.8654 -0.6615 -1.0242
17749TIP3    H274739   5.238   0.052   0.910  0.3967  0.6364 -0.5605
17750TIP3   OH274740   2.630   2.835  14.731  0.1720  0.6070  0.6662
17750TIP3    H174741   2.656   2.744  14.746  2.4313  1.3361  1.5295
17750TIP3    H274742   2.602   2.866  14.817 -2.5874  0.2247  0.0034
17751TIP3   OH274743   6.467   5.382   6.586 -0.3785 -0.0635 -0.1130
17751TIP3    H174744   6.452   5.403   6.493  0.3167  1.4802  0.0984
17751TIP3    H274745   6.429   5.456   6.633 -0.4546 -0.6962  0.8294
17752TIP3   OH274746   1.780   0.647   2.192  0.8745  0.4945 -0.1177
17752TIP3    H174747   1.762   0.731   2.235  0.8052  0.2551  0.3252
17752TIP3    H274748   1.814   0.592   2.262  0.7384  0.0940 -0.3682
17753TIP3   OH274749   5.085   1.954  12.703  0.7064  0.1086 -0.8741
17753TIP3    H174750   5.068   1.872  12.656  0.0683  0.4678 -1.2881
17753TIP3    H274751   5.179   1.967  12.694  0.7441 -0.3467 -1.2044
17754TIP3   OH274752   4.702   3.149   3.241  0.3608 -0.4199 -0.9233
17754TIP3    H174753   4.641   3.176   3.309  1.0090  1.4614 -1.0496
17754TIP3    H274754   4.770   3.099   3.288  0.0199 -0.4163 -0.4239
17755TIP3   OH274755   6.434   2.315   2.692 -0.2186  0.0622 -0.1918
17755TIP3    H174756   6.409   2.299   2.601 -1.3059  1.0864 -0.0970
17755TIP3    H274757   6.353   2.342   2.735  0.7935  2.3901  0.4005
17756TIP3   OH274758   1.285   1.428  16.556 -0.3158 -0.0454 -1.0075
17756TIP3    H174759   1.331   1.361  16.606 -0.2224  0.5760 -0.2336
17756TIP3    H274760   1.316   1.417  16.466  1.3725  0.3503 -0.5199
17757TIP3   OH274761   6.545   4.897   1.718  0.2628  0.5966  0.3881
17757TIP3    H174762   6.464   4.857   1.685 -0.1442  1.6244  0.1183
17757TIP3    H274763   6.613   4.862   1.661 -0.2064  0.9606 -0.4203
17758TIP3   OH274764   6.424   1.218   4.969  0.2249  0.0158 -0.0033
17758TIP3    H174765   6.423   1.188   5.060 -0.2137  0.3785  0.1126
17758TIP3    H274766   6.395   1.142   4.919  1.2919 -0.4584  0.0687
17759TIP3   OH274767   3.218   4.389   4.195  0.4969 -0.0270  0.0947
17759TIP3    H174768   3.124   4.404   4.205  0.3282 -0.5875 -0.6183
17759TIP3    H274769   3.239   4.328   4.266  0.5353  0.8884  0.8957
17760TIP3   OH274770   3.482   6.334   3.224  0.1324 -0.3366 -0.4871
17760TIP3    H174771   3.573   6.337   3.195  0.5207 -1.7592  0.4985
17760TIP3    H274772   3.438   6.277   3.161  0.4135 -1.3694  0.2309
17761TIP3   OH274773   6.446   0.180  14.428 -0.2152 -0.2100 -0.0829
17761TIP3    H174774   6.468   0.272  14.412  0.2165  0.0058  1.5221
17761TIP3    H274775   6.453   0.138  14.342  0.3460  1.1057 -0.7068
17762TIP3   OH274776   4.961   5.147  17.091  0.0944 -0.0171  0.5992
17762TIP3    H174777   4.996   5.164  17.178 -3.0887  3.8107  1.4511
17762TIP3    H274778   4.998   5.217  17.036 -0.7471 -0.1206 -0.1403
17763TIP3   OH274779   4.823   2.328   0.975  0.5911 -0.2239  0.0293
17763TIP3    H174780   4.861   2.250   0.933 -1.3893 -1.0924 -0.2946
17763TIP3    H274781   4.813   2.391   0.903  1.1532 -0.0960  0.0620
17764TIP3   OH274782   5.313   0.534  14.357 -0.6775  0.2375 -0.1267
17764TIP3    H174783   5.311   0.625  14.326 -0.4603 -0.1986 -1.4564
17764TIP3    H274784   5.401   0.524  14.395 -0.7927  0.6442  0.2609
17765TIP3   OH274785   4.475   4.621   5.380 -0.1385 -0.2914  0.2922
17765TIP3    H174786   4.408   4.557   5.406  0.0182 -0.3846  0.4666
17765TIP3    H274787   4.483   4.679   5.456 -1.4963  0.9672 -0.4655
17766TIP3   OH274788   4.455   0.875   5.160 -0.2459  0.0138 -0.7367
17766TIP3    H174789   4.460   0.890   5.254  2.5822  1.6043 -1.0056
17766TIP3    H274790   4.491   0.787   5.147 -0.5982 -0.1889 -0.3330
17767TIP3   OH274791   6.652   2.112   4.473 -0.2658 -0.1504  0.4896
17767TIP3    H174792   6.655   2.191   4.419 -1.3099  1.1535  2.2450
17767TIP3    H274793   6.744   2.092   4.491  0.0015  1.3775  0.9709
17768TIP3   OH274794   0.763   5.426   1.976 -0.0788 -0.3353 -0.1162
17768TIP3    H174795   0.834   5.487   1.993 -0.1938 -0.5521  1.2403
17768TIP3    H274796   0.689   5.481   1.952  0.2118 -0.0306 -0.3094
17769TIP3   OH274797   2.395   4.261   1.046 -0.2513 -0.3717 -0.1145
17769TIP3    H174798   2.307   4.237   1.073 -0.0755  0.3233  1.1235
17769TIP3    H274799   2.448   4.183   1.064 -0.8000 -1.2662 -2.0725
17770TIP3   OH274800   3.602   5.288   4.185 -0.4387 -0.8021 -0.1424
17770TIP3    H174801   3.561   5.256   4.265 -0.7417  1.3075  0.6176
17770TIP3    H274802   3.694   5.265   4.194 -0.9339 -3.1868 -0.6043
17771TIP3   OH274803   0.222   4.234   3.655 -0.5220  0.7264  0.3360
17771TIP3    H174804   0.255   4.228   3.565  1.5831 -0.5581  1.1347
17771TIP3    H274805   0.243   4.324   3.682  1.8133  0.1673  0.5649
17772TIP3   OH274806   3.381   3.039  14.672 -0.7529 -0.4335  0.8540
17772TIP3    H174807   3.324   3.086  14.611  1.0477  1.2574  0.3655
17772TIP3    H274808   3.419   2.968  14.619 -0.5822 -0.0855  0.5078
17773TIP3   OH274809   3.171   5.359  16.148  0.0685  0.4204  0.9089
17773TIP3    H174810   3.213   5.274  16.150 -0.4785  0.0548 -0.9560
17773TIP3    H274811   3.130   5.368  16.234  1.0922 -0.6775  1.5346
17774TIP3   OH274812   6.691   4.443   0.896  0.3109 -0.1082 -0.0636
17774TIP3    H174813   6.722   4.473   0.811 -0.6681  3.3707  0.6166
17774TIP3    H274814   6.601   4.476   0.901  0.3076 -0.2882  2.2580
17775TIP3   OH274815   4.901   1.516  12.045  0.2944  0.1064 -0.2569
17775TIP3    H174816   4.874   1.450  12.109  0.3149 -1.1022 -1.4376
17775TIP3    H274817   4.850   1.593  12.068 -1.2634 -0.9289 -0.0253
17776TIP3   OH274818   0.913   3.238   1.441 -0.1398 -0.0960  0.0818
17776TIP3    H174819   0.937   3.329   1.455 -0.3130 -0.1343  0.6982
17776TIP3    H274820   0.990   3.197   1.403 -0.4109  0.5319 -1.1622
17777TIP3   OH274821   3.518   4.744   3.351  0.7151 -0.2278  0.2990
17777TIP3    H174822   3.442   4.735   3.409  0.6878  0.3135  0.3508
17777TIP3    H274823   3.481   4.775   3.268  1.0795  2.1398  0.9478
17778TIP3   OH274824   5.245   0.081  16.823  0.2571 -0.3191 -0.0913
17778TIP3    H174825   5.166   0.055  16.774  0.3247 -0.2474 -0.2389
17778TIP3    H274826   5.296   0.133  16.761 -0.7169  1.7447  0.7376
17779TIP3   OH274827   1.178   1.399   0.983 -0.2893 -0.3343 -0.2242
17779TIP3    H174828   1.209   1.419   0.895 -0.6496 -1.5854 -0.6675
17779TIP3    H274829   1.145   1.482   1.016  0.7613  0.3759 -0.8782
17780TIP3   OH274830   2.069   0.408   3.253 -0.1103 -0.2965  0.0733
17780TIP3    H174831   2.092   0.419   3.161 -0.3790 -1.9001 -0.2047
17780TIP3    H274832   2.125   0.471   3.299  2.8473 -2.0260 -0.8365
17781TIP3   OH274833   4.651   6.175   4.459 -0.4674 -0.1912 -0.2779
17781TIP3    H174834   4.720   6.234   4.490 -1.2354  2.1595 -2.6281
17781TIP3    H274835   4.589   6.171   4.531 -0.0579  1.3926  0.2030
17782TIP3   OH274836   2.901   0.384  13.164  0.0405 -0.3684  0.2993
17782TIP3    H174837   2.832   0.448  13.184  0.1228 -0.0125 -0.5058
17782TIP3    H274838   2.983   0.432  13.176  0.0876  0.4715 -2.6301
17783TIP3   OH274839   0.116   0.821  11.928  0.3505 -0.6482 -1.5001
17783TIP3    H174840   0.186   0.868  11.974 -0.8281  1.4891 -1.7740
17783TIP3    H274841   0.102   0.742  11.981  1.2753  0.1155 -0.0436
17784TIP3   OH274842   5.882   2.538   4.846 -0.1075  0.7450  0.9493
17784TIP3    H174843   5.887   2.619   4.896 -2.2057  0.6265  1.4275
17784TIP3    H274844   5.805   2.493   4.881  1.2782 -1.7226  1.0647
17785TIP3   OH274845   1.705   0.336   5.643  0.5118  0.1704  0.3790
17785TIP3    H174846   1.786   0.385   5.654  1.6144 -1.6557  0.8138
17785TIP3    H274847   1.702   0.277   5.718 -1.2888  0.2702  0.4297
17786TIP3   OH274848   1.943   3.596   4.930 -0.0394 -0.0479  0.4180
17786TIP3    H174849   1.901   3.510   4.926  2.5916 -1.3790 -1.5732
17786TIP3    H274850   1.976   3.602   5.020 -0.5749 -0.9299  0.6888
17787TIP3   OH274851   2.618   0.531   1.267  0.7766 -0.1921  0.0141
17787TIP3    H174852   2.676   0.520   1.191  0.2892  0.5609 -0.4894
17787TIP3    H274853   2.652   0.609   1.311 -0.1056  0.5309 -0.5440
17788TIP3   OH274854   3.326   1.441  12.451  0.0988  0.0738  0.1165
17788TIP3    H174855   3.394   1.374  12.462  0.4188  0.2113 -0.9022
17788TIP3    H274856   3.365   1.520  12.487  1.0349  0.4619 -1.6018
17789TIP3   OH274857   3.687   3.718   3.539 -0.1786  0.3880 -0.4926
17789TIP3    H174858   3.600   3.704   3.501 -0.0205 -1.1504 -0.3495
17789TIP3    H274859   3.694   3.653   3.608  1.2338  0.2332 -0.7487
17790TIP3   OH274860   1.276   2.428   2.312 -0.2134 -0.0564 -0.2081
17790TIP3    H174861   1.287   2.371   2.236 -0.0455 -1.4424  0.8042
17790TIP3    H274862   1.239   2.370   2.379  0.0758  1.0177  0.9024
17791TIP3   OH274863   5.010   3.722  12.671  0.0769 -0.2718  0.0286
17791TIP3    H174864   4.962   3.639  12.670  0.8593 -0.7356  0.2532
17791TIP3    H274865   5.102   3.697  12.676  0.4092  0.5798 -1.2835
17792TIP3   OH274866   6.243   1.081  14.964 -0.1726  0.3876 -0.4730
17792TIP3    H174867   6.235   1.132  14.883 -0.7625  1.1827  0.0629
17792TIP3    H274868   6.284   1.142  15.026 -0.0084 -0.1076 -0.0937
17793TIP3   OH274869   5.898   0.437  13.695  0.4257 -0.1731 -0.8548
17793TIP3    H174870   5.898   0.533  13.700  1.1615 -0.2025  0.5409
17793TIP3    H274871   5.953   0.417  13.620  0.3640  0.5025 -1.0890
17794TIP3   OH274872   4.448   3.402  11.582  0.3823  0.9530 -0.4233
17794TIP3    H174873   4.467   3.487  11.544 -1.5914  1.1302 -1.1380
17794TIP3    H274874   4.392   3.359  11.517  0.3149 -0.3866  0.4862
17795TIP3   OH274875   0.691   6.711  12.873  0.2264  0.0519  0.7487
17795TIP3    H174876   0.643   6.744  12.797  0.7484 -0.7095  0.0775
17795TIP3    H274877   0.624   6.702  12.942 -0.3507  0.2279  0.2199
17796TIP3   OH274878   6.491   6.293  16.980  0.4336  0.0046  0.4127
17796TIP3    H174879   6.487   6.207  17.020  0.0988 -0.5964 -0.8437
17796TIP3    H274880   6.483   6.354  17.053 -3.2163 -0.9929  1.0741
17797TIP3   OH274881   2.655   4.371   4.212  0.8019 -0.8286 -0.1997
17797TIP3    H174882   2.591   4.328   4.269  0.9178 -0.6005  0.1033
17797TIP3    H274883   2.683   4.302   4.151 -3.0892  0.0254 -3.3908
17798TIP3   OH274884   1.325   3.639  17.097 -0.2351 -0.2211  0.2110
17798TIP3    H174885   1.263   3.571  17.070 -2.3796  2.3503 -1.9953
17798TIP3    H274886   1.397   3.632  17.034  0.3572 -1.3466  0.9699
17799TIP3   OH274887   2.185   3.609   4.147 -0.1026 -0.3840  0.5600
17799TIP3    H174888   2.260   3.559   4.115 -0.4718  0.1853 -1.2794
17799TIP3    H274889   2.115   3.544   4.158  0.1237 -0.6336  0.5418
17800TIP3   OH274890   0.578   1.970   4.349 -0.0506  0.0786 -0.6435
17800TIP3    H174891   0.556   1.910   4.279  1.5117  0.1510 -1.2283
17800TIP3    H274892   0.597   2.053   4.305  0.0085  0.3892 -0.0466
17801TIP3   OH274893   1.350   3.618   5.744 -0.0138  0.8387  0.0395
17801TIP3    H174894   1.398   3.574   5.815  0.1552 -1.0296 -1.1824
17801TIP3    H274895   1.264   3.578   5.745 -0.2429  1.3123 -0.3623
17802TIP3   OH274896   2.608   4.163  13.342  0.2238 -0.1512 -0.5296
17802TIP3    H174897   2.602   4.244  13.393 -0.3608 -0.8435  0.5385
17802TIP3    H274898   2.701   4.141  13.343  0.0453 -0.9633  1.5825
17803TIP3   OH274899   3.387   5.921   3.965  0.7043  0.2460 -0.7696
17803TIP3    H174900   3.409   6.008   3.932  1.6036  0.1651 -0.4089
17803TIP3    H274901   3.449   5.863   3.921 -0.3267 -0.3126 -1.5216
17804TIP3   OH274902   6.566   1.628   1.987  0.0630  0.1284  0.5144
17804TIP3    H174903   6.480   1.596   1.959 -1.0736  1.4145  2.3504
17804TIP3    H274904   6.596   1.563   2.051  1.7252 -1.6875 -1.8657
17805TIP3   OH274905   4.589   5.610   0.850 -0.1733  0.5282  0.4198
17805TIP3    H174906   4.630   5.681   0.899  0.2431  1.9976 -1.9043
17805TIP3    H274907   4.496   5.618   0.868 -0.1162  1.6099  0.2764
17806TIP3   OH274908   6.285   5.636   2.176  0.6054 -0.0225 -0.3277
17806TIP3    H174909   6.287   5.619   2.082  1.5380 -0.5284 -0.2205
17806TIP3    H274910   6.354   5.581   2.212  0.9872  0.9839  0.5189
17807TIP3   OH274911   4.513   1.891   2.480  0.1731 -0.0245  0.4871
17807TIP3    H174912   4.571   1.916   2.551  0.9021  0.9189 -0.4037
17807TIP3    H274913   4.570   1.884   2.404 -0.4975 -1.5581  0.0885
17808TIP3   OH274914   3.042   0.423  15.342  0.1998 -0.2769  0.2780
17808TIP3    H174915   3.008   0.507  15.375  0.4853 -0.6387  1.5576
17808TIP3    H274916   3.096   0.390  15.413 -0.4144 -1.8513  0.0426
17809TIP3   OH274917   0.543   3.720  12.767  0.1700  0.7023  0.5094
17809TIP3    H174918   0.544   3.701  12.861  0.2140 -1.6163  0.1151
17809TIP3    H274919   0.464   3.773  12.754 -0.4783  0.0684  1.7060
17810TIP3   OH274920   4.198   3.283  16.875 -0.3694  0.3970 -0.4228
17810TIP3    H174921   4.258   3.217  16.839  0.4318 -0.6157  2.5153
17810TIP3    H274922   4.197   3.352  16.808  2.2346 -0.5984 -1.6470
17811TIP3   OH274923   6.496   4.606   2.103 -0.2117 -0.5349  0.0665
17811TIP3    H174924   6.584   4.580   2.130 -0.4177 -1.2069  0.1036
17811TIP3    H274925   6.480   4.688   2.149 -0.0726 -1.0247  1.0003
17812TIP3   OH274926   0.087   1.580   1.684  0.2747 -0.1285  0.0960
17812TIP3    H174927  -0.001   1.606   1.710  0.1105  0.4030 -0.9238
17812TIP3    H274928   0.144   1.624   1.747 -0.2164 -4.3848  4.0195
17813TIP3   OH274929   4.536   3.540   2.413 -0.1584  0.1355 -0.4762
17813TIP3    H174930   4.567   3.619   2.457  1.0746 -0.2480 -0.6171
17813TIP3    H274931   4.580   3.540   2.328  1.0079 -1.4257  0.0890
17814TIP3   OH274932   3.165   3.775   0.554 -0.2865 -0.0450  0.6279
17814TIP3    H174933   3.163   3.858   0.507 -1.1139 -0.0379  0.6575
17814TIP3    H274934   3.175   3.708   0.486  1.3124  0.1100  0.6700
17815TIP3   OH274935   2.206   5.935   4.144  0.4441 -0.6721 -0.3675
17815TIP3    H174936   2.111   5.933   4.129  0.7208  1.6438 -3.1243
17815TIP3    H274937   2.242   5.875   4.079  0.9444 -0.9249  0.1325
17816TIP3   OH274938   0.581   2.306   5.430  0.1920  0.0444 -0.2939
17816TIP3    H174939   0.608   2.306   5.339 -2.2092  1.5041 -1.0904
17816TIP3    H274940   0.548   2.394   5.446 -2.2471 -1.0118  1.0598
17817TIP3   OH274941   2.470   3.885  10.556 -0.0768 -0.7050  0.1725
17817TIP3    H174942   2.384   3.923  10.572 -0.2261 -0.7647 -0.4698
17817TIP3    H274943   2.526   3.961  10.537 -0.5779 -0.8358 -2.0324
17818TIP3   OH274944   1.965   4.686  10.871 -0.1562 -0.1135 -0.9848
17818TIP3    H174945   1.963   4.770  10.917 -0.8032  0.1123 -1.4041
17818TIP3    H274946   2.010   4.705  10.788 -0.5907 -0.0987 -1.2215
17819TIP3   OH274947   2.725   0.520  12.840  0.3802  0.4597 -0.5721
17819TIP3    H174948   2.808   0.554  12.872  0.6376 -0.0973 -0.6420
17819TIP3    H274949   2.661   0.547  12.907  0.8871 -0.5701  0.3528
17820TIP3   OH274950   4.412   2.839  11.973 -0.6420  0.0319 -0.1413
17820TIP3    H174951   4.485   2.888  12.008  0.8527 -2.2161  0.0940
17820TIP3    H274952   4.379   2.788  12.047 -0.1265 -1.6358 -1.0121
17821TIP3   OH274953   4.652   2.937   2.178  0.2782  0.1096  0.0247
17821TIP3    H174954   4.575   2.993   2.175 -0.4164 -0.8387 -1.8788
17821TIP3    H274955   4.726   2.995   2.157  0.0675  0.9515  1.5233
17822TIP3   OH274956   6.592   6.395  14.187 -0.1808 -0.2153  0.4604
17822TIP3    H174957   6.678   6.354  14.200 -1.0860 -2.2556  0.4098
17822TIP3    H274958   6.586   6.407  14.092  0.0999  0.0446  0.4749
17823TIP3   OH274959   1.044   2.439  14.606 -0.4371 -0.6271 -0.1746
17823TIP3    H174960   1.026   2.531  14.625 -0.7745 -0.6644 -0.3112
17823TIP3    H274961   1.062   2.400  14.692  1.7739 -0.0123 -0.2780
17824TIP3   OH274962   2.319   0.154  13.786  0.2344 -0.0912  0.5023
17824TIP3    H174963   2.386   0.132  13.722 -0.1038 -0.7156  0.3592
17824TIP3    H274964   2.238   0.156  13.736  0.1456  0.6798  0.6717
17825TIP3   OH274965   4.571   0.169   5.146 -0.6423 -0.1746  0.4512
17825TIP3    H174966   4.615   0.178   5.061 -0.6508  1.3693  0.5798
17825TIP3    H274967   4.636   0.197   5.210 -1.4110  1.0706  0.7290
17826TIP3   OH274968   3.196   0.722  13.447  0.0220 -0.8227  0.7401
17826TIP3    H174969   3.270   0.678  13.489  1.2416 -1.5425 -1.9085
17826TIP3    H274970   3.148   0.652  13.403 -0.5317 -0.0292  0.0514
17827TIP3   OH274971   2.160   6.199  11.926 -0.0032  0.3716  0.1975
17827TIP3    H174972   2.252   6.204  11.952  0.8147 -2.2681 -1.7054
17827TIP3    H274973   2.156   6.124  11.867 -3.4210  0.3810  0.2148
17828TIP3   OH274974   5.514   3.358  12.469 -0.9958 -0.1909 -0.4047
17828TIP3    H174975   5.514   3.417  12.544 -2.4925 -0.2512 -0.3373
17828TIP3    H274976   5.498   3.271  12.507 -0.9220 -0.3427 -0.7175
17829TIP3   OH274977   3.226   6.790   1.232  0.0323  0.0709  0.4253
17829TIP3    H174978   3.154   6.728   1.241  1.2613 -1.4676  0.1380
17829TIP3    H274979   3.190   6.874   1.261 -1.7902 -0.6900  0.4722
17830TIP3   OH274980   5.899   4.005  11.728 -0.4829 -0.2168  0.3814
17830TIP3    H174981   5.848   4.048  11.796  0.3421  0.5873  0.5062
17830TIP3    H274982   5.874   4.050  11.647  0.6680  0.7990  0.5651
17831TIP3   OH274983   3.535   3.442  14.301 -0.4487 -0.3414  0.5076
17831TIP3    H174984   3.535   3.416  14.209  1.8225  0.1328  0.3035
17831TIP3    H274985   3.483   3.375  14.345 -1.6964 -0.5061 -1.1115
17832TIP3   OH274986   3.584   1.994   1.779  0.2562 -0.1493 -0.0622
17832TIP3    H174987   3.628   1.927   1.831 -2.0779 -2.6897 -1.1315
17832TIP3    H274988   3.614   2.077   1.816  2.9652 -1.7380  1.6129
17833TIP3   OH274989   0.894   4.162   2.877  0.5176 -0.2504 -0.4076
17833TIP3    H174990   0.987   4.180   2.869  0.1738  1.8310 -0.3948
17833TIP3    H274991   0.889   4.077   2.921  2.3888 -0.4691 -0.5438
17834TIP3   OH274992   5.002   1.569  10.692 -0.2406 -0.4896  0.8243
17834TIP3    H174993   4.964   1.483  10.673 -1.5098  0.3522 -0.6427
17834TIP3    H274994   4.928   1.628  10.697  0.7622  1.0298 -1.0908
17835TIP3   OH274995   0.240   0.766   2.918  0.4979  0.3021 -0.3003
17835TIP3    H174996   0.170   0.718   2.875  0.9482 -3.3949  2.5517
17835TIP3    H274997   0.196   0.819   2.985  0.2559 -2.4734  1.8951
17836TIP3   OH274998   2.945   5.631  12.662 -0.1187  0.5343 -0.3655
17836TIP3    H174999   2.898   5.553  12.691  2.2213 -0.3221  1.4138
17836TIP3    H275000   3.002   5.599  12.592  1.9447  0.2152  1.3707
17837TIP3   OH275001   5.261   5.940   2.692 -0.1975 -0.1130  0.3389
17837TIP3    H175002   5.210   6.018   2.672  0.6127  0.3697  0.1228
17837TIP3    H275003   5.251   5.884   2.615  0.4960  0.4603 -0.1765
17838TIP3   OH275004   5.529   0.208  16.179  0.7669 -0.8983 -0.3095
17838TIP3    H175005   5.566   0.125  16.210  0.4484 -1.0879 -0.4394
17838TIP3    H275006   5.441   0.186  16.151  0.3231 -0.3295  0.5719
17839TIP3   OH275007   2.485   3.232  15.945 -0.0312 -0.6127 -0.3336
17839TIP3    H175008   2.416   3.166  15.936  0.2088 -0.7398 -1.3871
17839TIP3    H275009   2.499   3.239  16.039 -0.6169 -1.4854 -0.1659
17840TIP3   OH275010   5.265   3.084   2.908  0.2322 -0.5902  0.5349
17840TIP3    H175011   5.199   3.069   2.975  0.3496 -0.0614  0.7762
17840TIP3    H275012   5.333   3.019   2.927 -1.1694 -2.6550 -1.0489
17841TIP3   OH275013   1.438   4.446  15.838 -0.0921 -1.0832  0.2723
17841TIP3    H175014   1.457   4.461  15.930 -2.1852 -0.9233  0.7437
17841TIP3    H275015   1.392   4.362  15.836 -0.1678 -1.0291 -0.6083
17842TIP3   OH275016   6.223   1.073  15.739  0.6722 -0.6229 -0.2459
17842TIP3    H175017   6.244   1.111  15.824  1.0849 -0.7489 -0.2914
17842TIP3    H275018   6.129   1.057  15.743  1.1275 -3.6649  1.4321
17843TIP3   OH275019   0.393   3.158   3.354 -0.0365 -0.1457  0.0916
17843TIP3    H175020   0.479   3.136   3.318  0.5327 -0.8375  1.7609
17843TIP3    H275021   0.411   3.186   3.444 -1.6074 -0.7258  0.6232
17844TIP3   OH275022   0.839   0.518  11.858  0.1573  0.2412 -0.0742
17844TIP3    H175023   0.920   0.524  11.808 -0.9264  1.4131 -1.8150
17844TIP3    H275024   0.781   0.465  11.803 -0.4512 -0.0670  0.8524
17845TIP3   OH275025   4.776   3.546   2.627  0.1762 -0.2280 -0.0268
17845TIP3    H175026   4.750   3.584   2.543 -1.5283 -2.5291 -0.6067
17845TIP3    H275027   4.714   3.582   2.690  1.0701  1.0074  0.1921
17846TIP3   OH275028   1.614   6.480  11.556  0.4267 -0.6754 -0.5677
17846TIP3    H175029   1.525   6.447  11.554 -1.5270  3.6334  1.8321
17846TIP3    H275030   1.624   6.528  11.474  0.0182 -0.0354 -0.2443
17847TIP3   OH275031   3.232   5.651  13.870 -0.2224  0.3557 -0.4228
17847TIP3    H175032   3.144   5.656  13.908  0.1758  1.9097  0.4080
17847TIP3    H275033   3.288   5.695  13.934  1.3703 -1.5063 -0.4208
17848TIP3   OH275034   0.365   4.891  15.313  0.3022 -0.1493  0.1570
17848TIP3    H175035   0.415   4.825  15.265  1.1012  0.4650  0.1406
17848TIP3    H275036   0.410   4.899  15.397 -0.6231 -0.6384  0.7281
17849TIP3   OH275037   3.131   1.445  16.557  0.0810 -0.2672 -0.3246
17849TIP3    H175038   3.074   1.404  16.622  0.9034 -1.3489 -0.2562
17849TIP3    H275039   3.218   1.409  16.575  0.4480 -0.0706 -1.5975
17850TIP3   OH275040   4.448   0.960   2.823  0.3895  0.0923 -0.0506
17850TIP3    H175041   4.497   0.993   2.747  0.2641 -0.5521 -0.4270
17850TIP3    H275042   4.427   0.869   2.799  1.8568 -0.7069  1.4808
17851TIP3   OH275043   0.202   5.458  14.655 -0.2042 -0.4603 -0.3782
17851TIP3    H175044   0.172   5.525  14.594  2.4501 -0.2737 -1.6175
17851TIP3    H275045   0.213   5.504  14.739 -2.9424 -0.5059  0.0970
17852TIP3   OH275046   4.909   5.485  15.433  0.1978 -0.4923 -0.1510
17852TIP3    H175047   4.911   5.498  15.528  0.4921  1.1499 -0.3511
17852TIP3    H275048   4.816   5.472  15.412  0.1351 -0.8911  0.3493
17853TIP3   OH275049   1.885   4.952  16.107  0.5223  0.4852 -0.0120
17853TIP3    H175050   1.929   4.887  16.053  1.4963  0.7090  0.4946
17853TIP3    H275051   1.866   4.906  16.189 -0.9276  0.1530 -0.5058
17854TIP3   OH275052   3.214   5.811   1.383 -0.5216  0.1475 -0.3847
17854TIP3    H175053   3.212   5.744   1.451 -0.7078  1.0513  0.5144
17854TIP3    H275054   3.296   5.857   1.397 -1.6125  1.8579  0.7613
17855TIP3   OH275055   3.118   5.041  11.546 -0.2240  0.2733  0.0577
17855TIP3    H175056   3.209   5.055  11.519 -0.8556  0.0163 -2.4431
17855TIP3    H275057   3.097   5.118  11.599  0.7398  1.5700 -1.3499
17856TIP3   OH275058   2.154   6.337   2.057  0.3538  0.0793  0.2897
17856TIP3    H175059   2.241   6.375   2.049 -0.2388  1.3497 -0.6384
17856TIP3    H275060   2.157   6.259   2.002  0.4529  1.0540 -1.1750
17857TIP3   OH275061   3.527   6.210   2.073  0.3659  0.1788  0.6654
17857TIP3    H175062   3.488   6.280   2.125 -0.5374 -1.0190  1.6661
17857TIP3    H275063   3.584   6.164   2.135  2.7070  1.2956 -0.5245
17858TIP3   OH275064   2.959   0.037   1.761  0.4452 -0.1504 -0.7171
17858TIP3    H175065   2.867   0.012   1.762  0.6402 -0.8787  0.1476
17858TIP3    H275066   2.984   0.031   1.669 -0.0423 -1.2440 -0.7970
17859TIP3   OH275067   4.318   4.741  13.334  0.0533  0.1065 -0.1740
17859TIP3    H175068   4.278   4.771  13.416  0.8929 -0.4511  0.4525
17859TIP3    H275069   4.296   4.809  13.270 -1.0557  0.2861  0.3837
17860TIP3   OH275070   4.575   2.114   4.284 -0.5662  0.0422 -0.3412
17860TIP3    H175071   4.521   2.148   4.213 -0.6404  0.0795 -0.2681
17860TIP3    H275072   4.518   2.052   4.330 -0.6546  0.3196 -0.0718
17861TIP3   OH275073   4.124   2.287   2.890 -0.4302 -0.5905 -0.0261
17861TIP3    H175074   4.030   2.285   2.872 -0.4366 -0.5504  0.0011
17861TIP3    H275075   4.137   2.224   2.960 -0.7667  0.9107  1.4594
17862TIP3   OH275076   6.376   0.086  17.023 -0.4361 -0.2522 -0.0693
17862TIP3    H175077   6.449   0.142  17.050 -0.2164 -1.0438  1.0634
17862TIP3    H275078   6.380   0.086  16.927 -1.2711  2.7094 -0.2093
17863TIP3   OH275079   1.974   1.909   0.355  0.1790  0.1720  0.1749
17863TIP3    H175080   2.000   1.991   0.397  0.1931  0.1646  0.1808
17863TIP3    H275081   2.026   1.842   0.400 -0.5567  0.0398  0.8519
17864TIP3   OH275082   6.311   0.531   6.070 -0.0426 -0.2693  0.6883
17864TIP3    H175083   6.224   0.572   6.072  0.4211  0.9897 -1.8180
17864TIP3    H275084   6.359   0.574   6.140 -1.0386 -0.0277  1.2486
17865TIP3   OH275085   4.978   5.795  15.538 -0.1609 -0.0463 -0.4704
17865TIP3    H175086   5.059   5.795  15.589 -0.0799 -1.6332 -0.5640
17865TIP3    H275087   5.005   5.771  15.449 -0.4691  1.5038 -1.0212
17866TIP3   OH275088   2.571   6.363   6.164 -0.1317  0.7352 -0.7975
17866TIP3    H175089   2.535   6.301   6.228 -0.6468 -0.9373 -2.6205
17866TIP3    H275090   2.544   6.449   6.197  0.1339  0.0120  1.5255
17867TIP3   OH275091   1.692   0.140  17.071  0.0475  0.5041 -0.0555
17867TIP3    H175092   1.776   0.180  17.051 -0.3765  1.5210  0.1447
17867TIP3    H275093   1.629   0.212  17.067 -1.0622 -0.4913 -1.6950
17868TIP3   OH275094   3.184   6.056   5.053 -0.5045  0.5456  0.0680
17868TIP3    H175095   3.251   6.065   4.986  0.7386  2.4468  1.4626
17868TIP3    H275096   3.135   5.977   5.028  1.2258  0.0036 -1.8567
17869TIP3   OH275097   4.386   0.010  12.201 -0.2716  0.1301 -0.1836
17869TIP3    H175098   4.303  -0.012  12.244 -1.1697  1.0557 -1.3624
17869TIP3    H275099   4.362   0.023  12.109  1.3558 -0.4907 -0.7163
17870TIP3   OH275100   1.536   0.822   5.409 -0.0710  0.4136  0.2368
17870TIP3    H175101   1.523   0.868   5.326  0.6826 -0.0644 -0.1576
17870TIP3    H275102   1.545   0.892   5.474 -0.9034  0.7894 -0.0311
17871TIP3   OH275103   4.942   4.809  12.456 -0.1012 -0.0621  0.1622
17871TIP3    H175104   4.914   4.845  12.372  0.0676  1.0316  0.5671
17871TIP3    H275105   4.887   4.853  12.521  3.3326  3.2276  1.1401
17872TIP3   OH275106   4.387   6.087   3.481  0.3297  0.1421 -0.1037
17872TIP3    H175107   4.443   6.149   3.527 -0.7444 -0.6474  2.4523
17872TIP3    H275108   4.298   6.108   3.510 -0.3450 -0.8684 -1.3123
17873TIP3   OH275109   4.867   4.287  16.300 -0.8270  0.4948 -0.2191
17873TIP3    H175110   4.899   4.212  16.250  0.6954  0.9243  0.0788
17873TIP3    H275111   4.827   4.344  16.234  0.0693  0.4876 -0.7780
17874TIP3   OH275112   3.828   1.609  12.976  0.2725  0.5657 -0.6043
17874TIP3    H175113   3.843   1.529  13.026 -3.2802  0.3230  0.3424
17874TIP3    H275114   3.889   1.673  13.012  0.8304 -0.7988  0.9707
17875TIP3   OH275115   4.169   2.201  15.188 -0.6077 -0.4939  0.1360
17875TIP3    H175116   4.238   2.230  15.248  0.3521 -2.9733  0.3478
17875TIP3    H275117   4.095   2.179  15.245 -1.7772  2.3717 -0.1050
17876TIP3   OH275118   4.525   3.415  16.629 -0.3239  0.3795 -0.1978
17876TIP3    H175119   4.609   3.379  16.601 -0.7085  0.9014 -2.1859
17876TIP3    H275120   4.546   3.503  16.661 -0.2116  0.9738 -1.8046
17877TIP3   OH275121   1.151   3.578   5.363 -0.5790  0.4930 -0.0802
17877TIP3    H175122   1.221   3.640   5.379  0.5863 -0.7011 -0.4161
17877TIP3    H275123   1.112   3.563   5.450  0.1196  0.5354  0.2424
17878TIP3   OH275124   1.751   1.268  11.542  0.1763  0.0550  0.3362
17878TIP3    H175125   1.658   1.253  11.521 -0.3314  0.3734  2.1837
17878TIP3    H275126   1.755   1.360  11.569  1.2335  0.3116 -0.6077
17879TIP3   OH275127   3.905   1.937   6.172 -0.3172 -0.3437  0.3879
17879TIP3    H175128   3.928   1.882   6.247  0.5340 -0.1705  0.2725
17879TIP3    H275129   3.877   2.020   6.211 -0.9702 -0.6279  0.5408
17880TIP3   OH275130   6.082   0.729   2.210  0.1849  0.1615  0.1853
17880TIP3    H175131   6.007   0.696   2.259 -2.1123  0.9867 -2.5137
17880TIP3    H275132   6.099   0.816   2.246  0.7308 -0.5224  1.6471
17881TIP3   OH275133   1.279   5.678  14.997 -0.1083 -0.4853  0.2712
17881TIP3    H175134   1.326   5.665  14.914  0.2146  0.0690  0.3669
17881TIP3    H275135   1.303   5.601  15.049  1.9713  0.5353  0.9122
17882TIP3   OH275136   5.958   3.861  15.800 -0.1084 -0.2465 -0.1728
17882TIP3    H175137   5.937   3.866  15.893  1.4503 -1.1793  0.2616
17882TIP3    H275138   6.047   3.824  15.797 -0.3536 -0.7800 -2.0478
17883TIP3   OH275139   6.033   3.080  16.975  0.0007 -0.6738  0.4379
17883TIP3    H175140   6.038   2.988  17.002 -0.5039 -0.5405  0.9926
17883TIP3    H275141   6.124   3.105  16.958  0.1540 -1.2406  0.4015
17884TIP3   OH275142   3.467   4.647  16.463  0.1091  0.1499 -0.2835
17884TIP3    H175143   3.401   4.579  16.452 -0.1574  0.6702 -2.2217
17884TIP3    H275144   3.467   4.695  16.380  0.1101  2.6660  1.0570
17885TIP3   OH275145   2.293   2.026  15.301  0.3098 -0.4862  0.3599
17885TIP3    H175146   2.381   1.994  15.283  0.6108 -0.0650  1.0688
17885TIP3    H275147   2.248   2.022  15.216  0.8090 -1.3142  0.1260
17886TIP3   OH275148   3.260   3.425  12.346 -0.3551  0.4550  0.0601
17886TIP3    H175149   3.336   3.480  12.361  0.4115 -0.6121  0.2341
17886TIP3    H275150   3.214   3.424  12.430  0.4706 -0.3987  0.5146
17887TIP3   OH275151   6.008   5.088   4.911  0.1971 -0.0235 -0.1412
17887TIP3    H175152   5.961   5.122   4.987 -0.7606 -0.3466 -0.5653
17887TIP3    H275153   5.950   5.108   4.837 -0.7284 -3.0780 -0.3565
17888TIP3   OH275154   1.367   0.096  12.066 -0.3629 -0.0474  0.0022
17888TIP3    H175155   1.411   0.052  11.993 -0.4646 -1.1565  0.5920
17888TIP3    H275156   1.283   0.124  12.030 -0.7540 -1.3051 -0.1077
17889TIP3   OH275157   1.530   5.645  12.569  0.2481 -0.6933 -0.5180
17889TIP3    H175158   1.465   5.683  12.628  2.2216  1.4651  0.4350
17889TIP3    H275159   1.522   5.696  12.488  0.8209 -0.2921 -0.3337
17890TIP3   OH275160   5.984   0.043  13.293 -0.2657  0.2041 -0.7333
17890TIP3    H175161   5.932  -0.028  13.330  1.3970 -0.1750  1.0153
17890TIP3    H275162   6.032   0.001  13.221 -0.2817 -0.1264 -0.5555
17891TIP3   OH275163   6.061   3.430  11.221 -0.1821 -0.5194  0.5879
17891TIP3    H175164   6.020   3.402  11.139 -0.3530 -0.7414  0.7525
17891TIP3    H275165   6.005   3.501  11.253 -1.1028 -1.6121  1.4266
17892TIP3   OH275166   1.539   4.302   6.715  0.0725 -0.1711 -0.0009
17892TIP3    H175167   1.494   4.219   6.734  0.8229 -0.7165 -0.5019
17892TIP3    H275168   1.593   4.281   6.639  0.5413  0.6936  0.0931
17893TIP3   OH275169   3.510   2.482  15.081 -0.3560 -0.1053  0.3453
17893TIP3    H175170   3.578   2.414  15.074 -0.0570  0.1711  0.5417
17893TIP3    H275171   3.428   2.433  15.079 -0.1831 -0.3709 -0.8454
17894TIP3   OH275172   3.909   0.348  14.136  0.0148 -0.1307 -0.4548
17894TIP3    H175173   3.851   0.358  14.060  1.3262 -0.9179 -1.6085
17894TIP3    H275174   3.850   0.325  14.208 -1.7231  4.0051 -0.2985
17895TIP3   OH275175   3.889   3.588   5.982 -0.0470 -0.2826 -0.8904
17895TIP3    H175176   3.920   3.524   6.046 -1.1601 -1.3752 -1.3931
17895TIP3    H275177   3.900   3.672   6.025  1.7034 -0.7791 -0.3069
17896TIP3   OH275178   3.226   3.393  11.924  0.2590  0.0956 -0.0800
17896TIP3    H175179   3.236   3.421  11.833 -1.0094 -1.6918 -0.8205
17896TIP3    H275180   3.177   3.311  11.919 -0.5494  0.3645  2.2801
17897TIP3   OH275181   0.677   5.697   4.717 -0.4990 -0.0696  0.1016
17897TIP3    H175182   0.716   5.647   4.789 -2.5273 -1.9350 -0.0006
17897TIP3    H275183   0.744   5.698   4.649  1.0855  0.8889  1.6093
17898TIP3   OH275184   3.967   6.668  14.552  0.0703  0.2672  0.1957
17898TIP3    H175185   3.955   6.579  14.519  0.0753  0.8840 -1.5682
17898TIP3    H275186   4.002   6.717  14.477 -2.0734  2.2924  0.3898
17899TIP3   OH275187   1.967   2.222   2.016  0.3935 -0.5282  0.6972
17899TIP3    H175188   2.048   2.203   2.064  0.6252  0.6229  0.7973
17899TIP3    H275189   1.902   2.234   2.085  0.7605  1.2865  0.7931
17900TIP3   OH275190   3.537   0.997  11.231 -0.4251 -0.1104 -0.2891
17900TIP3    H175191   3.483   0.961  11.301 -0.6171 -1.8268 -1.2292
17900TIP3    H275192   3.486   1.070  11.195 -1.3307 -0.6049 -0.0348
17901TIP3   OH275193   4.382   0.825  13.950 -0.1667  0.4461  0.4357
17901TIP3    H175194   4.413   0.735  13.941  0.9071  0.9791 -1.5049
17901TIP3    H275195   4.312   0.833  13.885  1.5919  1.7563 -1.4043
17902TIP3   OH275196   3.014   1.561  11.862 -0.0610  0.2230 -0.1838
17902TIP3    H175197   3.097   1.601  11.886  1.0846 -2.5928  0.9656
17902TIP3    H275198   2.967   1.553  11.945 -0.8349  0.3508 -0.5988
17903TIP3   OH275199   6.460   4.066  16.398 -0.6229  0.4131 -0.5659
17903TIP3    H175200   6.372   4.031  16.412 -0.5936 -0.0800 -1.5686
17903TIP3    H275201   6.453   4.122  16.321 -0.1995  0.9464 -0.2353
17904TIP3   OH275202   4.244   3.319  13.396 -0.0867 -0.0054 -0.6826
17904TIP3    H175203   4.255   3.235  13.441  1.3297  0.9065  0.7587
17904TIP3    H275204   4.193   3.297  13.318 -1.0125 -1.9604  0.3880
17905TIP3   OH275205   3.019   6.607   2.190  0.0446  0.1000  0.2982
17905TIP3    H175206   3.031   6.700   2.171 -0.1870  0.4992  1.9357
17905TIP3    H275207   2.949   6.580   2.131  0.1380  0.9521 -0.2289
17906TIP3   OH275208   3.569   1.015   1.432 -0.4566  0.0143  0.1556
17906TIP3    H175209   3.494   0.956   1.434  0.1002 -0.6653  1.1741
17906TIP3    H275210   3.548   1.083   1.496 -0.2713 -0.0806  0.3156
17907TIP3   OH275211   6.409   1.975   4.930  0.0482  0.2368  0.4319
17907TIP3    H175212   6.468   1.926   4.987 -1.2517  0.3669  1.9579
17907TIP3    H275213   6.467   2.018   4.867  1.6627  0.9217  2.2747
17908TIP3   OH275214   4.574   0.876   2.315  0.8765  0.5565  0.0751
17908TIP3    H175215   4.654   0.926   2.296  1.8467 -1.2816 -0.9605
17908TIP3    H275216   4.584   0.795   2.264 -0.4278 -0.8821  1.9746
17909TIP3   OH275217   3.919   1.519  10.581  0.0850 -0.5301 -0.2602
17909TIP3    H175218   3.976   1.528  10.504 -0.0313 -0.2711 -0.3168
17909TIP3    H275219   3.888   1.608  10.598 -1.7797 -0.9147 -1.3390
17910TIP3   OH275220   5.739   2.460   5.398  0.0798  0.1122 -0.4277
17910TIP3    H175221   5.684   2.382   5.386 -0.7502  0.6524 -0.2135
17910TIP3    H275222   5.777   2.448   5.485  0.3330 -0.2803 -0.5880
17911TIP3   OH275223   4.427   6.036   5.112 -0.3838  0.3996 -0.6973
17911TIP3    H175224   4.470   6.017   5.195 -2.6592  0.1231  0.4874
17911TIP3    H275225   4.476   6.110   5.076  0.3901  0.8112  1.0963
17912TIP3   OH275226   5.863   4.212   1.598 -0.6432  0.7072 -0.2717
17912TIP3    H175227   5.907   4.298   1.602 -1.1614  0.9492  0.6166
17912TIP3    H275228   5.928   4.153   1.561  0.5925  0.9813  1.3272
17913TIP3   OH275229   3.170   6.120  12.724  0.4377 -0.2482 -0.3029
17913TIP3    H175230   3.225   6.087  12.795  0.7340 -0.8620 -0.7969
17913TIP3    H275231   3.085   6.080  12.739  1.2384 -2.8497 -1.8979
17914TIP3   OH275232   3.844   3.403  16.411  0.3803 -0.2152 -0.5999
17914TIP3    H175233   3.909   3.365  16.352 -0.9361 -0.2889 -2.0660
17914TIP3    H275234   3.760   3.393  16.365 -0.5584  0.7361  0.8005
17915TIP3   OH275235   4.723   5.921  12.853 -0.1820  0.4299  0.6077
17915TIP3    H175236   4.749   5.910  12.944 -0.7091 -0.6447  0.6550
17915TIP3    H275237   4.799   5.894  12.802  0.7273  2.6526  0.6831
17916TIP3   OH275238   0.638   1.660   0.601  0.2974  0.2057  0.5758
17916TIP3    H175239   0.657   1.753   0.590  2.5595 -0.2047  0.3244
17916TIP3    H275240   0.583   1.638   0.527  0.7117  1.1259 -0.0298
17917TIP3   OH275241   0.511   2.890  13.483 -0.1976  0.2429  0.0944
17917TIP3    H175242   0.495   2.811  13.535 -2.3164  0.6437  0.1254
17917TIP3    H275243   0.587   2.867  13.429 -0.5661 -1.7101  0.3122
17918TIP3   OH275244   4.492   3.429  16.940  0.0708  0.4655 -0.0147
17918TIP3    H175245   4.511   3.335  16.943  0.8049  0.5134 -1.9021
17918TIP3    H275246   4.496   3.451  16.847 -0.6112  2.2778  0.3469
17919TIP3   OH275247   3.212   3.285   2.064 -0.2222 -0.1455  1.1543
17919TIP3    H175248   3.258   3.364   2.035 -1.4975  0.3752  0.4331
17919TIP3    H275249   3.126   3.317   2.092 -1.3067 -1.4037 -0.5273
17920TIP3   OH275250   0.950   3.005   5.818 -0.4989  0.0406 -0.5199
17920TIP3    H175251   0.991   3.002   5.732 -1.5988 -1.3971 -1.0454
17920TIP3    H275252   0.882   2.938   5.814  0.7269 -1.5014  2.1567
17921TIP3   OH275253   2.808   0.835   5.066 -0.1399 -0.0870  0.4926
17921TIP3    H175254   2.861   0.756   5.059 -1.3947 -0.9732  0.7623
17921TIP3    H275255   2.793   0.845   5.160 -1.4736 -0.5567  0.3483
17922TIP3   OH275256   4.388   1.612   5.400  0.3280 -0.1656 -0.1204
17922TIP3    H175257   4.331   1.541   5.374 -0.9676  1.0160 -0.6231
17922TIP3    H275258   4.472   1.570   5.421 -0.6242 -1.8939  0.3544
17923TIP3   OH275259   4.846   6.751   0.873  0.3379 -0.9494  0.3053
17923TIP3    H175260   4.812   6.792   0.794  0.0384 -0.6264  0.5982
17923TIP3    H275261   4.937   6.730   0.851  1.7194  3.0772  1.2269
17924TIP3   OH275262   2.565   6.480   4.543 -0.0880  0.5025 -0.0048
17924TIP3    H175263   2.614   6.401   4.567 -1.3452 -0.0712  0.7876
17924TIP3    H275264   2.490   6.480   4.602 -0.1018  2.3350  0.0363
17925TIP3   OH275265   4.570   1.758   4.120  0.3842 -0.0932 -0.1326
17925TIP3    H175266   4.610   1.774   4.206  0.0551 -0.9402  0.1941
17925TIP3    H275267   4.477   1.776   4.133  0.1762 -1.1426 -0.0364
17926TIP3   OH275268   1.632   2.594  14.901  0.1267 -0.1042 -0.5554
17926TIP3    H175269   1.672   2.633  14.823 -1.6241  1.6436 -0.6505
17926TIP3    H275270   1.542   2.626  14.900 -0.1954 -0.7866  1.7118
17927TIP3   OH275271   4.910   1.826   4.828  0.2803 -0.0196  0.3056
17927TIP3    H175272   4.959   1.909   4.831  0.7807 -0.3121  0.3622
17927TIP3    H275273   4.891   1.807   4.920  0.5877 -0.2080  0.3336
17928TIP3   OH275274   2.305   5.617   2.815  0.7017  0.4828  0.0147
17928TIP3    H175275   2.394   5.585   2.800  0.3016 -0.2551 -0.9079
17928TIP3    H275276   2.266   5.620   2.728 -1.3075 -2.6570  0.6329
17929TIP3   OH275277   3.936   0.541   4.710 -0.1583 -0.0336 -0.1296
17929TIP3    H175278   4.011   0.481   4.705  1.3742  1.8051 -0.1536
17929TIP3    H275279   3.956   0.610   4.646 -1.8955  0.4972 -0.1433
17930TIP3   OH275280   5.774   2.037   5.264 -0.4105 -0.0347 -0.6626
17930TIP3    H175281   5.812   2.077   5.186  2.1960 -0.6687  0.1777
17930TIP3    H275282   5.714   2.103   5.299 -0.1190  1.0190 -2.0940
17931TIP3   OH275283   1.948   1.057   2.604  0.7472 -0.5086  0.3240
17931TIP3    H175284   2.012   1.001   2.649  2.2324 -0.2492 -1.3765
17931TIP3    H275285   2.001   1.117   2.552 -0.8037 -1.9609 -3.2578
17932TIP3   OH275286   4.546   3.152  16.949  0.6847  0.4622  0.1976
17932TIP3    H175287   4.476   3.125  17.009 -1.4320 -0.5897 -2.5053
17932TIP3    H275288   4.592   3.070  16.929  0.6072  0.5882 -0.5046
17933TIP3   OH275289   6.774   2.074   1.960 -0.8406 -0.0917  0.4851
17933TIP3    H175290   6.803   2.007   1.898 -1.7213  0.4185 -0.5044
17933TIP3    H275291   6.721   2.026   2.024  0.9133 -0.7907  1.4797
17934TIP3   OH275292   3.113   2.302   6.208 -0.0028  0.4694 -0.0136
17934TIP3    H175293   3.101   2.249   6.129  0.4666 -0.5688  0.5833
17934TIP3    H275294   3.031   2.351   6.217  0.2744  1.3121 -1.6275
17935TIP3   OH275295   3.363   1.735   6.882  0.1015  0.0943 -0.7121
17935TIP3    H175296   3.328   1.745   6.970  1.0532 -1.3059 -0.1282
17935TIP3    H275297   3.297   1.685   6.835 -0.1943  0.4292 -0.6530
17936TIP3   OH275298   6.699   1.899  13.812 -0.1277 -0.1057  0.4433
17936TIP3    H175299   6.762   1.892  13.884  0.3620  0.1922  0.0460
17936TIP3    H275300   6.657   1.813  13.809 -0.0325 -0.1767  0.9715
17937TIP3   OH275301   2.407   6.583  11.094 -0.1808  0.0989  0.2020
17937TIP3    H175302   2.388   6.601  11.002 -0.1029 -1.2077 -0.0939
17937TIP3    H275303   2.326   6.606  11.140 -0.8899 -0.9927 -0.4475
17938TIP3   OH275304   2.940   5.361   1.707 -0.1290 -0.3811  0.6379
17938TIP3    H175305   2.863   5.394   1.661  0.0507 -0.6325  0.1485
17938TIP3    H275306   2.954   5.423   1.778  1.5759  2.0014 -1.6166
17939TIP3   OH275307   5.840   3.974   2.071 -0.0113 -0.5318 -0.6616
17939TIP3    H175308   5.818   4.035   2.001 -0.4648  0.0065 -0.0717
17939TIP3    H275309   5.798   4.012   2.149  2.1853  0.0041  0.3363
17940TIP3   OH275310   1.718   3.028   1.271 -0.1622 -0.1971  0.2643
17940TIP3    H175311   1.639   3.080   1.289 -0.8615 -0.7925 -0.9643
17940TIP3    H275312   1.784   3.093   1.245 -0.9407  0.1394 -0.9770
17941TIP3   OH275313   4.607   2.345  15.989 -0.4529  0.0983 -0.5478
17941TIP3    H175314   4.536   2.360  15.927 -1.0446  0.9957  0.3212
17941TIP3    H275315   4.574   2.277  16.048 -0.5261  0.3699 -0.2692
17942TIP3   OH275316   3.126   6.142   6.081  0.0374 -0.1681  0.2863
17942TIP3    H175317   3.130   6.238   6.092 -0.0891  0.0912 -1.5894
17942TIP3    H275318   3.195   6.123   6.016 -0.8269 -1.1625 -0.3605
17943TIP3   OH275319   0.866   3.701  11.283  0.2778 -0.7079 -0.1337
17943TIP3    H175320   0.794   3.655  11.241 -1.8785  0.0742  2.4256
17943TIP3    H275321   0.916   3.633  11.327 -1.2502 -0.9677  1.2924
17944TIP3   OH275322   0.015   4.753   0.842 -0.4797 -0.1856 -0.7939
17944TIP3    H175323   0.020   4.818   0.772 -1.0684  0.8772  0.1085
17944TIP3    H275324   0.084   4.690   0.822 -0.7055  0.0369 -2.3722
17945TIP3   OH275325   0.407   6.263  13.878  0.1585  0.0781  0.3120
17945TIP3    H175326   0.470   6.217  13.934  0.3307  1.0649  0.9607
17945TIP3    H275327   0.400   6.208  13.800  1.9711  0.0218  0.1439
17946TIP3   OH275328   0.852   6.103   1.783  0.3880  0.2685 -1.0640
17946TIP3    H175329   0.921   6.134   1.724  2.2919 -1.0080  0.3679
17946TIP3    H275330   0.844   6.009   1.764 -1.2675  0.4548 -1.4505
17947TIP3   OH275331   3.258   2.948   0.766  0.0232 -0.1798 -0.8113
17947TIP3    H175332   3.265   3.038   0.733 -0.5573 -0.0378 -0.5655
17947TIP3    H275333   3.341   2.907   0.742  0.8821  0.8306  0.3027
17948TIP3   OH275334   5.387   2.243   1.073 -0.1312  0.0741  0.0794
17948TIP3    H175335   5.436   2.322   1.054  0.8707 -0.6213 -0.3151
17948TIP3    H275336   5.300   2.274   1.099  0.2029  1.2837 -0.1929
17949TIP3   OH275337   4.040   2.667   1.426  0.3376  0.3250  0.7186
17949TIP3    H175338   3.993   2.585   1.414  0.3466  0.1508  1.7785
17949TIP3    H275339   4.122   2.656   1.377 -0.1006  0.0974  0.0243
17950TIP3   OH275340   5.745   0.128   6.404 -0.0322  0.5585 -0.2846
17950TIP3    H175341   5.705   0.042   6.409 -0.5698  0.8258  0.1107
17950TIP3    H275342   5.725   0.170   6.487  1.4883  0.5394  0.1264
17951TIP3   OH275343   0.545   1.200  15.686 -0.1432 -0.0207 -0.4283
17951TIP3    H175344   0.503   1.183  15.771 -1.9259  1.1933 -0.9939
17951TIP3    H275345   0.565   1.294  15.689  0.8820 -0.2150 -0.9083
17952TIP3   OH275346   5.324   1.350   2.913  0.2458 -0.1180  1.0695
17952TIP3    H175347   5.307   1.425   2.971 -1.0190 -0.1083  0.7352
17952TIP3    H275348   5.239   1.333   2.872  1.1564  0.0449 -0.9893
17953TIP3   OH275349   6.071   1.775   3.882 -0.1691 -0.1179  0.1531
17953TIP3    H175350   6.098   1.860   3.916 -0.0103 -0.0845 -0.0583
17953TIP3    H275351   6.018   1.795   3.805 -1.5810 -0.1407  1.0801
17954TIP3   OH275352   2.716   1.275  15.523 -0.0045 -0.1593  0.3238
17954TIP3    H175353   2.786   1.238  15.469  0.5134  0.2691  0.6796
17954TIP3    H275354   2.640   1.280  15.465  0.8252  1.2942 -0.7209
17955TIP3   OH275355   2.253   6.354   6.331 -0.1550 -0.1408  0.3827
17955TIP3    H175356   2.295   6.268   6.343 -0.2899 -0.1607  0.7431
17955TIP3    H275357   2.318   6.417   6.363 -0.0267 -0.1032  0.0475
17956TIP3   OH275358   0.201   0.638   0.807  0.5006 -0.8409 -0.1233
17956TIP3    H175359   0.129   0.589   0.847 -1.4301  0.8015 -1.3919
17956TIP3    H275360   0.206   0.604   0.717 -0.6057  0.8984 -0.8982
17957TIP3   OH275361   3.575   0.279  13.497 -0.0330  0.2952  0.1507
17957TIP3    H175362   3.532   0.316  13.575  1.7196  1.5058  0.6133
17957TIP3    H275363   3.669   0.290  13.515  0.5248 -2.4013 -0.7193
17958TIP3   OH275364   1.868   4.083  17.088 -0.7597  0.9038 -0.2080
17958TIP3    H175365   1.938   4.121  17.141 -0.5659  0.8971 -0.4583
17958TIP3    H275366   1.872   4.130  17.005  0.5724 -0.7518 -1.1494
17959TIP3   OH275367   4.803   0.062   3.497 -0.3623 -0.0182 -0.0748
17959TIP3    H175368   4.779   0.155   3.496  1.0636  0.3825 -0.9706
17959TIP3    H275369   4.769   0.029   3.580 -2.5527  0.8180 -0.5899
17960TIP3   OH275370   3.054   1.740  16.849  0.1044 -0.2025 -0.6630
17960TIP3    H175371   2.995   1.787  16.790  1.7498  0.7672 -1.6189
17960TIP3    H275372   3.046   1.785  16.933 -1.3927 -0.8561 -0.4272
17961TIP3   OH275373   0.068   3.717   5.629  0.1193  0.3780 -0.0952
17961TIP3    H175374   0.085   3.710   5.535  1.2553  1.7846 -0.0364
17961TIP3    H275375   0.022   3.800   5.638 -0.9684 -0.2694  0.5015
17962TIP3   OH275376   6.014   2.660  14.074 -0.3781 -0.4809 -0.2672
17962TIP3    H175377   5.930   2.689  14.108  0.0608 -0.0332  0.4744
17962TIP3    H275378   5.994   2.619  13.990 -1.1746  0.8620 -0.7606
17963TIP3   OH275379   2.400   5.502  16.868 -0.0399  0.1637  0.1003
17963TIP3    H175380   2.315   5.541  16.848 -0.8551 -1.0957  0.9454
17963TIP3    H275381   2.409   5.513  16.963 -0.6444 -2.2522  0.5000
17964TIP3   OH275382   4.365   6.347   4.281 -0.0247  0.1313  0.6231
17964TIP3    H175383   4.363   6.269   4.337 -2.0836 -1.5321 -1.5401
17964TIP3    H275384   4.388   6.314   4.194 -1.1039  1.8950 -0.4068
17965TIP3   OH275385   3.808   5.734  13.770  0.1073  0.5965 -0.2171
17965TIP3    H175386   3.798   5.700  13.682 -0.5154  0.2174 -0.0042
17965TIP3    H275387   3.896   5.773  13.771  1.0565 -1.4504 -0.3042
17966TIP3   OH275388   6.613   1.444  11.477  0.7251  0.3342 -0.4910
17966TIP3    H175389   6.573   1.531  11.471  0.5099  0.2097 -0.9532
17966TIP3    H275390   6.591   1.403  11.393  0.4727 -0.3157 -0.1130
17967TIP3   OH275391   5.614   1.893   0.988  0.5551  0.0170 -0.0890
17967TIP3    H175392   5.659   1.834   1.048  1.1864  0.6425  0.0720
17967TIP3    H275393   5.522   1.872   0.997  0.6623 -0.0203  0.9616
17968TIP3   OH275394   6.198   4.381   5.887 -0.0512  0.1522  0.0224
17968TIP3    H175395   6.166   4.351   5.972 -1.0013  0.8139 -0.0918
17968TIP3    H275396   6.293   4.390   5.899 -0.4025  2.5440  1.7522
17969TIP3   OH275397   2.678   1.275  16.101 -0.2235 -0.1383  0.0235
17969TIP3    H175398   2.620   1.203  16.075 -1.0300  0.0455  1.2135
17969TIP3    H275399   2.735   1.237  16.168  1.3824 -0.4339 -1.4449
17970TIP3   OH275400   1.326   1.950   2.562  0.0061 -0.0973  0.3885
17970TIP3    H175401   1.382   1.897   2.507  1.0273  1.1664  0.1789
17970TIP3    H275402   1.321   1.901   2.645 -2.0767 -2.3395 -0.9343
17971TIP3   OH275403   5.391   4.923  13.923 -0.5248  0.1001  0.0609
17971TIP3    H175404   5.379   4.934  13.828 -1.5592 -1.0318  0.0281
17971TIP3    H275405   5.437   4.839  13.931 -4.8065 -2.4551  0.6441
17972TIP3   OH275406   5.291   3.956  16.679 -0.1932  0.1520 -0.1375
17972TIP3    H175407   5.328   3.872  16.707 -1.9177 -0.3888  0.6717
17972TIP3    H275408   5.260   3.940  16.590  1.1295  0.5050 -0.6839
17973TIP3   OH275409   0.614   2.198   4.195 -0.0860  0.8286  0.3821
17973TIP3    H175410   0.554   2.180   4.123  0.9259  1.6178 -0.7202
17973TIP3    H275411   0.639   2.290   4.183  2.6369  0.1180 -0.2817
17974TIP3   OH275412   2.555   3.151  16.808  0.3557 -0.2390 -0.5934
17974TIP3    H175413   2.507   3.084  16.858  2.1039 -1.5925 -0.6598
17974TIP3    H275414   2.508   3.157  16.725 -0.7069 -0.2611 -0.0182
17975TIP3   OH275415   1.554   4.973   4.550  0.0254 -0.3042 -0.1329
17975TIP3    H175416   1.521   4.958   4.461 -0.3633 -1.9213  0.2524
17975TIP3    H275417   1.599   4.891   4.573 -1.2990 -0.5702  1.7617
17976TIP3   OH275418   3.190   3.183  13.435 -0.3459 -0.1725  0.2537
17976TIP3    H175419   3.099   3.208  13.419  0.1501  1.6292 -0.0063
17976TIP3    H275420   3.189   3.140  13.520 -1.7594 -2.2902 -0.7407
17977TIP3   OH275421   3.673   1.368  16.751 -0.1714  0.2134 -0.4452
17977TIP3    H175422   3.697   1.436  16.813 -0.3544  0.9565 -1.1819
17977TIP3    H275423   3.661   1.290  16.805  0.6908  0.5918  0.3302
17978TIP3   OH275424   6.139   0.086  16.454  1.0036 -0.0445 -0.5315
17978TIP3    H175425   6.107   0.098  16.364  0.8957  1.8927 -0.2801
17978TIP3    H275426   6.059   0.081  16.507  1.0681  0.1245 -0.4162
17979TIP3   OH275427   1.263   2.679  15.809 -0.0262 -0.2790 -0.2996
17979TIP3    H175428   1.261   2.596  15.762 -1.6057 -0.3812 -0.1169
17979TIP3    H275429   1.348   2.680  15.853 -0.1203 -1.9887  0.0045
17980TIP3   OH275430   2.867   5.270   3.322 -0.1358 -0.5704 -0.1610
17980TIP3    H175431   2.812   5.314   3.257  0.5386  0.5255 -0.0197
17980TIP3    H275432   2.811   5.260   3.399  0.3463  2.2943  0.6803
17981TIP3   OH275433   6.194   0.386   5.499  0.1433  0.1515  0.1481
17981TIP3    H175434   6.287   0.372   5.517  0.2758  1.1323  0.2673
17981TIP3    H275435   6.182   0.480   5.508 -1.1746 -0.1175  1.6013
17982TIP3   OH275436   4.565   4.019  14.045  0.5914 -0.3100 -0.1444
17982TIP3    H175437   4.595   3.971  14.121 -0.9017  1.3949  1.6514
17982TIP3    H275438   4.469   4.012  14.048  0.1825  3.3241  0.7892
17983TIP3   OH275439   5.459   4.291   0.404 -0.4285  0.4503 -0.1449
17983TIP3    H175440   5.518   4.276   0.478  0.8411  1.0172 -1.0042
17983TIP3    H275441   5.517   4.304   0.329 -1.5890  2.6113 -0.7436
17984TIP3   OH275442   5.386   3.936  12.520  0.5656 -0.3643  0.1058
17984TIP3    H175443   5.403   3.916  12.428 -1.2317  3.2222 -1.1759
17984TIP3    H275444   5.455   3.996  12.546  0.4005 -0.4396  0.7574
17985TIP3   OH275445   0.003   5.958  12.773  0.0365  0.2596  0.2790
17985TIP3    H175446  -0.064   5.939  12.707  0.1630 -3.0573  0.9087
17985TIP3    H275447  -0.042   6.010  12.839 -1.3947 -0.2811 -0.2256
17986TIP3   OH275448   1.158   3.080  13.157  0.1768  0.2684 -0.0664
17986TIP3    H175449   1.185   3.159  13.203  0.8669  0.3794 -0.6327
17986TIP3    H275450   1.177   3.008  13.217  0.8795  0.4264 -0.0972
17987TIP3   OH275451   3.889   1.366  11.227  0.3836  0.0502  0.3444
17987TIP3    H175452   3.884   1.456  11.256 -0.8954  0.2119 -0.2901
17987TIP3    H275453   3.916   1.372  11.135 -2.3682  0.0058 -0.5480
17988TIP3   OH275454   5.349   3.234   2.568  0.1179  0.6345  0.3454
17988TIP3    H175455   5.276   3.278   2.523 -0.5593  0.3054  1.0849
17988TIP3    H275456   5.359   3.283   2.650  1.0526  0.9665  0.0473
17989TIP3   OH275457   4.323   4.760   2.401  0.5827 -0.0339  0.8402
17989TIP3    H175458   4.272   4.802   2.471 -1.1292 -2.1734  0.9757
17989TIP3    H275459   4.262   4.698   2.361  1.2257  1.6246 -3.1492
17990TIP3   OH275460   3.490   0.981  16.891  0.0251  0.6794 -0.3774
17990TIP3    H175461   3.450   1.053  16.938  1.4972 -0.1638  2.3684
17990TIP3    H275462   3.571   1.017  16.855 -0.7671  1.1453 -1.7657
17991TIP3   OH275463   3.578   2.498  13.913 -0.8056  0.2256 -0.2279
17991TIP3    H175464   3.505   2.452  13.954 -0.3838  0.0153  0.3002
17991TIP3    H275465   3.536   2.557  13.849 -1.2986 -1.5214 -1.5806
17992TIP3   OH275466   6.684   2.509  12.575  0.5717  0.0842 -0.0483
17992TIP3    H175467   6.653   2.545  12.658  0.9387 -1.1565  0.6581
17992TIP3    H275468   6.608   2.512  12.517  0.7549  2.5744 -0.2561
17993TIP3   OH275469   6.280   6.764   2.453  0.5887 -0.9046 -0.1160
17993TIP3    H175470   6.200   6.763   2.505  1.6281 -0.9568  1.5389
17993TIP3    H275471   6.258   6.818   2.377 -0.8486 -0.4629  0.5745
17994TIP3   OH275472   5.721   1.834   2.944  0.2855  0.4054 -0.5530
17994TIP3    H175473   5.688   1.748   2.971 -0.3888  0.0945 -2.2488
17994TIP3    H275474   5.643   1.881   2.915  0.6306  1.6631  0.4772
17995TIP3   OH275475   3.292   0.814  17.102  0.3999  0.0558 -0.3079
17995TIP3    H175476   3.304   0.840  17.194  0.6188 -0.0916 -0.2951
17995TIP3    H275477   3.366   0.853  17.056  1.1312 -1.1257 -0.1780
17996TIP3   OH275478   0.619   2.694  11.153 -0.0869  0.0521  0.0291
17996TIP3    H175479   0.690   2.757  11.143  0.4763 -0.8592 -2.2277
17996TIP3    H275480   0.626   2.637  11.077 -0.6996 -2.6441  1.8678
17997TIP3   OH275481   1.426   4.873  14.654  0.6508  0.4574 -0.9043
17997TIP3    H175482   1.418   4.955  14.701 -1.0259 -0.9042  1.3928
17997TIP3    H275483   1.520   4.860  14.643  1.2252  0.6655  2.6206
17998TIP3   OH275484   2.991   3.976   3.399  0.6649 -0.1012 -0.3979
17998TIP3    H175485   3.016   3.896   3.352  1.8881  0.0680 -0.0695
17998TIP3    H275486   2.932   3.946   3.468  3.3507 -1.2117  1.5870
17999TIP3   OH275487   1.512   4.808   4.965 -0.8118 -0.2857 -1.2742
17999TIP3    H175488   1.565   4.730   4.979 -1.6390 -0.8418 -1.2173
17999TIP3    H275489   1.472   4.795   4.879 -0.9657  0.0743 -1.2599
18000TIP3   OH275490   0.346   3.275  15.580  0.2806 -0.2645 -0.3679
18000TIP3    H175491   0.411   3.344  15.566  0.0958  0.1632  0.7453
18000TIP3    H275492   0.329   3.240  15.493  1.1033  0.4370 -0.8294
18001TIP3   OH275493   0.864   5.790   3.987  0.4486  0.1266 -0.1381
18001TIP3    H175494   0.797   5.726   3.968 -1.4543  1.6203  1.1351
18001TIP3    H275495   0.906   5.759   4.067  0.5081 -0.2378 -0.3111
18002TIP3   OH275496   4.188   1.509  11.364  0.3089  0.3341  0.7626
18002TIP3    H175497   4.102   1.496  11.323  0.6493 -1.6182  0.5824
18002TIP3    H275498   4.168   1.555  11.446 -0.8973 -0.0167  0.6922
18003TIP3   OH275499   6.580   5.520  11.885  0.2763  0.3718  0.1430
18003TIP3    H175500   6.563   5.515  11.790 -1.0821 -0.3710  0.3964
18003TIP3    H275501   6.647   5.587  11.893  0.0204  0.8574 -1.3158
18004TIP3   OH275502   0.721   5.637  15.631  0.2303 -0.0114  0.1855
18004TIP3    H175503   0.630   5.659  15.650  0.7344  0.5693  2.1277
18004TIP3    H275504   0.763   5.721  15.611  0.3287 -0.3014 -0.9453
18005TIP3   OH275505   0.103   6.523   0.885  0.1513  0.3491  0.9339
18005TIP3    H175506   0.060   6.585   0.943  1.9130  1.3294  1.2585
18005TIP3    H275507   0.062   6.537   0.800  0.7778  2.2813  0.9099
18006TIP3   OH275508   4.782   0.782   0.648  1.0493  0.8443  0.2568
18006TIP3    H175509   4.689   0.760   0.653  1.2414 -0.3863 -0.9545
18006TIP3    H275510   4.785   0.877   0.655 -0.0628  0.7758  2.9401
18007TIP3   OH275511   2.736   3.329   2.870 -0.3176 -0.3052 -0.2870
18007TIP3    H175512   2.738   3.351   2.963 -0.3917 -0.9200 -0.1376
18007TIP3    H275513   2.653   3.365   2.839  0.1100  0.6950 -0.3260
18008TIP3   OH275514   0.905   0.692  14.858  0.6343 -0.3568  0.0120
18008TIP3    H175515   0.896   0.641  14.778 -1.6339  1.1300 -0.7775
18008TIP3    H275516   0.912   0.782  14.829 -1.2961  0.3312  1.4408
18009TIP3   OH275517   3.901   4.273   1.988  0.4728 -0.2118  0.2437
18009TIP3    H175518   3.976   4.232   1.947 -0.6865  0.0197 -2.2965
18009TIP3    H275519   3.836   4.281   1.918 -1.6927  0.1967  2.1492
18010TIP3   OH275520   3.714   0.024   2.653 -0.2827 -0.0694  0.2875
18010TIP3    H175521   3.734  -0.033   2.578 -0.2417  1.7176 -1.1304
18010TIP3    H275522   3.721  -0.034   2.729 -0.0232 -1.8964 -1.0411
18011TIP3   OH275523   2.180   2.676  14.752 -0.9004 -0.7231  0.3049
18011TIP3    H175524   2.120   2.623  14.699 -0.2006 -2.4197  1.1353
18011TIP3    H275525   2.135   2.686  14.836 -1.1957  0.3825  0.0382
18012TIP3   OH275526   4.683   2.040  12.909 -0.0971  0.2408  0.0807
18012TIP3    H175527   4.714   2.076  12.826 -2.4792 -0.1526 -1.0877
18012TIP3    H275528   4.688   1.945  12.897  2.0237  0.1402  1.4514
18013TIP3   OH275529   4.802   6.341  11.961 -0.5731  0.0031 -0.5608
18013TIP3    H175530   4.847   6.262  11.931  0.5219 -0.1477  1.2662
18013TIP3    H275531   4.792   6.328  12.055 -0.7400  1.8614 -0.2761
18014TIP3   OH275532   5.211   0.703  12.925  0.2725  0.7069 -0.2877
18014TIP3    H175533   5.192   0.619  12.883  0.8699 -0.8858  2.3928
18014TIP3    H275534   5.257   0.753  12.858 -0.6724 -0.8119 -2.1971
18015TIP3   OH275535   0.780   4.476   4.927 -0.7044 -0.3015 -0.1851
18015TIP3    H175536   0.851   4.483   4.991 -0.8305  0.4564 -0.1205
18015TIP3    H275537   0.782   4.385   4.899  1.8093  0.2024 -1.9490
18016TIP3   OH275538   6.774   5.453   4.612  0.3083  0.7060  0.1886
18016TIP3    H175539   6.793   5.509   4.537  3.0114  0.4736  0.5774
18016TIP3    H275540   6.819   5.371   4.593  0.7771  0.5171  1.8777
18017TIP3   OH275541   3.826   5.146  12.233  0.1103 -0.7201  0.1952
18017TIP3    H175542   3.868   5.063  12.209 -0.8843 -1.4135  0.7680
18017TIP3    H275543   3.894   5.196  12.278  0.3933 -1.7558  0.9636
18018TIP3   OH275544   4.669   0.807   5.736  0.0092 -0.4074  1.0322
18018TIP3    H175545   4.709   0.886   5.772  1.3124 -1.0949  1.1592
18018TIP3    H275546   4.744   0.751   5.713 -0.8789 -1.8227  1.4606
18019TIP3   OH275547   2.385   2.964   1.131  0.3723  0.0803  0.0982
18019TIP3    H175548   2.407   2.995   1.043 -0.8876 -1.0479 -0.6540
18019TIP3    H275549   2.358   2.873   1.119 -0.3782  0.0704  1.5681
18020TIP3   OH275550   2.796   0.252   1.465 -0.2834  0.2890 -0.2861
18020TIP3    H175551   2.727   0.316   1.481  0.3024  1.2397 -1.4342
18020TIP3    H275552   2.877   0.302   1.468  0.1648 -0.2919 -1.6112
18021TIP3   OH275553   4.517   4.661   3.287  0.6574  0.0095 -0.3127
18021TIP3    H175554   4.501   4.587   3.228 -1.2358  0.2281 -0.1323
18021TIP3    H275555   4.495   4.738   3.235 -2.0623  0.1596  0.9028
18022TIP3   OH275556   4.678   0.505   4.858 -0.0192 -0.1737  0.4970
18022TIP3    H175557   4.723   0.588   4.845 -0.2302  0.5513  3.5816
18022TIP3    H275558   4.734   0.456   4.918 -1.2595 -1.0471  0.9857
18023TIP3   OH275559   0.562   0.893   5.302  0.4965  0.4109 -0.2706
18023TIP3    H175560   0.605   0.957   5.245  1.7273  0.1802  0.3596
18023TIP3    H275561   0.627   0.875   5.370 -0.2825 -0.6291  0.2179
18024TIP3   OH275562   5.745   2.527  10.369  0.6337  0.2102 -0.3453
18024TIP3    H175563   5.746   2.478  10.451  1.8399  0.8974  0.0805
18024TIP3    H275564   5.683   2.598  10.384 -0.6367 -0.7996 -0.7399
18025TIP3   OH275565   4.515   2.528  10.730 -0.0685  0.0175 -0.4107
18025TIP3    H175566   4.584   2.518  10.664  0.9037  2.6617  0.1024
18025TIP3    H275567   4.562   2.532  10.813 -0.9700  0.4711  0.0878
18026TIP3   OH275568   3.554   3.325   0.809 -0.5083  0.1660  0.1671
18026TIP3    H175569   3.495   3.272   0.862 -0.8746  0.3478 -0.0556
18026TIP3    H275570   3.507   3.407   0.796  1.1400  1.6681  2.8310
18027TIP3   OH275571   3.939   0.648   0.939  0.1660  0.2191  0.1418
18027TIP3    H175572   3.855   0.693   0.947  0.2869  0.2122  2.0682
18027TIP3    H275573   3.970   0.639   1.030  2.2100  0.1732 -0.4916
18028TIP3   OH275574   5.033   1.297   4.973  0.7415 -0.4888 -0.2436
18028TIP3    H175575   4.964   1.313   5.037  0.0523  1.0791 -1.3240
18028TIP3    H275576   5.098   1.366   4.990 -0.0541  0.7574 -2.0014
18029TIP3   OH275577   3.587   3.981  10.289  0.4807  0.0121  0.0706
18029TIP3    H175578   3.504   3.978  10.337  0.4264  0.9314  0.0614
18029TIP3    H275579   3.566   3.945  10.203  0.5531 -1.5456  0.6735
18030TIP3   OH275580   5.250   1.952   6.045  0.3396 -0.7302  0.0063
18030TIP3    H175581   5.240   1.887   6.114 -1.1416 -0.1857  0.3415
18030TIP3    H275582   5.338   1.988   6.057  0.4346 -1.2989  1.0283
18031TIP3   OH275583   3.433   5.649  11.611 -0.3349 -0.2900 -0.6015
18031TIP3    H175584   3.464   5.567  11.649  2.3479  1.8201  2.3041
18031TIP3    H275585   3.395   5.697  11.684 -0.1810  1.7561 -1.7814
18032TIP3   OH275586   2.065   4.329  14.425  0.2919 -0.0609 -0.3800
18032TIP3    H175587   1.981   4.331  14.472  0.6626  0.5141  0.2691
18032TIP3    H275588   2.103   4.415  14.440  1.3951 -0.6095  0.0587
18033TIP3   OH275589   0.500   6.622  13.070 -0.1544 -0.5504  0.1272
18033TIP3    H175590   0.541   6.541  13.040  1.3728 -0.4125  1.6590
18033TIP3    H275591   0.478   6.604  13.162  1.6220  1.2389  0.9605
18034TIP3   OH275592   5.046   6.437   4.798  0.0480  0.2771  0.3654
18034TIP3    H175593   5.098   6.449   4.877 -1.8603 -0.9878  1.9227
18034TIP3    H275594   5.027   6.525   4.767 -1.6405  0.9880  3.1095
18035TIP3   OH275595   3.978   2.411   0.046  0.1539  0.1156  0.0784
18035TIP3    H175596   3.968   2.401  -0.049 -0.2982 -0.9172  0.2217
18035TIP3    H275597   4.032   2.489   0.056 -2.8274  2.5379 -0.9691
18036TIP3   OH275598   5.275   0.372   4.832  0.6644 -0.1159  0.9057
18036TIP3    H175599   5.331   0.449   4.834  1.0404 -0.3816  0.7898
18036TIP3    H275600   5.275   0.340   4.922  2.1371 -1.1265  0.5741
18037TIP3   OH275601   3.885   2.396  10.463  0.5860 -0.0417  0.4858
18037TIP3    H175602   3.842   2.449  10.529  2.4706 -0.1449  1.8643
18037TIP3    H275603   3.813   2.356  10.414 -0.9117 -0.3039  2.7373
18038TIP3   OH275604   6.309   4.423   4.404  0.4805  0.2985 -0.0795
18038TIP3    H175605   6.215   4.440   4.403  0.2278 -0.8686  1.4494
18038TIP3    H275606   6.349   4.507   4.378 -0.8957  1.5158  1.5366
18039TIP3   OH275607   0.030   0.154   5.967 -0.2393  0.1602 -0.1608
18039TIP3    H175608  -0.018   0.102   5.902  0.1601 -0.0558 -0.2870
18039TIP3    H275609   0.080   0.090   6.017 -0.7292  0.3066  0.5229
18040TIP3   OH275610   2.332   0.405  15.994  0.5454 -0.4684 -0.3079
18040TIP3    H175611   2.299   0.366  16.075  0.2171  2.3585  1.0252
18040TIP3    H275612   2.384   0.480  16.023  0.7552  0.4014 -2.7124
18041TIP3   OH275613   5.008   0.825  14.097  0.1134  0.0182  0.6570
18041TIP3    H175614   4.959   0.773  14.160 -0.0972 -0.2117  0.3063
18041TIP3    H275615   4.946   0.890  14.066  0.0197 -0.2991  0.1810
18042TIP3   OH275616   4.306   1.447  14.390  0.2209  0.1097 -0.0363
18042TIP3    H175617   4.269   1.359  14.381 -0.2390  0.2119  0.6939
18042TIP3    H275618   4.272   1.478  14.474 -0.6019  1.4486 -0.8286
18043TIP3   OH275619   2.596   4.847  17.201 -0.1071  0.3127  0.1544
18043TIP3    H175620   2.652   4.812  17.271  0.6661 -1.0625 -1.0846
18043TIP3    H275621   2.595   4.941  17.216  2.7558  0.4524  0.1267
18044TIP3   OH275622   2.465   0.193  12.155 -0.4253 -0.5468 -0.1338
18044TIP3    H175623   2.430   0.108  12.181  0.4436 -1.5960 -2.1593
18044TIP3    H275624   2.436   0.253  12.223 -3.6444 -1.8592 -0.1942
18045TIP3   OH275625   2.352   1.180  16.202 -0.0240 -0.0378  0.5223
18045TIP3    H175626   2.392   1.263  16.228 -0.7564  0.4150  0.2240
18045TIP3    H275627   2.390   1.160  16.117 -1.2754  0.9905 -0.3100
18046TIP3   OH275628   5.307   3.327   3.124 -0.2959 -0.2832 -0.5011
18046TIP3    H175629   5.336   3.236   3.126  2.1009  0.4001  0.4993
18046TIP3    H275630   5.320   3.357   3.214  2.2434  1.8867 -1.4585
18047TIP3   OH275631   0.016   4.660   3.918 -0.0770 -0.4107  0.4717
18047TIP3    H175632   0.083   4.623   3.975 -0.9763 -1.6310  0.7808
18047TIP3    H275633  -0.032   4.721   3.974  0.3297 -0.0600  0.4415
18048TIP3   OH275634   5.033   3.197   6.304  0.0083  0.2958 -0.0029
18048TIP3    H175635   4.974   3.226   6.373 -1.5797 -0.5518 -0.9493
18048TIP3    H275636   5.110   3.254   6.312 -1.1064  1.7210  0.9897
18049TIP3   OH275637   6.007   2.719   2.418 -0.4017  0.2077  0.3524
18049TIP3    H175638   5.964   2.639   2.448 -1.7693  1.0246  0.6877
18049TIP3    H275639   6.047   2.696   2.335 -1.3474 -0.6656  0.1258
18050TIP3   OH275640   5.598   2.508  16.732  0.6184  0.0701 -0.4015
18050TIP3    H175641   5.675   2.528  16.786 -0.4759  0.4392  1.0981
18050TIP3    H275642   5.620   2.544  16.646  2.1506  0.0827 -0.0408
18051TIP3   OH275643   6.247   0.097  14.622  0.6158  0.3977  0.2991
18051TIP3    H175644   6.156   0.105  14.593  0.1210 -1.4864  1.1292
18051TIP3    H275645   6.298   0.094  14.542 -0.4381 -1.8826 -0.3876
18052TIP3   OH275646   2.304   0.887  17.004 -0.6239  0.1244  0.1498
18052TIP3    H175647   2.363   0.886  17.079 -0.2866  0.6761 -0.1010
18052TIP3    H275648   2.236   0.823  17.026 -0.0518 -0.3666  0.5336
18053TIP3   OH275649   3.122   5.050   0.628 -0.7176  0.0298 -0.4513
18053TIP3    H175650   3.115   4.986   0.698  1.3379 -0.5838 -0.7339
18053TIP3    H275651   3.181   5.117   0.662  0.2375 -0.2315 -1.5192
18054TIP3   OH275652   6.453   3.310   6.375  0.0923  0.1271 -0.1691
18054TIP3    H175653   6.539   3.346   6.354 -0.0495 -0.4820 -1.9470
18054TIP3    H275654   6.472   3.231   6.426  0.5230  0.6685  0.5327
18055TIP3   OH275655   1.663   0.655  16.143 -0.0652 -0.1378 -0.3859
18055TIP3    H175656   1.751   0.646  16.180  0.9699  2.0452 -2.1353
18055TIP3    H275657   1.636   0.744  16.166 -1.1108 -0.1844 -1.3490
18056TIP3   OH275658   5.942   1.208   1.501 -0.3496 -0.0878  0.5258
18056TIP3    H175659   5.982   1.125   1.528 -0.8554 -0.3222  0.5797
18056TIP3    H275660   6.007   1.275   1.522  0.7454 -0.6112 -1.0028
18057TIP3   OH275661   6.671   5.987   2.954 -0.4331  0.5610 -0.0757
18057TIP3    H175662   6.628   6.052   3.010  1.5420  0.7718  1.3077
18057TIP3    H275663   6.681   5.910   3.011  0.6551  0.4039 -0.4525
18058TIP3   OH275664   0.160   3.081   1.030  0.1440 -0.3080 -0.3445
18058TIP3    H175665   0.218   3.026   0.976 -0.7435 -0.5682 -1.0614
18058TIP3    H275666   0.155   3.164   0.981 -0.3496 -0.4050 -0.4563
18059TIP3   OH275667   0.842   0.600   2.353  0.1818 -0.0723 -0.4352
18059TIP3    H175668   0.817   0.688   2.326 -1.3836  0.6995  2.9813
18059TIP3    H275669   0.917   0.613   2.412 -0.0304 -1.0165  0.0742
18060TIP3   OH275670   1.566   4.901   0.100 -0.2828  0.2906 -0.3162
18060TIP3    H175671   1.528   4.973   0.050  2.3136  0.6995 -1.9186
18060TIP3    H275672   1.612   4.943   0.173 -1.1776 -0.0201  0.4398
18061TIP3   OH275673   2.816   1.868  16.762 -0.1050 -0.0645 -0.4734
18061TIP3    H175674   2.833   1.919  16.683 -1.3013 -0.7039 -1.1720
18061TIP3    H275675   2.755   1.800  16.734 -1.7850  0.5979  1.2948
18062TIP3   OH275676   1.224   0.716   3.295  0.3166 -0.3434  0.5574
18062TIP3    H175677   1.245   0.756   3.380 -0.2890 -0.0183  0.5633
18062TIP3    H275678   1.255   0.780   3.231  0.1851 -0.2906  0.5469
18063TIP3   OH275679   4.672   0.758  16.366 -0.6360 -0.1660  0.3687
18063TIP3    H175680   4.587   0.801  16.351 -0.7535 -1.1863 -2.3583
18063TIP3    H275681   4.665   0.674  16.321  1.7814 -0.3443  0.1908
18064TIP3   OH275682   3.941   3.212   1.374  0.1000 -0.2440 -0.5308
18064TIP3    H175683   3.845   3.219   1.367 -0.0287 -0.5396  0.7362
18064TIP3    H275684   3.959   3.120   1.354 -0.1594 -0.8175  1.6205
18065TIP3   OH275685   1.573   4.600   4.323  0.2484  1.1126 -0.0476
18065TIP3    H175686   1.604   4.597   4.233 -0.3195  1.5814 -0.2622
18065TIP3    H275687   1.497   4.657   4.321  0.6546  1.7272  0.8565
18066TIP3   OH275688   1.809   1.086   6.232 -0.0067 -0.3617  0.4783
18066TIP3    H175689   1.716   1.097   6.249 -0.7216 -0.8027 -2.5081
18066TIP3    H275690   1.835   1.013   6.289 -1.1463  0.5059  2.1985
18067TIP3   OH275691   4.291   5.704  12.457 -0.1317 -0.1499 -0.0787
18067TIP3    H175692   4.313   5.734  12.369  0.9955  0.0831  0.2678
18067TIP3    H275693   4.218   5.760  12.484  0.0761  0.3531 -0.5405
18068TIP3   OH275694   6.777   3.690  11.154  0.3081  0.2565  0.1440
18068TIP3    H175695   6.840   3.623  11.125 -0.7892  0.4152 -2.9659
18068TIP3    H275696   6.817   3.773  11.128 -0.5724  0.4398 -0.6692
18069TIP3   OH275697   4.776   1.734  11.299 -0.2176 -0.8169 -0.5416
18069TIP3    H175698   4.769   1.689  11.383  0.9559 -1.1374 -0.5963
18069TIP3    H275699   4.761   1.826  11.319 -1.3093 -1.0504 -0.2147
18070TIP3   OH275700   6.460   4.470   0.509 -0.0050  0.0005  0.2615
18070TIP3    H175701   6.516   4.441   0.437 -0.8465  0.7260 -0.7106
18070TIP3    H275702   6.448   4.392   0.563 -0.1357 -0.8191 -0.9122
18071TIP3   OH275703   6.342   0.548   3.302 -0.3879 -0.0236  0.4849
18071TIP3    H175704   6.297   0.543   3.217 -0.5356 -0.0653  0.5645
18071TIP3    H275705   6.286   0.606   3.354  0.1596  0.7074  0.2748
18072TIP3   OH275706   0.908   1.594  16.112 -0.1470 -0.1478 -0.3855
18072TIP3    H175707   0.849   1.557  16.178 -0.4203  1.2459  0.2024
18072TIP3    H275708   0.855   1.659  16.066  1.2141  2.1148  1.0432
18073TIP3   OH275709   1.569   0.506   1.194  0.5209  0.0195  0.1467
18073TIP3    H175710   1.591   0.495   1.286  0.7410 -1.5398 -0.0575
18073TIP3    H275711   1.621   0.440   1.148 -1.4190 -0.9532 -0.8049
18074TIP3   OH275712   6.574   6.385  15.636 -0.3034  0.0739  0.0576
18074TIP3    H175713   6.624   6.366  15.556 -1.8677 -2.6829 -0.3735
18074TIP3    H275714   6.493   6.425  15.604 -0.2257  0.4972  0.3942
18075TIP3   OH275715   0.781   5.292  16.636  0.0184  0.1382 -0.2603
18075TIP3    H175716   0.814   5.207  16.667 -0.0380  0.1042 -0.2934
18075TIP3    H275717   0.803   5.294  16.543 -0.8425 -0.2595 -0.4807
18076TIP3   OH275718   3.904   5.077   0.797 -0.2805 -0.5497 -0.0843
18076TIP3    H175719   3.854   5.016   0.743 -1.7909  0.4286  0.1450
18076TIP3    H275720   3.898   5.041   0.886 -0.1187 -0.6971 -0.1304
18077TIP3   OH275721   3.131   5.574  15.100  0.4039  0.3043  0.1440
18077TIP3    H175722   3.130   5.567  15.196 -0.8331  0.4615  0.1599
18077TIP3    H275723   3.055   5.628  15.079  1.5734  1.6515 -0.8498
18078TIP3   OH275724   5.435   1.855  11.115 -0.3357  0.7201  0.1607
18078TIP3    H175725   5.394   1.887  11.035 -2.2333 -0.3495  0.6596
18078TIP3    H275726   5.388   1.898  11.186 -2.3100 -2.2095  0.8232
18079TIP3   OH275727   0.377   0.806   1.028 -0.2800 -0.3742  0.3307
18079TIP3    H175728   0.448   0.804   1.093 -0.7732 -0.4534  0.8817
18079TIP3    H275729   0.301   0.772   1.075 -0.6153 -0.5664 -0.3402
18080TIP3   OH275730   2.890   2.138   1.809  0.0906 -0.2838 -0.1386
18080TIP3    H175731   2.829   2.127   1.737  1.2440  0.2709 -1.2442
18080TIP3    H275732   2.908   2.232   1.812  0.4883 -0.3690  0.5140
18081TIP3   OH275733   3.424   5.322  13.800 -0.0881  0.3848  0.4510
18081TIP3    H175734   3.478   5.336  13.878  0.3403  0.9438  0.0576
18081TIP3    H275735   3.461   5.243  13.759 -0.1394  0.2494  0.6644
18082TIP3   OH275736   2.219   4.081   2.890  0.0908 -0.4624 -0.5298
18082TIP3    H175737   2.204   4.175   2.892 -2.3800 -0.8121  0.9922
18082TIP3    H275738   2.132   4.042   2.903  1.0359 -2.9608 -1.1184
18083TIP3   OH275739   1.705   1.528  13.147  0.3244 -0.3508  0.5179
18083TIP3    H175740   1.744   1.525  13.234 -0.4268  0.5740  0.9009
18083TIP3    H275741   1.619   1.567  13.160  0.0471 -0.5464 -0.5885
18084TIP3   OH275742   3.583   5.030  11.501 -0.6542 -0.4070 -0.3549
18084TIP3    H175743   3.626   4.948  11.480 -2.8722 -1.7092 -0.1171
18084TIP3    H275744   3.495   5.022  11.464 -0.3987  2.6340 -1.9603
18085TIP3   OH275745   6.803   5.966  14.309 -0.3993  0.2175  0.3553
18085TIP3    H175746   6.835   6.012  14.387 -0.7818 -1.6023  1.6581
18085TIP3    H275747   6.882   5.940  14.263 -0.1486  0.6074  0.5553
18086TIP3   OH275748   3.025   2.846   0.959  0.1379  0.0876  0.2394
18086TIP3    H175749   3.100   2.787   0.945 -0.2720 -0.1749 -1.0496
18086TIP3    H275750   3.061   2.934   0.948  0.4210  0.0009  0.4644
18087TIP3   OH275751   5.971   0.730  13.095 -0.6098 -0.4935  0.5135
18087TIP3    H175752   5.883   0.764  13.111  0.1341  1.7200  0.2172
18087TIP3    H275753   5.981   0.660  13.160 -2.1793 -0.0290  1.3123
18088TIP3   OH275754   2.017   3.675   1.882  0.0103 -0.2801  0.4185
18088TIP3    H175755   2.104   3.641   1.904 -0.1962  0.3713  2.4241
18088TIP3    H275756   1.956   3.608   1.913 -0.2491 -0.7624 -1.0315
18089TIP3   OH275757   4.251   3.349   3.339 -0.0244 -0.7636  0.1857
18089TIP3    H175758   4.308   3.272   3.333 -2.0748 -2.2595 -2.7254
18089TIP3    H275759   4.242   3.380   3.249 -1.6537  1.0441  0.8919
18090TIP3   OH275760   6.318   2.201  15.368  0.3027 -0.3927 -0.4209
18090TIP3    H175761   6.245   2.158  15.412  0.0168  0.3553 -0.1457
18090TIP3    H275762   6.396   2.167  15.412  0.0408  0.0432  0.3955
18091TIP3   OH275763   4.380   5.431  15.514 -0.0720  0.2232 -0.1196
18091TIP3    H175764   4.333   5.506  15.479  0.3939  0.3749 -0.4360
18091TIP3    H275765   4.473   5.454  15.504  0.0741 -0.3546 -0.1439
18092TIP3   OH275766   3.850   6.168  14.283 -0.4412  0.1700 -0.6879
18092TIP3    H175767   3.771   6.124  14.252  0.3975 -1.8387 -0.1442
18092TIP3    H275768   3.921   6.109  14.258  0.6744  0.8248  0.7828
18093TIP3   OH275769   0.908   0.287   1.130 -0.3207 -0.3447 -0.4452
18093TIP3    H175770   0.997   0.313   1.107 -1.5588  2.7666 -2.2839
18093TIP3    H275771   0.887   0.216   1.069  0.9342 -1.3465  0.2341
18094TIP3   OH275772   3.824   2.985   0.041 -0.3155 -0.1540 -0.7173
18094TIP3    H175773   3.842   3.079   0.050  0.1968 -0.3372  0.4248
18094TIP3    H275774   3.809   2.972  -0.052  0.8798  0.8449 -1.0790
18095TIP3   OH275775   6.208   6.713   5.149  0.2603  0.0243  0.1216
18095TIP3    H175776   6.262   6.676   5.219 -0.6969 -1.1081  0.2798
18095TIP3    H275777   6.150   6.642   5.122 -0.4972  0.9248 -0.7109
18096TIP3   OH275778   1.181   4.236  14.689 -0.3506 -1.0267  0.5365
18096TIP3    H175779   1.090   4.258  14.705  0.5618  1.6168  3.1470
18096TIP3    H275780   1.200   4.166  14.751 -0.4329 -0.9819  0.6134
18097TIP3   OH275781   3.378   3.722   5.922  0.3644 -1.1035 -0.3684
18097TIP3    H175782   3.377   3.645   5.980 -0.4597 -1.4282 -0.8057
18097TIP3    H275783   3.444   3.700   5.855  0.9764 -0.9249  0.1627
18098TIP3   OH275784   4.981   0.298   3.795  0.1631  0.2620  0.2267
18098TIP3    H175785   4.945   0.357   3.862  0.0442  0.0047  0.3905
18098TIP3    H275786   4.927   0.313   3.718  0.2254  0.4751  0.2236
18099TIP3   OH275787   4.629   5.854  13.818  0.2140 -0.3967  0.2965
18099TIP3    H175788   4.672   5.933  13.852  0.8808  0.3725 -2.0997
18099TIP3    H275789   4.643   5.859  13.723 -2.2627 -1.9197 -0.2217
18100TIP3   OH275790   4.598   1.325  14.667 -0.1727  0.1365  0.4732
18100TIP3    H175791   4.620   1.238  14.702  0.4747 -0.2870 -0.8987
18100TIP3    H275792   4.648   1.331  14.586 -1.2083  1.2834 -0.1077
18101TIP3   OH275793   1.929   1.082   5.311 -0.2155  0.0785  0.0786
18101TIP3    H175794   1.988   1.145   5.353 -2.2028  1.6040  0.7232
18101TIP3    H275795   1.876   1.048   5.383 -1.8996  0.7554 -0.8038
18102TIP3   OH275796   6.470   3.217   4.291  0.6218 -0.5807  0.0304
18102TIP3    H175797   6.427   3.294   4.329  0.1452 -0.1237 -1.3689
18102TIP3    H275798   6.430   3.143   4.335 -1.0663 -0.1282 -0.6749
18103TIP3   OH275799   0.124   0.157  15.004  0.3503 -0.0362  0.3983
18103TIP3    H175800   0.139   0.063  14.992  1.1529  0.0314  0.8604
18103TIP3    H275801   0.077   0.163  15.088  1.4745  0.0633  1.0392
18104TIP3   OH275802   0.057   2.053  16.604  0.0537  0.1393 -0.0012
18104TIP3    H175803   0.117   2.049  16.678  0.7051 -0.7118 -0.5598
18104TIP3    H275804   0.113   2.046  16.527 -0.7654 -0.9045 -0.5255
18105TIP3   OH275805   1.802   6.123  15.323 -0.3040 -0.3577 -0.4839
18105TIP3    H175806   1.827   6.146  15.233 -0.4277  0.1219 -0.3966
18105TIP3    H275807   1.745   6.194  15.351 -2.0784 -1.5788 -0.7862
18106TIP3   OH275808   1.490   6.766  10.600  0.2592  0.5074 -0.0636
18106TIP3    H175809   1.401   6.737  10.619  0.4918  0.1732  0.5420
18106TIP3    H275810   1.481   6.859  10.580 -0.1682  0.5850  0.4683
18107TIP3   OH275811   6.086   0.383   2.830 -0.3381  0.7651 -0.3274
18107TIP3    H175812   6.004   0.432   2.828 -1.5397 -0.8960  2.2002
18107TIP3    H275813   6.062   0.297   2.795  0.3618  0.3412  0.2092
18108TIP3   OH275814   3.000   3.467  13.776 -0.2915 -0.3177  0.0430
18108TIP3    H175815   2.962   3.484  13.862 -0.2005 -0.1015  0.0434
18108TIP3    H275816   3.047   3.548  13.755  1.3336 -1.0586  0.6660
18109TIP3   OH275817   4.792   4.385   5.675  0.5853 -0.0786 -0.5807
18109TIP3    H175818   4.713   4.369   5.624 -2.1369  0.2660  3.0922
18109TIP3    H275819   4.804   4.305   5.727  0.3089  1.1809  1.5776
18110TIP3   OH275820   6.168   2.105   2.337  0.1325  0.9463  0.1383
18110TIP3    H175821   6.123   2.161   2.274 -0.5152 -1.5954 -1.8424
18110TIP3    H275822   6.099   2.079   2.399  0.4262  2.1996  1.0389
18111TIP3   OH275823   2.655   5.732  11.711  0.0208 -0.2623  0.2978
18111TIP3    H175824   2.688   5.651  11.749 -0.3117 -0.3312  0.4488
18111TIP3    H275825   2.722   5.798  11.733  0.4268 -0.5496 -0.0743
18112TIP3   OH275826   2.813   2.352  11.624  0.5212 -0.6725 -0.3497
18112TIP3    H175827   2.883   2.349  11.559 -1.5849 -2.0931 -2.7186
18112TIP3    H275828   2.761   2.274  11.606 -0.8808 -0.4383  2.2810
18113TIP3   OH275829   2.053   0.430  14.362  0.4249  0.0016 -0.4758
18113TIP3    H175830   2.043   0.523  14.342 -0.4131 -0.0788 -0.4498
18113TIP3    H275831   2.070   0.428  14.456  2.7142  0.2654 -0.8260
18114TIP3   OH275832   3.710   3.738  14.841  0.1570 -0.5178 -0.0401
18114TIP3    H175833   3.626   3.692  14.838  1.6539 -3.6087  1.4200
18114TIP3    H275834   3.743   3.734  14.752 -1.4850  1.4475 -0.8240
18115TIP3   OH275835   1.130   5.143  11.981  0.6983  1.0638  0.0909
18115TIP3    H175836   1.047   5.104  11.953 -0.2999  1.7010  2.0026
18115TIP3    H275837   1.171   5.076  12.035  0.7032  1.3135  0.3990
18116TIP3   OH275838   3.832   3.927   5.381  0.3695  0.3853 -0.9260
18116TIP3    H175839   3.760   3.886   5.428  0.2193 -1.4867 -2.6546
18116TIP3    H275840   3.905   3.865   5.390  1.3045  1.5017 -0.5311
18117TIP3   OH275841   3.356   1.149  13.943  0.1007 -0.0570 -0.2115
18117TIP3    H175842   3.406   1.100  14.008 -0.4043 -1.0748 -0.5617
18117TIP3    H275843   3.400   1.234  13.937 -0.5937  0.5589  2.3941
18118TIP3   OH275844   4.590   1.397   5.436  0.0191 -0.1717 -0.3492
18118TIP3    H175845   4.624   1.439   5.515  3.9336  0.5630 -2.1470
18118TIP3    H275846   4.597   1.303   5.455 -0.7673 -0.0174  0.7691
18119TIP3   OH275847   4.369   6.269   1.254 -0.5870  0.9332  0.1425
18119TIP3    H175848   4.297   6.310   1.302  1.6692  3.2378  1.7880
18119TIP3    H275849   4.427   6.341   1.230  0.7300 -0.7087 -2.0641
18120TIP3   OH275850   0.551   5.374  17.206  0.7553  0.5393 -1.0424
18120TIP3    H175851   0.487   5.352  17.138 -0.4382 -1.2040  0.5659
18120TIP3    H275852   0.516   5.451  17.249  0.2895  0.2287 -0.8660
18121TIP3   OH275853   3.001   3.384   2.207 -0.3722  0.5993 -0.5168
18121TIP3    H175854   2.917   3.429   2.215  0.0230  1.0211  2.5459
18121TIP3    H275855   3.065   3.446   2.242  0.9552 -0.3905 -1.1087
18122TIP3   OH275856   3.436   3.674  12.948  0.4637  0.6355 -0.0050
18122TIP3    H175857   3.377   3.736  12.992  1.2432  0.7005  0.9696
18122TIP3    H275858   3.447   3.603  13.011  0.8757  0.2955 -0.4607
18123TIP3   OH275859   1.175   6.125  12.498 -0.4538  0.1499 -0.1349
18123TIP3    H175860   1.100   6.126  12.557 -0.1932 -2.7704  0.3717
18123TIP3    H275861   1.172   6.039  12.456  0.8601  1.1451 -2.4741
18124TIP3   OH275862   3.895   1.123  15.974 -0.7093 -0.2610  0.6014
18124TIP3    H175863   3.953   1.096  15.903 -0.9170  0.6799  0.0579
18124TIP3    H275864   3.812   1.077  15.957 -0.6196 -0.3833  0.4926
18125TIP3   OH275865   0.589   5.832  14.969 -0.3498  0.1714  0.3507
18125TIP3    H175866   0.528   5.759  14.966 -0.5160  0.2671  1.2165
18125TIP3    H275867   0.650   5.811  15.040  1.0788 -0.2605 -0.9394
18126TIP3   OH275868   4.064   0.236   1.791 -0.3785 -0.1559 -1.2613
18126TIP3    H175869   4.103   0.308   1.742 -1.3054  0.9117 -0.4808
18126TIP3    H275870   3.994   0.276   1.841 -0.0272 -1.3773  0.2805
18127TIP3   OH275871   3.935   5.843   2.929 -0.0972  0.5217  0.2342
18127TIP3    H175872   3.903   5.921   2.883  1.2161 -0.2473 -2.2091
18127TIP3    H275873   3.998   5.876   2.992 -1.3970  1.5758  1.0466
18128TIP3   OH275874   2.782   5.000  14.958 -0.3886  0.1527 -0.0498
18128TIP3    H175875   2.863   5.050  14.969 -0.8065  0.3135  3.3370
18128TIP3    H275876   2.713   5.067  14.962 -0.8026 -0.0463 -2.3629
18129TIP3   OH275877   2.939   6.664  13.488  0.0739  0.3849 -0.3639
18129TIP3    H175878   2.887   6.740  13.514  0.6509  0.3893  0.8454
18129TIP3    H275879   2.960   6.679  13.396 -2.0807  0.3577 -0.9075
18130TIP3   OH275880   5.443   1.569  16.377 -0.1363  0.1359  0.2574
18130TIP3    H175881   5.432   1.492  16.321 -0.6691  0.6661 -0.3606
18130TIP3    H275882   5.447   1.532  16.466  2.5419 -0.8943 -0.1949
18131TIP3   OH275883   6.478   6.309   3.367  0.1259 -0.0723 -0.1130
18131TIP3    H175884   6.463   6.250   3.441  1.4834 -0.7992 -0.3918
18131TIP3    H275885   6.481   6.396   3.406 -1.8301 -0.1372  0.3181
18132TIP3   OH275886   0.553   3.186  15.727 -0.3522 -0.3192 -0.1628
18132TIP3    H175887   0.522   3.119  15.787 -0.1054  0.6919  1.1274
18132TIP3    H275888   0.474   3.217  15.683 -0.4031 -1.8497 -1.2579
18133TIP3   OH275889   1.791   2.431  10.581 -0.0116 -0.1620  0.1340
18133TIP3    H175890   1.860   2.388  10.630 -0.6333 -0.8405  0.4258
18133TIP3    H275891   1.710   2.407  10.626 -0.5638 -0.5506 -1.0373
18134TIP3   OH275892   6.003   4.500  14.272 -0.2840  1.3724  0.5656
18134TIP3    H175893   5.971   4.457  14.192 -1.8309  1.4374  1.1342
18134TIP3    H275894   6.019   4.428  14.333 -0.3609  1.4181  0.6396
18135TIP3   OH275895   6.004   5.950  17.000  0.0720  0.1073 -0.1643
18135TIP3    H175896   6.028   5.983  16.914  0.9412 -2.4873 -1.0230
18135TIP3    H275897   5.976   5.860  16.984  0.2298 -0.4400  2.2593
18136TIP3   OH275898   3.339   1.988  11.423 -0.2718 -0.1158  0.5262
18136TIP3    H175899   3.341   1.962  11.516 -0.1392  2.0789  1.1921
18136TIP3    H275900   3.369   2.079  11.423  0.8831 -0.4292 -1.8422
18137TIP3   OH275901   0.659   0.650   4.135  0.1830  0.0899 -0.2540
18137TIP3    H175902   0.699   0.717   4.190  2.4814 -0.9071 -0.6069
18137TIP3    H275903   0.598   0.698   4.079 -1.6827  1.2345  2.5545
18138TIP3   OH275904   2.282   5.912  14.916 -0.1870 -0.2844 -0.1918
18138TIP3    H175905   2.231   5.965  14.976 -0.8958 -1.1062 -0.0481
18138TIP3    H275906   2.288   5.965  14.836 -2.1492 -0.5598 -0.5755
18139TIP3   OH275907   5.259   0.156   6.755 -0.1209 -0.3834 -0.0039
18139TIP3    H175908   5.286   0.231   6.808  0.5804 -2.4071  2.6676
18139TIP3    H275909   5.340   0.119   6.722 -0.1530 -1.9229  1.5524
18140TIP3   OH275910   3.350   4.558  15.799 -0.5988 -0.0079 -0.6160
18140TIP3    H175911   3.299   4.636  15.819 -1.9969 -0.9742 -0.2695
18140TIP3    H275912   3.314   4.526  15.716  0.9482  0.4929 -1.5304
18141TIP3   OH275913   1.416   3.376   3.653 -0.3809 -0.2715  0.1605
18141TIP3    H175914   1.334   3.395   3.608 -0.1645 -0.6884 -0.4206
18141TIP3    H275915   1.482   3.378   3.584 -0.2085 -2.0990  0.2341
18142TIP3   OH275916   3.831   0.468  13.169  0.2639 -0.1570  0.0653
18142TIP3    H175917   3.903   0.488  13.228 -0.1959 -1.9972  1.3480
18142TIP3    H275918   3.865   0.399  13.112 -0.2271 -0.4674  0.1390
18143TIP3   OH275919   5.517   3.242   2.031 -0.2431  0.0067 -0.3615
18143TIP3    H175920   5.531   3.205   2.118 -0.0704  0.6507 -0.1068
18143TIP3    H275921   5.600   3.230   1.986 -0.2261 -0.0247 -0.3221
18144TIP3   OH275922   1.091   1.336   3.883 -0.4620  0.1376 -0.6170
18144TIP3    H175923   1.116   1.244   3.881  1.2582  0.5408  0.1265
18144TIP3    H275924   0.997   1.336   3.896 -0.6307 -1.5146 -1.6344
18145TIP3   OH275925   4.439   1.163   3.175  0.1920  0.4479 -0.0972
18145TIP3    H175926   4.511   1.101   3.185  0.3011  0.7728  1.3878
18145TIP3    H275927   4.366   1.123   3.223 -0.5294  0.3047 -1.2569
18146TIP3   OH275928   3.719   5.895  12.477  0.5050 -0.1479 -0.4848
18146TIP3    H175929   3.662   5.926  12.548 -1.0186 -2.3834 -0.6152
18146TIP3    H275930   3.807   5.895  12.515  0.3841  2.5358  0.0248
18147TIP3   OH275931   0.711   0.066  14.780  0.8983 -0.0876 -0.2463
18147TIP3    H175932   0.658   0.130  14.732  0.7549 -0.4365 -0.5597
18147TIP3    H275933   0.700   0.090  14.872  0.2995 -0.0755 -0.3183
18148TIP3   OH275934   4.091   2.646  15.986  0.2053  0.9109 -0.4482
18148TIP3    H175935   4.047   2.706  15.925  0.0583  1.4879  0.2105
18148TIP3    H275936   4.036   2.648  16.064 -0.2369 -0.7018 -0.6823
18149TIP3   OH275937   5.276   0.966   1.556  0.0242  0.5400  0.2687
18149TIP3    H175938   5.365   0.977   1.590  1.0154 -0.7195 -1.7267
18149TIP3    H275939   5.279   1.003   1.468 -0.9643 -0.9070 -0.4124
18150TIP3   OH275940   2.490   2.546  13.961 -0.3839 -0.6843 -0.0925
18150TIP3    H175941   2.583   2.561  13.943 -0.1982 -1.1434  0.4764
18150TIP3    H275942   2.475   2.582  14.048 -0.4596 -1.6737  0.3203
18151TIP3   OH275943   1.425   3.047  16.671  0.8285  0.0816 -0.2984
18151TIP3    H175944   1.402   2.964  16.714 -0.6991 -0.2455 -1.6570
18151TIP3    H275945   1.465   3.022  16.589 -1.0883  0.6010 -1.4701
18152TIP3   OH275946   4.458   1.665   0.811 -0.2918 -0.6814  0.4129
18152TIP3    H175947   4.545   1.634   0.839  0.5074 -0.5921 -1.7733
18152TIP3    H275948   4.470   1.691   0.720 -1.7888  2.7347  1.0319
18153TIP3   OH275949   3.918   1.683   0.822  0.1326  0.1408 -0.4996
18153TIP3    H175950   3.905   1.610   0.882  0.1744 -0.5322 -1.2935
18153TIP3    H275951   3.895   1.648   0.736  0.2238  1.0409 -0.8999
18154TIP3   OH275952   0.013   3.807  17.060 -0.0385  0.6319 -0.8218
18154TIP3    H175953   0.051   3.825  16.974 -0.0755 -0.3332 -1.0554
18154TIP3    H275954   0.088   3.777  17.113  0.0132  1.3777 -0.4691
18155TIP3   OH275955   0.856   6.372   2.434 -0.9460 -0.0487 -0.6159
18155TIP3    H175956   0.898   6.324   2.363  0.4414  1.0066 -0.5570
18155TIP3    H275957   0.841   6.460   2.397  0.6891  0.8233  0.6440
18156TIP3   OH275958   2.093   4.221   0.034  0.1269 -0.3920 -0.4208
18156TIP3    H175959   2.154   4.213   0.108 -1.0863  0.5979  0.7463
18156TIP3    H275960   2.136   4.175  -0.038  1.8256 -0.4998  0.6093
18157TIP3   OH275961   4.316   5.253  16.879 -0.0639 -0.1600 -0.2485
18157TIP3    H175962   4.271   5.322  16.926  0.2173 -0.7686  0.9495
18157TIP3    H275963   4.295   5.269  16.787 -0.1613  1.3840  0.0186
18158TIP3   OH275964   5.728   5.623  14.206  0.1396 -0.0646 -0.1686
18158TIP3    H175965   5.817   5.627  14.242 -0.3831  0.6265  1.1035
18158TIP3    H275966   5.686   5.552  14.255 -0.8900  1.5419  1.3913
18159TIP3   OH275967   4.767   1.305  15.119  0.3020  0.2381 -0.0107
18159TIP3    H175968   4.676   1.313  15.090  0.1809 -0.0147  0.2918
18159TIP3    H275969   4.800   1.395  15.119  0.1197  0.3081 -0.3281
18160TIP3   OH275970   3.463   6.216   3.922  0.5966 -0.2136  0.1234
18160TIP3    H175971   3.401   6.233   3.852 -0.1889  0.3728  0.9276
18160TIP3    H275972   3.471   6.300   3.968 -1.3209 -1.2346  2.6038
18161TIP3   OH275973   2.605   5.964   2.660 -0.1865 -0.1949 -0.5085
18161TIP3    H175974   2.519   6.000   2.639  0.0915  0.3143 -0.8128
18161TIP3    H275975   2.591   5.913   2.740 -1.0817 -1.4303 -1.4215
18162TIP3   OH275976   6.681   3.211   2.060 -0.0190  0.1718  0.2179
18162TIP3    H175977   6.669   3.270   1.986 -0.2950  0.9036  0.8337
18162TIP3    H275978   6.761   3.241   2.103  0.9724 -1.1644 -0.5963
18163TIP3   OH275979   5.251   1.056  12.636  0.1541 -0.0191 -0.1203
18163TIP3    H175980   5.156   1.055  12.653  0.3807 -0.9803  1.3033
18163TIP3    H275981   5.259   1.034  12.543 -1.0746  2.2817 -0.8492
18164TIP3   OH275982   0.317   3.825   6.385 -0.4454  0.2370  0.3750
18164TIP3    H175983   0.297   3.910   6.424  0.2583  0.7325 -0.3078
18164TIP3    H275984   0.402   3.801   6.423  0.4631  0.9322 -1.1046
18165TIP3   OH275985   2.013   1.054   0.861  0.1431 -0.4197 -0.4260
18165TIP3    H175986   2.036   1.099   0.942  0.5873 -1.1458 -0.1370
18165TIP3    H275987   1.960   0.979   0.889 -0.9119  0.1181 -0.9303
18166TIP3   OH275988   3.334   4.622   0.660 -0.3794  0.6891  0.4773
18166TIP3    H175989   3.267   4.596   0.598  0.6098  0.3704 -0.4835
18166TIP3    H275990   3.368   4.705   0.627  2.5218 -1.0828 -1.4507
18167TIP3   OH275991   4.363   5.994  13.631 -0.3932 -0.1695 -0.1566
18167TIP3    H175992   4.410   6.009  13.548 -0.1767  0.0598  0.0044
18167TIP3    H275993   4.413   5.925  13.674  0.0310  0.3394  0.1880
18168TIP3   OH275994   5.430   6.619  11.854 -0.9706  0.7309  0.2837
18168TIP3    H175995   5.426   6.682  11.926  1.9798  2.4410 -0.8640
18168TIP3    H275996   5.407   6.535  11.894  1.0751  1.4829  3.3948
18169TIP3   OH275997   0.657   2.972  12.748 -0.2151 -0.0211 -0.7877
18169TIP3    H175998   0.690   2.928  12.670  1.2912  1.3575 -0.9567
18169TIP3    H275999   0.590   3.032  12.716 -1.8262 -1.6039 -0.6199
18170TIP3   OH276000   4.160   4.504  14.592  0.1631 -0.2970 -0.4538
18170TIP3    H176001   4.069   4.474  14.587  0.1039 -0.0742 -0.7454
18170TIP3    H276002   4.203   4.440  14.648  0.3080 -1.6312 -2.0113
18171TIP3   OH276003   1.811   2.770  15.740 -0.3669 -0.1184  0.0985
18171TIP3    H176004   1.778   2.782  15.830  0.8820  0.1381  0.5382
18171TIP3    H276005   1.734   2.741  15.691 -1.5126  1.5055  0.8426
18172TIP3   OH276006   5.786   0.481   4.991 -0.0063 -0.4413 -0.4793
18172TIP3    H176007   5.815   0.569   4.965  0.2882 -0.8163 -1.4791
18172TIP3    H276008   5.711   0.497   5.048  0.4155  0.4733 -0.1583
18173TIP3   OH276009   2.914   6.819   2.542  0.1928 -0.5157  0.1282
18173TIP3    H176010   2.886   6.748   2.485 -1.6670 -1.9519  2.6309
18173TIP3    H276011   2.998   6.790   2.577  1.0336  0.0886 -1.2938
18174TIP3   OH276012   2.937   4.672   1.603 -0.5663  0.6922  0.5318
18174TIP3    H176013   2.930   4.765   1.582  0.5189  0.5250 -0.7376
18174TIP3    H276014   2.870   4.630   1.550 -0.3030  0.6466  0.2305
18175TIP3   OH276015   6.760   1.922   2.868  0.3435  0.0183 -0.0937
18175TIP3    H176016   6.736   1.857   2.802 -0.7842  0.2346  0.0774
18175TIP3    H276017   6.807   1.873   2.935  0.1423 -0.4840 -0.3151
18176TIP3   OH276018   2.608   5.091  16.613 -0.5672  0.3880 -0.1848
18176TIP3    H176019   2.700   5.088  16.587 -0.2753  1.5038  0.6555
18176TIP3    H276020   2.578   5.000  16.608  1.1362 -0.3174  1.4589
18177TIP3   OH276021   6.069   4.797  11.833 -0.6569  0.1921  0.8214
18177TIP3    H176022   6.014   4.872  11.811 -0.8535 -0.2428 -0.2126
18177TIP3    H276023   6.159   4.828  11.821 -0.7470  0.1585  0.0150
18178TIP3   OH276024   2.445   6.312   1.548  0.1285 -0.1282 -0.2602
18178TIP3    H176025   2.427   6.219   1.564 -1.3365  0.2174  0.2096
18178TIP3    H276026   2.445   6.320   1.452 -0.5110 -0.4718 -0.2920
18179TIP3   OH276027   5.251   3.676  12.323  0.1698  0.1519  0.6871
18179TIP3    H176028   5.195   3.708  12.395 -2.0186 -1.1581 -0.3381
18179TIP3    H276029   5.291   3.596  12.357  2.5885  1.7307  1.8721
18180TIP3   OH276030   4.474   1.414   6.107  0.2661  0.0055  0.5573
18180TIP3    H176031   4.524   1.333   6.115 -0.3335 -0.5777 -1.0729
18180TIP3    H276032   4.483   1.457   6.192  0.3581 -1.9018  1.5580
18181TIP3   OH276033   0.944   0.307   0.074 -0.7658  0.1534  0.3477
18181TIP3    H176034   0.918   0.399   0.062 -1.8900 -0.0539  1.1336
18181TIP3    H276035   0.979   0.303   0.163  0.1660  0.0059 -0.0143
18182TIP3   OH276036   0.447   0.286  13.999 -0.4590 -0.3117 -0.7349
18182TIP3    H176037   0.510   0.231  14.044 -1.3300  0.0944  1.0691
18182TIP3    H276038   0.449   0.256  13.908  1.2121 -1.2951 -0.4092
18183TIP3   OH276039   4.271   2.266   5.469 -0.0867  0.4498  0.4642
18183TIP3    H176040   4.213   2.287   5.396 -0.0998  0.7460  0.5586
18183TIP3    H276041   4.342   2.330   5.463  0.6630 -0.4053 -0.1272
18184TIP3   OH276042   1.961   1.707  15.582  0.1597  0.4909 -1.1919
18184TIP3    H176043   1.885   1.753  15.546  1.3704  1.7067 -2.2727
18184TIP3    H276044   2.008   1.675  15.505  0.2816 -1.0657 -0.5104
18185TIP3   OH276045   5.065   0.111   0.943  0.5705 -0.0888  0.0794
18185TIP3    H176046   4.983   0.064   0.923  0.2471  0.3794  0.2919
18185TIP3    H276047   5.048   0.201   0.917  0.7814  0.1535  0.7577
18186TIP3   OH276048   5.637   5.698  14.600 -0.3722  0.1131 -0.0793
18186TIP3    H176049   5.727   5.686  14.628 -0.1707  1.7661  0.1006
18186TIP3    H276050   5.633   5.656  14.514  0.8761  0.9018 -0.5596
18187TIP3   OH276051   1.321   5.604   0.855  0.2108 -0.0380 -0.2555
18187TIP3    H176052   1.319   5.559   0.771 -2.1424  1.7299 -1.2557
18187TIP3    H276053   1.414   5.604   0.880  0.8268 -1.5939 -2.2614
18188TIP3   OH276054   6.290   1.308   7.109  0.0559 -0.1216  0.3894
18188TIP3    H176055   6.250   1.229   7.145 -2.0299  0.3280 -0.7932
18188TIP3    H276056   6.264   1.309   7.017  1.4690  1.0763 -0.0467
18189TIP3   OH276057   6.233   1.934  13.959 -0.3000  0.0194 -0.0128
18189TIP3    H176058   6.322   1.965  13.942 -0.1608  0.6293  1.6465
18189TIP3    H276059   6.187   2.011  13.995 -2.0507  0.2414 -2.4438
18190TIP3   OH276060   0.667   1.102   5.128  0.1924  0.1703 -0.2889
18190TIP3    H176061   0.732   1.139   5.068  1.4527  0.7287  1.3491
18190TIP3    H276062   0.588   1.153   5.112  0.7518  0.8823 -0.8629
18191TIP3   OH276063   6.808   1.390  10.794 -0.4303  0.0113 -0.1544
18191TIP3    H176064   6.869   1.449  10.751 -0.1585 -0.0232  0.1853
18191TIP3    H276065   6.724   1.437  10.793 -0.9015 -0.7601 -2.4503
18192TIP3   OH276066   2.876   6.600   5.538  0.3678 -0.4926 -0.1164
18192TIP3    H176067   2.876   6.504   5.532  0.7171 -0.4544 -0.8136
18192TIP3    H276068   2.795   6.621   5.585 -0.1178 -1.0904 -0.6635
18193TIP3   OH276069   0.348   0.678   5.363  0.3710  0.4785  0.0200
18193TIP3    H176070   0.395   0.747   5.316 -0.1299  0.0041 -1.2202
18193TIP3    H276071   0.406   0.602   5.359  0.5856  0.6003  0.7076
18194TIP3   OH276072   3.797   3.553   4.699 -0.7411 -0.1418  0.3834
18194TIP3    H176073   3.863   3.561   4.768 -1.7537  0.4755  1.3180
18194TIP3    H276074   3.718   3.592   4.737 -1.7050 -1.0387 -0.6255
18195TIP3   OH276075   4.484   2.180  13.704  0.6761  0.5697  0.0149
18195TIP3    H176076   4.524   2.108  13.753  0.4591  1.5492  1.7061
18195TIP3    H276077   4.396   2.188  13.740  0.9890  2.2295  0.5061
18196TIP3   OH276078   0.376   5.726   1.755  0.2139  0.2663  0.6791
18196TIP3    H176079   0.350   5.760   1.670 -0.1201 -0.7161  0.3764
18196TIP3    H276080   0.375   5.802   1.813  1.1146  1.0845 -0.3313
18197TIP3   OH276081   6.060   5.728  12.817 -0.3486 -0.0625  1.0636
18197TIP3    H176082   6.015   5.647  12.843 -0.5483  0.0630  1.1089
18197TIP3    H276083   6.006   5.798  12.852 -1.4574  0.1676 -0.9736
18198TIP3   OH276084   4.762   3.870  12.723 -0.5601 -0.1540  0.1201
18198TIP3    H176085   4.795   3.902  12.807  0.5520 -0.1577 -0.2956
18198TIP3    H276086   4.841   3.843  12.675 -1.2883 -1.4662 -0.3859
18199TIP3   OH276087   6.104   5.306   2.673  0.3288  0.2840 -0.0101
18199TIP3    H176088   6.059   5.296   2.758 -3.0028  3.1660 -1.1931
18199TIP3    H276089   6.122   5.216   2.646 -0.7850 -0.8560  2.6209
18200TIP3   OH276090   3.967   5.236  14.064 -0.2321 -0.1240 -0.1695
18200TIP3    H176091   3.946   5.327  14.087 -0.5930 -0.4399  0.7747
18200TIP3    H276092   3.942   5.228  13.972  0.0480  0.8068 -0.3398
18201TIP3   OH276093   1.619   1.956   4.752 -0.4097 -0.2177  0.0415
18201TIP3    H176094   1.553   1.971   4.819  1.1989 -2.1052  2.2409
18201TIP3    H276095   1.627   2.040   4.706 -0.2513  1.8745  3.5245
18202TIP3   OH276096   5.202   4.254   3.320 -0.6526 -0.2933  0.0294
18202TIP3    H176097   5.145   4.241   3.244 -0.1718  0.8669 -0.5697
18202TIP3    H276098   5.286   4.216   3.293 -0.6030 -0.2641  0.1441
18203TIP3   OH276099   5.278   4.480   2.699  0.0332 -0.1822 -0.8798
18203TIP3    H176100   5.261   4.547   2.633  1.7864  2.1553  0.8335
18203TIP3    H276101   5.225   4.508   2.774  0.4082 -0.9907 -0.3048
18204TIP3   OH276102   0.708   5.500  16.259 -0.0303 -0.0639 -0.0483
18204TIP3    H176103   0.726   5.579  16.310  1.1928 -0.4749  0.1893
18204TIP3    H276104   0.679   5.533  16.173  1.1643  0.6562 -0.1944
18205TIP3   OH276105   4.088   5.454  16.296 -0.1192  0.1158  0.3380
18205TIP3    H176106   4.132   5.539  16.291  0.3489 -0.1704 -1.3319
18205TIP3    H276107   3.995   5.475  16.295 -0.2371  0.6907 -4.8681
18206TIP3   OH276108   0.967   4.000   0.604  0.6307 -0.2311 -0.4086
18206TIP3    H176109   1.026   4.017   0.531 -0.1747 -0.6870 -1.1867
18206TIP3    H276110   0.906   3.934   0.571 -1.5451  1.6109 -0.3218
18207TIP3   OH276111   5.125   6.433   0.452 -0.1017  0.4340  0.6187
18207TIP3    H176112   5.214   6.451   0.420 -1.0354  1.8943 -1.3537
18207TIP3    H276113   5.123   6.338   0.464  1.5082  0.2866  0.0304
18208TIP3   OH276114   6.452   2.416   2.014  0.2068 -0.6074 -0.6715
18208TIP3    H176115   6.504   2.369   1.948  1.7500 -0.6440  0.5106
18208TIP3    H276116   6.388   2.352   2.045 -0.2851 -0.7075 -1.8346
18209TIP3   OH276117   4.413   0.165  16.261  0.3418 -0.2446 -0.8300
18209TIP3    H176118   4.446   0.133  16.178  1.6045  0.7011 -0.7186
18209TIP3    H276119   4.333   0.213  16.238  0.8728  0.3131 -1.5581
18210TIP3   OH276120   2.605   5.402   0.340 -0.1004  0.1749  0.0195
18210TIP3    H176121   2.668   5.344   0.383 -0.0565  0.4499  0.3373
18210TIP3    H276122   2.537   5.417   0.406  0.5419  1.5151  0.4142
18211TIP3   OH276123   3.464   2.895   5.701  0.0215 -0.1147  0.0842
18211TIP3    H176124   3.550   2.857   5.721  0.2097 -0.8715 -1.9219
18211TIP3    H276125   3.405   2.856   5.765  1.1627  0.4799  1.5461
18212TIP3   OH276126   3.779   5.487   2.861 -0.4839  0.3939  0.1811
18212TIP3    H176127   3.832   5.459   2.786 -0.3266  3.2223 -0.8693
18212TIP3    H276128   3.736   5.407   2.890  0.5893 -1.0930 -1.9908
18213TIP3   OH276129   6.206   1.393  13.498  0.0547  0.0456  0.6109
18213TIP3    H176130   6.132   1.444  13.531 -0.3824 -1.1199  1.4877
18213TIP3    H276131   6.188   1.384  13.404 -0.7606  0.0588  0.7535
18214TIP3   OH276132   3.627   2.135  17.180 -0.6771  0.1289  0.0545
18214TIP3    H176133   3.699   2.196  17.194  0.1727 -0.2444 -2.2110
18214TIP3    H276134   3.574   2.175  17.112 -1.5552 -0.4711  0.3734
18215TIP3   OH276135   2.372   6.625  13.326  0.1839 -0.1008 -0.1610
18215TIP3    H176136   2.384   6.544  13.275  0.1839  1.0979 -2.1988
18215TIP3    H276137   2.460   6.664  13.328 -0.1229  0.6192 -0.5996
18216TIP3   OH276138   4.753   4.478  15.134  0.1608 -0.1948  0.3095
18216TIP3    H176139   4.695   4.466  15.059 -0.7299 -1.8347  1.2092
18216TIP3    H276140   4.724   4.413  15.198  1.2645  0.7588  1.8598
18217TIP3   OH276141   6.764   0.951  11.785 -0.1056 -0.4442 -0.2397
18217TIP3    H176142   6.818   0.994  11.719  0.8071 -1.0352  0.1096
18217TIP3    H276143   6.826   0.906  11.842 -1.0349 -2.4632 -0.7385
18218TIP3   OH276144   1.501   1.687   3.725 -0.0817 -0.3620 -0.0318
18218TIP3    H176145   1.421   1.643   3.694 -0.4382  1.7533 -2.4885
18218TIP3    H276146   1.469   1.758   3.780  0.2064 -0.3488  0.1201
18219TIP3   OH276147   5.013   1.688  14.256  0.2977 -0.7036 -0.1594
18219TIP3    H176148   5.000   1.696  14.161  1.1358  1.0428 -0.1829
18219TIP3    H276149   4.925   1.697  14.293  0.2187  1.4809 -0.6968
18220TIP3   OH276150   6.650   0.750   1.199  0.1357  0.2213  0.7620
18220TIP3    H176151   6.659   0.655   1.212 -1.1598  0.0921  0.7908
18220TIP3    H276152   6.572   0.760   1.144  0.5112  1.2545  0.3923
18221TIP3   OH276153   3.318   2.160  13.392  0.2445 -0.7218 -0.2392
18221TIP3    H176154   3.271   2.185  13.311  1.5793 -0.7510 -1.0454
18221TIP3    H276155   3.359   2.242  13.421  0.5187 -0.9083 -0.1040
18222TIP3   OH276156   1.830   1.399   2.467 -0.2287  0.0211 -0.0158
18222TIP3    H176157   1.911   1.354   2.443 -0.2149  0.9780 -1.9624
18222TIP3    H276158   1.766   1.369   2.402 -1.5973 -0.9932  1.6911
18223TIP3   OH276159   6.226   5.738   3.992 -0.8985  0.1477 -0.4806
18223TIP3    H176160   6.156   5.717   4.053 -0.2988  0.4140  0.3184
18223TIP3    H276161   6.203   5.825   3.958 -0.5654  0.5869  0.3831
18224TIP3   OH276162   3.933   4.046   0.452 -0.2631  0.0746  0.4570
18224TIP3    H176163   3.997   3.979   0.427 -0.8863 -0.1679 -0.5353
18224TIP3    H276164   3.852   3.998   0.467 -0.6632  0.5726 -0.0607
18225TIP3   OH276165   0.832   0.109  10.845 -0.1205 -0.1641  0.2904
18225TIP3    H176166   0.811   0.097  10.753 -0.4680  2.2974  0.0048
18225TIP3    H276167   0.900   0.176  10.847  1.1157 -1.3621  1.7672
18226TIP3   OH276168   2.830   1.364  12.353  0.1723  0.1051  0.1345
18226TIP3    H176169   2.884   1.388  12.428  1.5582 -1.7316 -0.2157
18226TIP3    H276170   2.834   1.269  12.350 -2.2511 -0.0546 -0.5654
18227TIP3   OH276171   0.622   4.407  15.569  0.0278  0.2621  0.3441
18227TIP3    H176172   0.529   4.388  15.580  0.4627 -1.1926  1.9826
18227TIP3    H276173   0.628   4.452  15.485 -1.9370 -1.3127 -0.7273
18228TIP3   OH276174   4.628   2.055   3.905 -0.3743 -0.2916 -0.1979
18228TIP3    H176175   4.539   2.081   3.931 -0.8998 -1.0081 -1.2148
18228TIP3    H276176   4.678   2.058   3.986 -1.4857 -0.5129  0.5227
18229TIP3   OH276177   6.702   5.459   2.587 -0.6440  0.0035 -0.0900
18229TIP3    H176178   6.721   5.399   2.659 -1.6494 -0.1338  0.0732
18229TIP3    H276179   6.614   5.491   2.605 -0.1042  1.6199 -0.1206
18230TIP3   OH276180   5.906   0.339  13.971 -0.0229 -0.1345 -0.1115
18230TIP3    H176181   5.982   0.301  14.015  1.9329  1.2804 -2.0130
18230TIP3    H276182   5.927   0.333  13.878 -3.1179 -1.3212 -0.8624
18231TIP3   OH276183   4.241   4.480  15.589 -0.0688  0.0516  0.2298
18231TIP3    H176184   4.328   4.520  15.592 -0.2116  0.3946 -0.0574
18231TIP3    H276185   4.237   4.422  15.665  0.4689 -0.0841  0.1546
18232TIP3   OH276186   1.381   4.830  14.390  0.1390  0.3975  0.1441
18232TIP3    H176187   1.350   4.897  14.330 -3.2350  0.6408  1.9313
18232TIP3    H276188   1.375   4.871  14.477  2.6966 -0.6780  0.9156
18233TIP3   OH276189   2.329   0.399  11.155 -0.2589 -0.5561  0.1300
18233TIP3    H176190   2.306   0.403  11.247  0.0706  0.3999  0.1818
18233TIP3    H276191   2.420   0.429  11.151  0.4296 -2.5647 -0.2790
18234TIP3   OH276192   3.813   2.622   6.326  0.7520 -0.0389  0.0379
18234TIP3    H176193   3.836   2.553   6.264 -0.8552 -0.1953 -0.4509
18234TIP3    H276194   3.896   2.650   6.364  1.4458 -2.3084  0.3296
18235TIP3   OH276195   5.344   5.414  17.144  0.2759  0.0671 -0.5869
18235TIP3    H176196   5.273   5.351  17.153  0.5355 -0.2997 -1.0322
18235TIP3    H276197   5.336   5.471  17.220 -0.0767 -0.3938 -0.2734
18236TIP3   OH276198   3.758   0.568   0.431  0.7143 -0.0825  0.3879
18236TIP3    H176199   3.798   0.513   0.365 -1.4588 -1.4434  0.1100
18236TIP3    H276200   3.665   0.547   0.427 -0.4275  4.1747 -0.2764
18237TIP3   OH276201   0.980   1.191  14.070 -0.0316 -0.4889 -0.1261
18237TIP3    H176202   1.052   1.128  14.060 -0.7858 -1.7191  1.7300
18237TIP3    H276203   1.024   1.275  14.084  1.0113 -0.8586 -1.0035
18238TIP3   OH276204   2.228   1.443   4.348 -0.3528 -0.1433 -0.0703
18238TIP3    H176205   2.309   1.409   4.386 -0.3178 -1.1376 -0.9737
18238TIP3    H276206   2.202   1.376   4.285 -0.4984  1.3534 -1.6620
18239TIP3   OH276207   2.895   0.658  12.032  0.3181  0.3558  0.1050
18239TIP3    H176208   2.937   0.614  12.106 -0.3217 -0.3244  0.0804
18239TIP3    H276209   2.855   0.586  11.982 -1.3045  1.0094  0.4033
18240TIP3   OH276210   1.695   6.597  13.589  0.3797 -0.2324  0.5939
18240TIP3    H176211   1.774   6.588  13.642  0.6440  0.9523  0.4143
18240TIP3    H276212   1.670   6.507  13.569  2.6956 -0.6282 -0.8309
18241TIP3   OH276213   3.891   2.407  16.327 -0.4148  0.2174  0.2741
18241TIP3    H176214   3.950   2.419  16.402  1.3999  1.6518 -1.2619
18241TIP3    H276215   3.823   2.474  16.339  0.4423  1.1392  0.1807
18242TIP3   OH276216   4.087   2.408  16.559 -0.2255 -0.0041 -0.0099
18242TIP3    H176217   4.115   2.317  16.551 -0.9771 -0.4560  1.8294
18242TIP3    H276218   4.073   2.420  16.653 -0.7651  1.8227 -0.2905
18243TIP3   OH276219   5.474   0.803   3.650  0.1339  0.2112  0.0026
18243TIP3    H176220   5.491   0.722   3.603 -2.0780 -0.6704  0.6418
18243TIP3    H276221   5.557   0.823   3.693  1.5342 -0.1883 -2.3226
18244TIP3   OH276222   3.078   6.346  13.831  0.1650  0.1150 -0.2121
18244TIP3    H176223   3.167   6.357  13.798  0.0206  1.0166 -0.3215
18244TIP3    H276224   3.068   6.251  13.842  0.3973 -0.1999 -2.2788
18245TIP3   OH276225   5.889   6.610   6.461  0.1943  0.1852 -0.4103
18245TIP3    H176226   5.820   6.673   6.438  0.4845 -0.1812 -2.4425
18245TIP3    H276227   5.871   6.534   6.406 -0.1570 -1.5764  1.9938
18246TIP3   OH276228   5.665   5.993   5.969  0.2472  0.0078 -0.3989
18246TIP3    H176229   5.661   5.898   5.979  1.6864  0.0976  1.3667
18246TIP3    H276230   5.603   6.026   6.034  2.7505  0.3292  1.9817
18247TIP3   OH276231   5.748   5.956  15.720  0.1029  0.5530  0.6293
18247TIP3    H176232   5.687   5.883  15.707 -0.1047  1.0665 -1.8207
18247TIP3    H276233   5.835   5.916  15.717  0.0800  0.5073 -2.6348
18248TIP3   OH276234   6.692   3.325   5.478 -0.0850  1.0189 -0.2448
18248TIP3    H176235   6.612   3.317   5.426  1.5413 -0.1031 -2.7488
18248TIP3    H276236   6.684   3.257   5.546 -0.5064 -0.3377 -1.6005
18249TIP3   OH276237   5.259   3.901  14.916 -0.2695 -0.2485 -0.1941
18249TIP3    H176238   5.208   3.961  14.970 -0.2595  0.1878 -0.6667
18249TIP3    H276239   5.295   3.837  14.979  0.1412  0.5292  0.3824
18250TIP3   OH276240   0.421   0.565   5.009 -0.5325 -0.1042  0.6943
18250TIP3    H176241   0.481   0.513   5.064  1.7720 -0.4173 -1.9182
18250TIP3    H276242   0.462   0.650   5.002  0.9752 -0.9634 -2.9215
18251TIP3   OH276243   2.435   1.747  15.280  0.3990  0.1167 -0.1231
18251TIP3    H176244   2.454   1.661  15.319 -1.4807 -0.7020 -0.8753
18251TIP3    H276245   2.469   1.740  15.191 -0.6915 -0.2589 -0.5223
18252TIP3   OH276246   5.733   0.601   5.312 -0.3212 -0.0281 -0.4467
18252TIP3    H176247   5.772   0.684   5.282  0.6682 -0.7688 -1.2913
18252TIP3    H276248   5.797   0.567   5.376  0.5893 -1.3493 -1.9843
18253TIP3   OH276249   4.119   1.281  15.652 -0.2014  0.2669  0.1811
18253TIP3    H176250   4.107   1.187  15.636  0.3882  0.0599  0.8938
18253TIP3    H276251   4.202   1.287  15.699  0.6009  1.2934 -1.2799
18254TIP3   OH276252   1.806   2.686   3.518 -0.3853  0.4726  0.3092
18254TIP3    H176253   1.855   2.739   3.580  1.3360 -0.0824 -0.4874
18254TIP3    H276254   1.780   2.608   3.568 -0.0905  0.5913  0.6495
18255TIP3   OH276255   4.182   2.448   5.783 -0.1456  0.0965  0.0984
18255TIP3    H176256   4.110   2.394   5.750 -0.0740  0.0607  0.0000
18255TIP3    H276257   4.142   2.505   5.848 -0.1551 -0.3441  0.4859
18256TIP3   OH276258   3.813   5.678  16.461 -0.1433 -0.1522  0.0153
18256TIP3    H176259   3.832   5.616  16.391 -0.1368  0.8701 -0.9242
18256TIP3    H276260   3.840   5.634  16.541  1.3737 -0.7464 -0.7817
18257TIP3   OH276261   6.591   6.646  16.421  0.0387 -0.4848 -0.2517
18257TIP3    H176262   6.531   6.622  16.351 -1.3807 -0.3345  0.8728
18257TIP3    H276263   6.650   6.571  16.430 -1.2882 -1.5258 -0.0030
18258TIP3   OH276264   5.774   2.191  16.261  0.4430  0.1193 -0.4844
18258TIP3    H176265   5.719   2.200  16.340  0.2507  0.7731 -0.6932
18258TIP3    H276266   5.860   2.165  16.295  0.7268  1.6968  0.0531
18259TIP3   OH276267   5.411   2.989   1.443 -1.0380  0.4853  0.0675
18259TIP3    H176268   5.349   3.007   1.514 -0.4988  1.2236  0.3539
18259TIP3    H276269   5.492   3.031   1.470 -0.3037 -0.7139 -0.1628
18260TIP3   OH276270   2.509   2.595  12.442 -0.0141 -0.1776  0.1643
18260TIP3    H176271   2.521   2.573  12.535  1.0225  0.3108  0.1584
18260TIP3    H276272   2.509   2.511  12.397 -1.0537 -0.4577  0.6486
18261TIP3   OH276273   6.587   0.015   0.871 -0.0970 -0.1808  0.3643
18261TIP3    H176274   6.509   0.046   0.824  1.2842  1.9554 -0.6282
18261TIP3    H276275   6.588   0.066   0.951  0.0928 -0.5011  0.5682
18262TIP3   OH276276   4.267   2.181   0.301 -0.6347  0.2170 -0.5054
18262TIP3    H176277   4.230   2.189   0.389 -2.6425 -0.0345 -1.2822
18262TIP3    H276278   4.329   2.108   0.308 -2.2801 -1.1601  0.2420
18263TIP3   OH276279   4.525   2.364   0.501  0.0326 -0.4064  0.0389
18263TIP3    H176280   4.495   2.330   0.417 -0.6927 -2.2786  0.9993
18263TIP3    H276281   4.445   2.379   0.551  0.5012 -2.7692  1.6417
18264TIP3   OH276282   2.309   6.519   3.913  0.1791 -0.0575  0.5053
18264TIP3    H176283   2.297   6.610   3.887  1.3669  0.3891  1.4008
18264TIP3    H276284   2.221   6.488   3.933 -0.3745  0.5323 -0.9040
18265TIP3   OH276285   1.581   4.976  12.423 -0.0252 -0.3163  0.0242
18265TIP3    H176286   1.561   4.883  12.434 -2.5451 -0.0464 -1.4784
18265TIP3    H276287   1.665   4.988  12.467  0.9347 -3.5207 -0.6726
18266TIP3   OH276288   5.109   1.352   0.613  0.0490  0.3664  0.5524
18266TIP3    H176289   5.193   1.318   0.643  1.3602  0.9529 -2.1523
18266TIP3    H276290   5.126   1.443   0.590 -0.4729 -0.2551 -2.8056
18267TIP3   OH276291   1.157   5.861   0.551  0.1951  0.4902 -0.5264
18267TIP3    H176292   1.218   5.817   0.492  0.3537  1.0393 -0.7762
18267TIP3    H276293   1.103   5.915   0.494  0.9068  1.6768 -0.1001
18268TIP3   OH276294   1.713   5.680  10.617  0.1592 -0.1371 -0.3332
18268TIP3    H176295   1.708   5.738  10.693  0.1118 -0.2816 -0.2244
18268TIP3    H276296   1.711   5.739  10.542  0.3044  0.0127 -0.2196
18269TIP3   OH276297   2.528   6.493  11.726  0.4734  0.1014 -0.1639
18269TIP3    H176298   2.446   6.542  11.724  0.3217  0.0119  1.6563
18269TIP3    H276299   2.561   6.496  11.636 -0.4685  1.9388 -0.4924
18270TIP3   OH276300   1.494   1.514   3.246  0.0247 -0.1668 -0.2196
18270TIP3    H176301   1.569   1.463   3.215  0.3986 -0.8250  1.6585
18270TIP3    H276302   1.490   1.589   3.186 -0.2175 -2.0586 -2.7325
18271TIP3   OH276303   0.400   1.221  13.026 -0.1505 -0.8211  0.6353
18271TIP3    H176304   0.350   1.206  12.946 -2.0718 -1.7449  1.9250
18271TIP3    H276305   0.460   1.293  13.005 -2.9409  1.2862 -0.6527
18272TIP3   OH276306   5.642   2.812   6.711  0.1300  0.0654  0.2051
18272TIP3    H176307   5.594   2.762   6.645  2.4000 -1.0118 -0.7331
18272TIP3    H276308   5.679   2.746   6.769  2.4835  0.6497 -0.5499
18273TIP3   OH276309   6.245   6.599  12.365  0.0268  0.1963  0.0392
18273TIP3    H176310   6.271   6.520  12.319 -0.5342 -0.2744  0.5040
18273TIP3    H276311   6.174   6.635  12.312  1.8935  1.7851 -1.5315
18274TIP3   OH276312   3.663   6.137   1.468 -0.0010 -0.9700 -0.5441
18274TIP3    H176313   3.632   6.227   1.476  1.5459 -0.3368 -1.3062
18274TIP3    H276314   3.669   6.122   1.374  2.0573 -0.9913 -0.4604
18275TIP3   OH276315   6.117   2.387   1.563 -0.4657  0.2336 -0.2066
18275TIP3    H176316   6.104   2.438   1.483 -0.5985  0.8547  0.2117
18275TIP3    H276317   6.045   2.413   1.620 -1.8144 -1.9816 -0.7698
18276TIP3   OH276318   1.469   1.681  13.089  0.6901  0.4689  0.3954
18276TIP3    H176319   1.377   1.704  13.093  0.3480 -0.8984  1.1594
18276TIP3    H276320   1.514   1.763  13.069 -0.7658  0.9412 -1.1581
18277TIP3   OH276321   0.210   1.379  13.885  0.1490  0.5838 -0.1477
18277TIP3    H176322   0.147   1.315  13.920 -0.9445  1.2082 -0.9358
18277TIP3    H276323   0.260   1.406  13.962  2.7984 -3.4241 -0.1416
18278TIP3   OH276324   2.280   3.040   0.486  0.1474 -0.4444  0.0820
18278TIP3    H176325   2.332   2.994   0.419 -0.4201 -1.3031  0.2118
18278TIP3    H276326   2.191   3.008   0.473 -0.5502  1.6606 -0.7104
18279TIP3   OH276327   1.750   5.255   5.380  0.0277  0.4146  1.0426
18279TIP3    H176328   1.655   5.260   5.384 -0.1744  0.8609 -2.1389
18279TIP3    H276329   1.779   5.346   5.371  0.6733  0.2035  0.8933
18280TIP3   OH276330   4.358   0.962  14.190  0.1234  0.0304 -0.2126
18280TIP3    H176331   4.431   1.022  14.178  1.5655 -1.4798  0.4809
18280TIP3    H276332   4.375   0.890  14.129 -1.1222 -0.0908 -0.4613
18281TIP3   OH276333   4.443   4.636   6.418 -0.1411 -0.1512 -1.2433
18281TIP3    H176334   4.537   4.617   6.411 -0.0129  0.6332 -1.8513
18281TIP3    H276335   4.433   4.674   6.505 -0.0168 -0.8888 -0.9046
18282TIP3   OH276336   3.306   1.463  14.059  0.5932 -0.0214 -0.2787
18282TIP3    H176337   3.401   1.454  14.054  0.6758  0.2595  0.6089
18282TIP3    H276338   3.278   1.390  14.115  0.4170  0.5489  0.3955
18283TIP3   OH276339   2.666   2.420   6.407  0.5808 -0.1292 -0.3411
18283TIP3    H176340   2.745   2.403   6.357 -0.1078 -0.2676 -1.4238
18283TIP3    H276341   2.594   2.402   6.346 -0.2922 -0.1498  0.6482
18284TIP3   OH276342   5.496   6.166  14.620 -0.1283  0.5276  0.1356
18284TIP3    H176343   5.551   6.094  14.589  1.1599  1.3529  0.4394
18284TIP3    H276344   5.549   6.210  14.686  0.2642  3.3584 -1.8850
18285TIP3   OH276345   5.436   5.971  12.998 -0.3068 -0.4414  0.0853
18285TIP3    H176346   5.425   6.010  13.085  2.2405 -0.4407  0.4891
18285TIP3    H276347   5.523   5.930  13.002 -1.2619 -2.8346 -1.5775
18286TIP3   OH276348   3.351   6.677   3.666 -0.2847  0.0378 -0.5253
18286TIP3    H176349   3.430   6.663   3.718 -1.4018 -3.3086  0.5198
18286TIP3    H276350   3.356   6.769   3.638  2.2380  0.9023  2.3101
18287TIP3   OH276351   3.310   5.682   1.147  0.2764  0.0604 -0.1272
18287TIP3    H176352   3.287   5.762   1.100 -0.3641  0.0198  0.1078
18287TIP3    H276353   3.302   5.705   1.239 -0.0755 -0.3169 -0.0591
18288TIP3   OH276354   3.968   6.283   5.892  0.0283 -1.0473 -0.5061
18288TIP3    H176355   3.890   6.326   5.856  1.3075  2.3925  0.4196
18288TIP3    H276356   3.940   6.246   5.975 -0.5848  0.5270  0.0167
18289TIP3   OH276357   1.298   6.302  12.747  0.1908  0.3494 -0.1893
18289TIP3    H176358   1.362   6.272  12.683 -0.0781 -2.6135  0.7487
18289TIP3    H276359   1.213   6.292  12.704  0.1865  2.0974 -0.6493
18290TIP3   OH276360   3.578   5.933   5.762 -0.3124  0.1645  0.7724
18290TIP3    H176361   3.577   6.028   5.754  1.6033  0.2675  1.2349
18290TIP3    H276362   3.560   5.916   5.854 -0.2906  0.1104  0.7668
18291TIP3   OH276363   0.476   0.379   2.858 -0.0665  0.0181 -0.1042
18291TIP3    H176364   0.427   0.432   2.795  0.1393 -0.9355 -1.0991
18291TIP3    H276365   0.491   0.296   2.813  0.7304 -0.4285  0.9380
18292TIP3   OH276366   0.204   4.280   4.590  0.6752  0.0661 -0.2182
18292TIP3    H176367   0.192   4.372   4.568 -0.3467 -0.2012 -0.7968
18292TIP3    H276368   0.280   4.280   4.649  0.8410  1.2414 -0.4048
18293TIP3   OH276369   0.552   6.806   1.150 -0.1702 -0.2389 -0.4019
18293TIP3    H176370   0.481   6.857   1.110  0.4128 -0.6395 -2.0142
18293TIP3    H276371   0.507   6.738   1.200 -0.9426  1.0649  0.7592
18294TIP3   OH276372   6.217   6.199   3.053  0.6120  0.2416  0.1663
18294TIP3    H176373   6.312   6.196   3.043  0.6135  1.4445 -0.3846
18294TIP3    H276374   6.202   6.250   3.132  0.4221 -0.0521  0.3230
18295TIP3   OH276375   0.074   4.994  11.399  0.9595  0.3074 -0.0380
18295TIP3    H176376   0.116   4.976  11.314  0.0579 -0.3358 -0.3565
18295TIP3    H276377   0.063   5.089  11.400  0.7255  0.2974 -0.7724
18296TIP3   OH276378   5.560   3.560  13.481 -0.1904  0.2395 -0.2372
18296TIP3    H176379   5.478   3.516  13.458 -2.0231  2.2338  1.9084
18296TIP3    H276380   5.583   3.522  13.566 -0.4765  1.6260  0.4839
18297TIP3   OH276381   6.461   1.955   3.183  0.0610 -0.2096  0.4798
18297TIP3    H176382   6.467   1.994   3.096  1.9175  0.1405  0.7101
18297TIP3    H276383   6.414   2.019   3.236  0.8014  0.5684  0.2228
18298TIP3   OH276384   2.936   4.579   0.898  0.0474  0.7789  0.4947
18298TIP3    H176385   2.876   4.514   0.861  0.2852  0.4196  0.7372
18298TIP3    H276386   2.921   4.574   0.992  1.4432 -0.3030  0.6845
18299TIP3   OH276387   1.277   3.714  14.081  0.2188 -0.5943 -0.3917
18299TIP3    H176388   1.285   3.778  14.151  2.8413 -0.1313 -1.0384
18299TIP3    H276389   1.235   3.638  14.122 -0.1980  0.4207  1.1196
18300TIP3   OH276390   3.491   4.446   0.409  0.2866 -0.2620  0.0146
18300TIP3    H176391   3.502   4.477   0.499  1.4417 -1.8165  0.4643
18300TIP3    H276392   3.581   4.425   0.380 -0.3385 -2.7636 -0.3478
18301TIP3   OH276393   6.192   5.263  12.761  0.3584  0.2196  0.4343
18301TIP3    H176394   6.140   5.322  12.706 -1.1964 -0.4907  1.0847
18301TIP3    H276395   6.274   5.252  12.713 -0.7774 -0.0620 -1.5517
18302TIP3   OH276396   4.840   2.041  13.186 -0.0374 -0.7390 -0.0369
18302TIP3    H176397   4.763   2.052  13.131  0.0674 -1.0071 -0.2374
18302TIP3    H276398   4.911   2.021  13.125  0.4777  0.7708  0.0120
18303TIP3   OH276399   5.913   6.224  16.013  0.4980 -0.0242 -0.1546
18303TIP3    H176400   5.829   6.212  15.970 -0.3844  0.1450  1.4356
18303TIP3    H276401   5.918   6.151  16.076  0.5516  1.1321  1.2264
18304TIP3   OH276402   5.969   0.247   0.354 -0.3247 -0.4691 -0.1605
18304TIP3    H176403   5.889   0.208   0.318 -0.4874 -0.4566  0.1875
18304TIP3    H276404   6.010   0.176   0.403 -0.3970 -0.3285  0.1060
18305TIP3   OH276405   3.237   2.771  11.762  0.1044 -0.4295  0.3425
18305TIP3    H176406   3.149   2.807  11.769 -1.0240 -2.7562 -0.6622
18305TIP3    H276407   3.270   2.805  11.678 -1.3210 -2.3183 -1.0723
18306TIP3   OH276408   3.430   0.517  15.334 -0.6483  0.4700 -0.1533
18306TIP3    H176409   3.524   0.525  15.318 -0.1361 -0.7102  1.9540
18306TIP3    H276410   3.407   0.595  15.384 -0.3692 -0.1240  0.9331
18307TIP3   OH276411   6.555   2.956  12.879  0.1444 -0.7318 -0.3703
18307TIP3    H176412   6.522   2.891  12.816  2.4507 -2.6889  0.3044
18307TIP3    H276413   6.496   2.948  12.954 -0.9949 -0.3137 -1.1855
18308TIP3   OH276414   1.059   6.612   2.680 -0.1482  0.3544 -0.4117
18308TIP3    H176415   1.039   6.705   2.695 -0.1602  0.0036  2.3466
18308TIP3    H276416   1.134   6.594   2.737  0.3702 -1.1831 -1.5002
18309TIP3   OH276417   0.865   5.608  14.539  0.1506  0.7687  0.0034
18309TIP3    H176418   0.826   5.684  14.583 -0.8567  0.3702 -0.1770
18309TIP3    H276419   0.959   5.626  14.540 -0.1198  2.4900 -0.8888
18310TIP3   OH276420   5.955   0.462  16.403  0.1934  0.0193 -0.2675
18310TIP3    H176421   6.044   0.427  16.408 -0.5460 -1.8489  0.6387
18310TIP3    H276422   5.954   0.513  16.322  1.2594 -2.3906 -1.9125
18311TIP3   OH276423   6.221   1.406   6.106  0.1810  0.3586 -0.8341
18311TIP3    H176424   6.162   1.480   6.118 -0.3262  0.3135 -2.7375
18311TIP3    H276425   6.180   1.334   6.153  1.1245  1.4273  1.8161
18312TIP3   OH276426   5.498   4.208  12.758  0.0948  0.5858  0.0310
18312TIP3    H176427   5.460   4.293  12.779  1.7249  1.2002  0.6685
18312TIP3    H276428   5.448   4.145  12.809 -0.3710  1.3021  0.4677
18313TIP3   OH276429   6.273   1.755  14.230  0.1223  0.3565 -0.4215
18313TIP3    H176430   6.336   1.802  14.175 -0.3248  0.2135 -1.0593
18313TIP3    H276431   6.215   1.710  14.169  0.8441 -1.4673  0.1573
18314TIP3   OH276432   1.651   1.480   4.341  0.0274  0.5361  0.3568
18314TIP3    H176433   1.579   1.438   4.293  1.6298 -1.3705 -0.5084
18314TIP3    H276434   1.630   1.465   4.433 -1.7502  1.9453  0.2526
18315TIP3   OH276435   6.324   6.798  11.155  0.8445 -0.5078 -0.2436
18315TIP3    H176436   6.290   6.763  11.238  0.2133 -0.8444 -0.6310
18315TIP3    H276437   6.246   6.820  11.105  1.2085 -0.8581 -0.9800
18316TIP3   OH276438   0.593   2.041   3.918  0.0459 -0.3090  0.5374
18316TIP3    H176439   0.554   1.956   3.935 -2.1962  0.3785 -0.7856
18316TIP3    H276440   0.523   2.104   3.935  1.4627  1.2576  0.9019
18317TIP3   OH276441   3.437   0.411   2.594 -0.3657  0.1725 -0.0387
18317TIP3    H176442   3.441   0.320   2.623 -0.0340  0.1142 -0.2625
18317TIP3    H276443   3.453   0.407   2.500 -0.0153  0.4905  0.0042
18318TIP3   OH276444   3.851   4.636   4.294  0.0742  0.5101 -0.6582
18318TIP3    H176445   3.904   4.709   4.263  1.0840 -0.0668 -0.3116
18318TIP3    H276446   3.897   4.603   4.371 -0.0329 -0.8744 -1.1494
18319TIP3   OH276447   0.141   3.507  14.906 -0.3256 -0.5450 -0.0378
18319TIP3    H176448   0.214   3.448  14.890 -0.3601 -0.7832  0.6637
18319TIP3    H276449   0.087   3.462  14.970 -0.5380  0.0938  0.2386
18320TIP3   OH276450   5.549   0.468  14.908 -0.5891 -0.1935 -0.3396
18320TIP3    H176451   5.493   0.455  14.831 -0.6352 -0.8030 -0.2022
18320TIP3    H276452   5.625   0.413  14.891 -0.1557  0.4125 -0.3899
18321TIP3   OH276453   0.337   5.222  16.106  0.0939 -0.1707  0.0307
18321TIP3    H176454   0.386   5.300  16.134  1.0010 -0.0503 -1.7297
18321TIP3    H276455   0.302   5.185  16.187  1.6616  0.7248  1.1736
18322TIP3   OH276456   0.166   0.563  16.968  0.2191  0.3421 -0.3717
18322TIP3    H176457   0.099   0.628  16.948  1.7747  2.5384  1.0807
18322TIP3    H276458   0.247   0.599  16.931  0.9578 -1.3805 -0.5519
18323TIP3   OH276459   4.631   6.529  12.105  0.5385  0.2580 -0.1493
18323TIP3    H176460   4.710   6.584  12.102  0.1273  0.8774  0.0621
18323TIP3    H276461   4.650   6.457  12.046  0.7591  1.0970 -1.1420
18324TIP3   OH276462   1.708   2.072   1.414  0.2779  0.3307 -0.0574
18324TIP3    H176463   1.683   2.133   1.344  1.7214  1.5296  0.4149
18324TIP3    H276464   1.667   2.108   1.493 -0.3814 -0.3678 -0.0673
18325TIP3   OH276465   3.390   5.330   2.827  0.7318 -0.4481 -0.0088
18325TIP3    H176466   3.405   5.293   2.914 -1.1582  1.0149  1.0009
18325TIP3    H276467   3.308   5.291   2.797  0.0890  0.8899 -0.0532
18326TIP3   OH276468   6.351   2.348  11.615 -0.6034  0.3493  0.7062
18326TIP3    H176469   6.426   2.364  11.673 -0.0034 -2.1066  0.7189
18326TIP3    H276470   6.385   2.365  11.527 -0.1667 -0.2715  0.7494
18327TIP3   OH276471   1.742   0.261   0.531  0.5414 -0.2963 -0.3236
18327TIP3    H176472   1.834   0.243   0.510  0.9592  0.0813  1.0954
18327TIP3    H276473   1.693   0.201   0.474  1.6205 -0.0221 -1.5960
18328TIP3   OH276474   0.545   3.937   2.763  0.4544 -0.0585  0.4484
18328TIP3    H176475   0.632   3.922   2.801  0.3996  0.0217  0.6066
18328TIP3    H276476   0.485   3.887   2.818  0.1119  1.6544  1.7306
18329TIP3   OH276477   0.685   1.962  10.712 -0.1718  0.4862 -0.0292
18329TIP3    H176478   0.650   2.002  10.792 -0.5289 -0.1496  0.1458
18329TIP3    H276479   0.780   1.970  10.720 -0.2508  2.0391 -0.4030
18330TIP3   OH276480   1.715   2.269   0.227  0.1043  0.4921  0.2028
18330TIP3    H176481   1.780   2.209   0.189 -0.7176 -0.4791  0.2962
18330TIP3    H276482   1.767   2.332   0.278  1.0255  0.2302 -0.3978
18331TIP3   OH276483   2.259   3.148   1.320  0.2215  0.1285 -0.2413
18331TIP3    H176484   2.185   3.089   1.337 -0.5383  1.0257 -0.4116
18331TIP3    H276485   2.307   3.105   1.249 -0.7462  0.0766 -0.8774
18332TIP3   OH276486   2.385   4.877  13.525  0.1422  0.0508  0.2937
18332TIP3    H176487   2.421   4.932  13.595  0.4020  0.3169 -0.0416
18332TIP3    H276488   2.301   4.847  13.558  0.2551  0.1905  0.7115
18333TIP3   OH276489   6.498   0.882   1.501 -0.2402  0.0748  0.4679
18333TIP3    H176490   6.411   0.919   1.488 -0.9955 -1.7319 -0.0174
18333TIP3    H276491   6.492   0.794   1.462  1.7119 -0.1979  0.6943
18334TIP3   OH276492   5.494   3.213   0.409  0.2716 -0.0036 -0.0834
18334TIP3    H176493   5.514   3.225   0.316  0.2838  2.0806  0.1451
18334TIP3    H276494   5.473   3.301   0.441  0.5605 -0.6205  1.9660
18335TIP3   OH276495   6.426   6.723  16.063 -0.1718  0.3486 -0.5585
18335TIP3    H176496   6.399   6.633  16.043 -0.9186  0.1306  1.2140
18335TIP3    H276497   6.347   6.765  16.096  0.8597  0.6774  1.6566
18336TIP3   OH276498   0.189   0.410   2.721  0.1754 -0.0251  0.0900
18336TIP3    H176499   0.265   0.463   2.696  2.8197 -3.3046  0.3820
18336TIP3    H276500   0.160   0.447   2.804  2.4966  0.4691  0.7625
18337TIP3   OH276501   3.954   4.807  14.863 -0.2741  0.1731  0.3693
18337TIP3    H176502   4.017   4.855  14.917  0.3319 -0.5396  0.3151
18337TIP3    H276503   3.875   4.803  14.916  0.3640 -0.6580  1.2953
18338TIP3   OH276504   0.666   3.909  11.168  0.3150 -0.0045  0.1844
18338TIP3    H176505   0.676   3.877  11.258 -1.5754 -2.0253 -0.2188
18338TIP3    H276506   0.732   3.860  11.118 -0.0459 -0.4837  0.1666
18339TIP3   OH276507   2.400   6.602   5.553  0.3046 -0.2990 -0.5425
18339TIP3    H176508   2.473   6.568   5.606  0.3580  1.9076  0.9085
18339TIP3    H276509   2.338   6.529   5.548  1.2418 -1.2282  0.8049
18340TIP3   OH276510   5.313   4.850   3.298 -0.0413  0.3986  0.0463
18340TIP3    H176511   5.347   4.887   3.216 -0.5589  1.0316  0.1099
18340TIP3    H276512   5.290   4.760   3.275 -2.4377  1.2140 -1.1989
18341TIP3   OH276513   1.687   6.794   2.155  0.0508 -0.0133  0.1236
18341TIP3    H176514   1.614   6.839   2.197  0.6631 -0.0999  1.3262
18341TIP3    H276515   1.653   6.706   2.136 -1.1615  0.8842 -2.2822
18342TIP3   OH276516   6.746   3.871  11.943  0.3087  0.5151  0.0530
18342TIP3    H176517   6.720   3.793  11.895  2.4266 -0.1135 -0.1754
18342TIP3    H276518   6.841   3.863  11.954  0.3894  2.3491  1.3016
18343TIP3   OH276519   3.996   1.806   1.206  0.6059  0.0635  0.5930
18343TIP3    H176520   3.967   1.726   1.249 -0.9871  0.3922  0.2020
18343TIP3    H276521   3.937   1.816   1.131  0.3345  1.9441  0.9990
18344TIP3   OH276522   6.306   3.702   3.196  0.5079  0.5340  0.0604
18344TIP3    H176523   6.221   3.740   3.174  0.3467  0.5005  0.6032
18344TIP3    H276524   6.369   3.758   3.152  0.1991  0.5093 -0.4190
18345TIP3   OH276525   0.286   2.212   2.949  0.6202 -0.0264 -0.3523
18345TIP3    H176526   0.314   2.249   2.866 -0.1100  0.9263 -0.1932
18345TIP3    H276527   0.192   2.196   2.938  0.8883 -1.7605 -0.3727
18346TIP3   OH276528   0.827   5.168   0.119  0.1095 -0.3367 -0.1557
18346TIP3    H176529   0.821   5.072   0.114 -0.4890 -0.2974 -0.3437
18346TIP3    H276530   0.803   5.197   0.031 -1.9612  0.0658  0.4815
18347TIP3   OH276531   2.677   2.785   0.050 -0.4478  0.3224  0.3217
18347TIP3    H176532   2.760   2.813   0.011 -0.4353  1.8194  1.3284
18347TIP3    H276533   2.697   2.775   0.143 -0.7761 -1.9378  0.2051
18348TIP3   OH276534   4.153   1.133   2.283  0.1494  0.2353 -0.0358
18348TIP3    H176535   4.149   1.057   2.224  0.9661 -0.6830  1.0386
18348TIP3    H276536   4.100   1.107   2.358  1.2207  0.3322  0.7678
18349TIP3   OH276537   4.949   2.345   2.268  0.1685  0.3337  0.8210
18349TIP3    H176538   4.894   2.411   2.311 -0.1662  0.0217  0.8731
18349TIP3    H276539   4.987   2.392   2.194 -1.0456  0.2672  0.1219
18350TIP3   OH276540   1.728   1.200   1.411  0.3929 -0.0022  0.2083
18350TIP3    H176541   1.691   1.286   1.432 -0.5978 -0.1029 -0.9520
18350TIP3    H276542   1.654   1.152   1.371  1.4902 -0.6069 -1.1957
18351TIP3   OH276543   6.814   5.116   5.690 -0.0512 -0.4785  0.4763
18351TIP3    H176544   6.806   5.056   5.764  1.8654  0.1371  1.2439
18351TIP3    H276545   6.783   5.200   5.724  3.5063  0.5539  1.6928
18352TIP3   OH276546   6.147   0.430   2.391  0.0593 -0.5299  0.4020
18352TIP3    H176547   6.214   0.361   2.394  0.0554 -0.4903  1.9392
18352TIP3    H276548   6.196   0.511   2.401 -0.1844 -0.4913  1.3844
18353TIP3   OH276549   2.054   5.733   5.230 -0.4867 -0.0063 -0.1514
18353TIP3    H176550   2.110   5.660   5.202 -0.1844  0.3525 -0.5146
18353TIP3    H276551   2.049   5.789   5.152  3.0384  2.7161  1.3011
18354TIP3   OH276552   4.899   3.923  10.919 -0.2305  0.4671  0.5171
18354TIP3    H176553   4.985   3.966  10.918 -0.3279  0.7053  1.3732
18354TIP3    H276554   4.857   3.957  10.998 -0.7890 -0.2759  0.5444
18355TIP3   OH276555   0.549   2.858   2.833 -0.7289 -0.5393 -0.1834
18355TIP3    H176556   0.510   2.942   2.860  1.1614  0.6362 -0.8883
18355TIP3    H276557   0.486   2.822   2.771 -1.0353  1.0005 -0.8343
18356TIP3   OH276558   6.438   3.290  16.590 -0.2936 -0.0882 -0.6490
18356TIP3    H176559   6.473   3.305  16.678 -1.7518 -0.8417  0.1024
18356TIP3    H276560   6.512   3.260  16.539  0.0939 -2.1663  1.0141
18357TIP3   OH276561   1.029   4.796  12.969  0.0637  0.2857 -0.0684
18357TIP3    H176562   1.016   4.708  12.933 -0.0331  0.0597  0.5091
18357TIP3    H276563   1.065   4.846  12.896 -2.1210  0.4170 -1.1237
18358TIP3   OH276564   6.292   3.560   0.523 -0.3277  0.4900 -0.8305
18358TIP3    H176565   6.349   3.484   0.537  0.1816  0.8467 -0.9243
18358TIP3    H276566   6.308   3.616   0.600 -1.7256 -0.1219 -0.0775
18359TIP3   OH276567   2.560   3.805   0.193 -0.0531 -0.3600  0.3222
18359TIP3    H176568   2.520   3.718   0.181  0.6269 -0.6304 -0.0563
18359TIP3    H276569   2.572   3.812   0.287 -0.8253 -0.3473  0.4261
18360TIP3   OH276570   1.221   6.582   1.484 -0.1882 -0.2639 -0.3380
18360TIP3    H176571   1.166   6.658   1.463 -0.8264 -0.6252 -0.0149
18360TIP3    H276572   1.230   6.535   1.401 -1.6411 -1.0078 -0.1016
18361TIP3   OH276573   4.546   2.639  14.513  0.4936 -0.2776 -0.1056
18361TIP3    H176574   4.550   2.549  14.546  0.9981 -0.2069  0.0373
18361TIP3    H276575   4.528   2.691  14.591  0.1021 -0.2565 -0.2037
18362TIP3   OH276576   4.568   2.386  17.047 -0.0935 -0.3478  0.2534
18362TIP3    H176577   4.643   2.422  17.095  1.1467 -3.5603  0.9656
18362TIP3    H276578   4.578   2.421  16.958  0.1628  2.0708  1.1366
18363TIP3   OH276579   3.819   1.129   1.436  0.5277  0.2955 -0.0222
18363TIP3    H176580   3.728   1.100   1.439  0.3937  0.6822 -0.3014
18363TIP3    H276581   3.816   1.215   1.394  0.8127  1.1602  1.6353
18364TIP3   OH276582   3.506   6.196  14.290 -0.6151 -0.2395 -0.1490
18364TIP3    H176583   3.433   6.168  14.235  0.0080 -1.3081 -0.4623
18364TIP3    H276584   3.520   6.288  14.267 -0.0488 -0.7808 -2.1736
18365TIP3   OH276585   6.796   3.775  11.591  0.0333  0.2097  0.5349
18365TIP3    H176586   6.723   3.765  11.652 -0.1584  1.2112  0.4823
18365TIP3    H276587   6.873   3.778  11.647 -0.0825  0.4368  0.6831
18366TIP3   OH276588   0.802   5.397  12.559 -0.0656 -0.0610  0.1279
18366TIP3    H176589   0.723   5.440  12.592  0.9054  1.0685  1.1253
18366TIP3    H276590   0.775   5.355  12.478 -1.1566  2.4037 -0.9044
18367TIP3   OH276591   5.114   6.676   3.902  0.9666 -0.4084  0.8132
18367TIP3    H176592   5.021   6.667   3.924  0.5244 -1.8975 -1.3051
18367TIP3    H276593   5.126   6.769   3.884 -0.4446 -0.3710 -0.0955
18368TIP3   OH276594   4.906   4.489   5.434  0.0874  0.5010  0.4139
18368TIP3    H176595   4.863   4.470   5.517  0.4834 -0.4813  0.4064
18368TIP3    H276596   4.833   4.497   5.371 -0.1142 -1.6161  0.3086
18369TIP3   OH276597   0.097   2.805  13.537  0.3155  0.3734 -0.9417
18369TIP3    H176598   0.166   2.870  13.546  0.5641 -0.1790  2.5835
18369TIP3    H276599   0.017   2.857  13.526  0.8231  1.1592 -0.9903
18370TIP3   OH276600   2.186   4.286   5.442  0.0487 -0.0344  0.2858
18370TIP3    H176601   2.176   4.331   5.526  1.2415  0.8939 -0.0518
18370TIP3    H276602   2.280   4.271   5.433 -0.0230  0.1381 -1.0106
18371TIP3   OH276603   3.006   3.691   4.694 -0.1578  0.4135  0.0249
18371TIP3    H176604   2.935   3.755   4.691 -0.2197  0.3386 -0.1722
18371TIP3    H276605   2.986   3.631   4.621 -0.2414  0.0216  0.3673
18372TIP3   OH276606   6.816   6.373   2.271  0.3991  0.4635  0.6573
18372TIP3    H176607   6.879   6.395   2.340 -1.9220  2.7760  2.2659
18372TIP3    H276608   6.763   6.303   2.308 -0.4225  1.2479  1.0214
18373TIP3   OH276609   1.781   0.960   3.123  0.4953 -0.0437 -0.1629
18373TIP3    H176610   1.703   0.996   3.165  0.0301 -1.8917  0.6212
18373TIP3    H276611   1.843   0.948   3.195  0.9517 -0.0027 -0.5480
18374TIP3   OH276612   1.185   3.021  11.672  0.4008  0.3113 -0.0610
18374TIP3    H176613   1.148   2.945  11.717  1.0985  0.1214  0.2025
18374TIP3    H276614   1.274   2.995  11.650  0.1163  0.4399 -1.4561
18375TIP3   OH276615   2.990   6.438   0.372 -0.4076  0.5408 -0.0011
18375TIP3    H176616   2.965   6.523   0.334 -1.0296 -0.2158 -1.3526
18375TIP3    H276617   2.965   6.374   0.305  0.3001 -0.6917  0.8877
18376TIP3   OH276618   6.276   4.150   4.369 -0.3166 -0.3526  0.5069
18376TIP3    H176619   6.309   4.239   4.358 -0.3509 -0.4162 -0.1657
18376TIP3    H276620   6.189   4.151   4.331  0.1137 -0.9421 -0.5439
18377TIP3   OH276621   4.046   6.809   1.743 -0.0068  0.5108 -0.2533
18377TIP3    H176622   4.008   6.891   1.773 -0.0468  0.2011  0.5734
18377TIP3    H276623   4.030   6.808   1.649 -4.8313 -0.9315  0.2843
18378TIP3   OH276624   6.764   2.085   5.985 -0.0168 -0.6768 -0.1004
18378TIP3    H176625   6.704   2.011   5.997 -1.5117  0.2029 -1.7547
18378TIP3    H276626   6.849   2.051   6.014 -0.7644 -2.8557 -0.2437
18379TIP3   OH276627   2.047   4.294   1.474 -0.4162 -0.1924 -0.6539
18379TIP3    H176628   2.063   4.382   1.441 -0.3836 -0.0662 -0.3018
18379TIP3    H276629   2.105   4.238   1.422  0.1025  0.0823 -0.3864
18380TIP3   OH276630   3.531   5.086  13.715 -0.0386 -0.1601  0.0009
18380TIP3    H176631   3.585   5.092  13.794  0.3297  1.4408 -0.3374
18380TIP3    H276632   3.546   4.998  13.681  0.5949 -0.5082  1.1463
18381TIP3   OH276633   3.419   5.807  14.357 -0.3225 -0.3673 -0.3774
18381TIP3    H176634   3.379   5.785  14.440 -0.7768  0.5107 -0.3444
18381TIP3    H276635   3.488   5.870  14.379 -2.2863  2.1275 -0.8579
18382TIP3   OH276636   5.838   3.861   4.276 -0.6447  0.3647  0.0098
18382TIP3    H176637   5.795   3.830   4.356 -1.2091  0.7402 -0.1477
18382TIP3    H276638   5.799   3.808   4.206 -1.5854  1.3808 -0.2565
18383TIP3   OH276639   0.359   6.147   6.195  0.5284  0.1285 -0.2339
18383TIP3    H176640   0.351   6.208   6.122 -0.4198 -1.0466 -1.1568
18383TIP3    H276641   0.447   6.160   6.229  0.8867  0.8797 -1.4260
18384TIP3   OH276642   0.231   1.197   6.361  0.0030  0.7485 -0.3138
18384TIP3    H176643   0.151   1.160   6.398 -1.3353  2.9643 -0.8031
18384TIP3    H276644   0.215   1.291   6.359  1.8779  1.0944 -2.2197
18385TIP3   OH276645   0.866   2.564   4.766  0.7177  0.0200  0.0852
18385TIP3    H176646   0.914   2.635   4.810  1.0187 -1.6511  2.6369
18385TIP3    H276647   0.776   2.574   4.796  0.9030 -1.0761  1.0590
18386TIP3   OH276648   3.014   4.856  16.664  0.5280 -0.7620  0.4792
18386TIP3    H176649   2.988   4.795  16.595 -0.9727  0.2187  0.1264
18386TIP3    H276650   2.962   4.831  16.739  0.2897 -0.2486  0.4886
18387TIP3   OH276651   1.615   1.936  12.574 -0.1644  0.3522 -0.0258
18387TIP3    H176652   1.522   1.923  12.592  0.3136 -1.5588  1.3942
18387TIP3    H276653   1.624   2.030  12.560 -1.9132  0.9578  2.3683
18388TIP3   OH276654   0.127   1.002  12.465  0.0453 -0.3105 -0.0518
18388TIP3    H176655   0.097   1.060  12.535  0.9687 -1.1205  1.0509
18388TIP3    H276656   0.046   0.974  12.421 -0.4126  1.9578 -0.7919
18389TIP3   OH276657   2.661   2.123   4.368 -0.3817  0.1046 -0.2785
18389TIP3    H176658   2.621   2.062   4.429  0.1704 -0.2187 -0.2296
18389TIP3    H276659   2.607   2.117   4.289 -1.8844  1.5052  0.6009
18390TIP3   OH276660   0.645   3.048  15.462 -0.2240 -0.1062 -0.0171
18390TIP3    H176661   0.616   3.079  15.548 -1.0195  1.8858 -0.9252
18390TIP3    H276662   0.687   2.964  15.479 -0.4359  0.1969  2.2916
18391TIP3   OH276663   6.604   2.937  15.740 -0.1411 -0.7764  0.5522
18391TIP3    H176664   6.516   2.903  15.754 -1.3198  2.1836  1.0466
18391TIP3    H276665   6.599   3.029  15.766  3.6914 -1.0072  2.8742
18392TIP3   OH276666   0.291   6.818   2.504 -0.7075 -0.2989  0.1944
18392TIP3    H176667   0.222   6.873   2.469 -0.6856 -0.7659 -0.5960
18392TIP3    H276668   0.372   6.853   2.468 -0.6767 -0.7306 -0.1667
18393TIP3   OH276669   0.490   1.739  13.748 -0.3006 -0.2265  0.2901
18393TIP3    H176670   0.398   1.757  13.770 -0.2409 -0.5232  0.7872
18393TIP3    H276671   0.534   1.730  13.832  0.2561  0.2337  0.0544
18394TIP3   OH276672   6.298   3.064  16.057 -0.0272  0.6056  0.1018
18394TIP3    H176673   6.376   3.114  16.083 -1.0998  1.4539  1.8166
18394TIP3    H276674   6.225   3.113  16.093 -1.2531 -1.1717  0.1448
18395TIP3   OH276675   4.854   1.017   4.212  0.4762  0.3319 -0.2216
18395TIP3    H176676   4.872   0.966   4.291  0.2799  0.8687  0.1797
18395TIP3    H276677   4.816   0.955   4.150 -0.0171  0.0556  0.3575
18396TIP3   OH276678   4.259   3.898  14.323  0.5361 -0.2795  0.2617
18396TIP3    H176679   4.174   3.894  14.367  0.3052  0.3108 -0.1299
18396TIP3    H276680   4.291   3.808  14.326 -0.2654 -0.5820  0.0862
18397TIP3   OH276681   5.894   5.264  16.921 -0.8539 -0.3360  0.2224
18397TIP3    H176682   5.822   5.274  16.984 -1.9424  0.0583 -1.0351
18397TIP3    H276683   5.852   5.273  16.835  0.6596 -0.4043 -0.5572
18398TIP3   OH276684   4.199   4.424   2.495  0.0085 -0.0804 -0.1404
18398TIP3    H176685   4.138   4.390   2.561 -0.9431  0.7691 -0.5477
18398TIP3    H276686   4.265   4.356   2.486 -1.2935 -1.3821 -0.2273
18399TIP3   OH276687   5.958   1.049  10.995 -0.1799 -0.1296 -0.3607
18399TIP3    H176688   5.904   1.021  11.069 -0.5255  2.3196  0.3800
18399TIP3    H276689   6.006   0.970  10.970  0.7144 -0.8299  3.0816
18400TIP3   OH276690   5.823   3.128   0.490 -0.4559  0.0048  0.0660
18400TIP3    H176691   5.841   3.195   0.424 -0.7005  0.4455  0.4407
18400TIP3    H276692   5.896   3.066   0.482 -0.2138  0.3305 -0.2685
18401TIP3   OH276693   4.885   0.490  14.683 -0.7099 -0.2864 -0.2787
18401TIP3    H176694   4.940   0.497  14.606 -1.2545 -0.8185 -0.7287
18401TIP3    H276695   4.853   0.579  14.698  1.5144  0.3850  0.9673
18402TIP3   OH276696   0.198   6.034  10.364 -0.0041 -0.1200 -0.3777
18402TIP3    H176697   0.280   5.990  10.345  0.3024  0.3070 -0.0701
18402TIP3    H276698   0.132   5.965  10.359 -0.0513  0.0034 -3.4858
18403TIP3   OH276699   3.463   1.250  14.634 -0.2644  0.3833 -0.1917
18403TIP3    H176700   3.518   1.172  14.634 -0.7483  0.0398 -0.9707
18403TIP3    H276701   3.375   1.218  14.614 -1.1137  0.6900  2.5607
18404TIP3   OH276702   2.217   1.337   3.177  0.0313  0.7935  0.2587
18404TIP3    H176703   2.178   1.269   3.122 -0.3141  0.4514  0.9165
18404TIP3    H276704   2.310   1.316   3.181 -0.2601 -0.3803  1.4729
18405TIP3   OH276705   1.153   6.159   0.627  0.7758 -0.5696 -0.0676
18405TIP3    H176706   1.102   6.132   0.551 -1.4809 -0.6910  1.3948
18405TIP3    H276707   1.175   6.250   0.611 -2.2083  0.3184  0.3523
18406TIP3   OH276708   4.413   3.083   1.847 -0.2714 -0.3652  0.3147
18406TIP3    H176709   4.338   3.043   1.804  0.7638 -1.0951 -0.9086
18406TIP3    H276710   4.489   3.049   1.800  0.8560  0.1333  1.6726
18407TIP3   OH276711   0.154   4.117   6.104 -0.2571  0.0451 -0.8403
18407TIP3    H176712   0.072   4.083   6.140 -1.3629  0.7557 -2.5294
18407TIP3    H276713   0.138   4.211   6.094  1.2588  0.4179  0.0052
18408TIP3   OH276714   5.873   6.621  16.545 -0.3617 -0.0539 -0.3510
18408TIP3    H176715   5.833   6.569  16.475 -2.1280 -0.4370  0.8740
18408TIP3    H276716   5.931   6.560  16.590 -0.8002 -0.3753 -0.2197
18409TIP3   OH276717   2.512   0.075  10.607  0.0454  0.8517  0.1911
18409TIP3    H176718   2.534  -0.000  10.551 -1.7915 -0.8130  1.5462
18409TIP3    H276719   2.456   0.130  10.552 -1.5800 -0.6661  0.2286
18410TIP3   OH276720   2.965   0.621   2.807 -0.6272 -0.1621 -0.2070
18410TIP3    H176721   2.878   0.581   2.802 -0.3152 -0.9971  0.7399
18410TIP3    H276722   3.026   0.548   2.795 -0.0435 -0.0894  1.9415
18411TIP3   OH276723   1.091   6.561  13.315 -0.6826 -0.4148 -0.0598
18411TIP3    H176724   1.099   6.588  13.407  0.9115  1.5873 -0.7370
18411TIP3    H276725   1.026   6.621  13.279 -0.1765 -0.1917 -0.6023
18412TIP3   OH276726   6.618   3.113   0.440 -0.2600  0.5252  0.4713
18412TIP3    H176727   6.666   3.181   0.393 -0.0279  0.3235  0.4178
18412TIP3    H276728   6.563   3.072   0.374 -0.9521  1.1516  0.6500
18413TIP3   OH276729   1.645   2.683  13.835 -0.2934  0.3900 -0.6193
18413TIP3    H176730   1.680   2.596  13.853  0.0832  0.5342 -0.6315
18413TIP3    H276731   1.707   2.720  13.772 -0.1347  0.8750 -0.1836
18414TIP3   OH276732   4.098   1.692  13.810 -0.1234 -0.0089  0.3464
18414TIP3    H176733   4.160   1.759  13.840  0.0572 -0.1268  0.2406
18414TIP3    H276734   4.017   1.739  13.794  0.0786  0.2293  0.0245
18415TIP3   OH276735   1.557   4.081   5.627 -0.1546  0.0417 -0.3993
18415TIP3    H176736   1.556   3.986   5.624  0.5356 -0.0028  0.4262
18415TIP3    H276737   1.635   4.106   5.578 -0.0192  0.1469 -0.1376
18416TIP3   OH276738   3.055   2.537  16.714 -0.5363  0.2722  0.7933
18416TIP3    H176739   2.989   2.478  16.677  0.6516 -0.0082 -1.0118
18416TIP3    H276740   3.095   2.487  16.785 -0.9569 -0.3139  0.6269
18417TIP3   OH276741   1.823   4.058   1.372 -0.2481 -0.4822 -0.3073
18417TIP3    H176742   1.831   3.980   1.427  0.3554 -1.1244 -1.2769
18417TIP3    H276743   1.850   4.130   1.429 -1.1819 -0.9072  0.7301
18418TIP3   OH276744   4.455   6.058   2.258  0.0776 -0.4253  0.3321
18418TIP3    H176745   4.467   5.964   2.253 -3.5902 -1.0237 -0.0894
18418TIP3    H276746   4.441   6.076   2.351 -1.6156 -0.7618  0.1763
18419TIP3   OH276747   5.671   1.554  17.215  0.5636  0.2029 -0.7279
18419TIP3    H176748   5.618   1.519  17.143 -0.1161 -2.2203  0.8381
18419TIP3    H276749   5.688   1.479  17.271  2.6817  1.6405  0.6981
18420TIP3   OH276750   2.761   0.517   2.238 -0.4539 -0.0727 -0.2163
18420TIP3    H176751   2.778   0.524   2.332 -0.7587 -0.5343 -0.1264
18420TIP3    H276752   2.784   0.604   2.204 -0.0576  0.0068  0.2336
18421TIP3   OH276753   4.192   0.529   4.981  0.0937 -0.0445  0.1730
18421TIP3    H176754   4.239   0.458   5.023  0.7518  0.2803  0.0120
18421TIP3    H276755   4.261   0.584   4.943 -0.4019  0.6430  0.2457
18422TIP3   OH276756   6.583   5.745  10.847 -0.1496  0.2907 -0.0831
18422TIP3    H176757   6.668   5.750  10.890 -0.3056 -1.1768  0.4554
18422TIP3    H276758   6.526   5.701  10.910 -0.9924  0.1606 -0.9032
18423TIP3   OH276759   4.429   3.533   0.715  0.4521  0.1302 -0.1390
18423TIP3    H176760   4.448   3.543   0.622 -0.8418  0.0352 -0.4275
18423TIP3    H276761   4.388   3.447   0.722  0.9335 -0.0555  0.6016
18424TIP3   OH276762   3.366   2.422  13.277  0.3397  0.0140  0.8168
18424TIP3    H176763   3.425   2.470  13.336  1.8245 -0.3046 -0.3228
18424TIP3    H276764   3.351   2.482  13.205 -1.6545  0.4868  1.5669
18425TIP3   OH276765   3.594   2.441  11.412 -0.1835 -0.6499 -0.2960
18425TIP3    H176766   3.535   2.472  11.343  0.4090  0.9039 -0.1516
18425TIP3    H276767   3.674   2.417  11.366  0.2311  0.4384 -0.1718
18426TIP3   OH276768   0.417   2.706   3.763  0.0779  0.3626  0.2280
18426TIP3    H176769   0.512   2.695   3.756  0.0450  0.7277 -0.8416
18426TIP3    H276770   0.382   2.677   3.679 -0.6094  1.9119 -0.0555
18427TIP3   OH276771   3.963   0.746  16.702 -0.0067 -0.3589 -0.0218
18427TIP3    H176772   3.910   0.750  16.623 -1.8435  1.2363  1.1925
18427TIP3    H276773   4.054   0.743  16.671 -0.7075 -0.9011 -2.1510
18428TIP3   OH276774   4.686   0.017  12.306  0.4241  0.5920  0.4011
18428TIP3    H176775   4.605   0.050  12.267  1.3250  0.5132 -1.6606
18428TIP3    H276776   4.668  -0.075  12.326  0.6242 -0.0287 -2.0474
18429TIP3   OH276777   5.992   4.636  16.306 -0.5492  0.3674 -0.0501
18429TIP3    H176778   5.897   4.638  16.321 -0.6798 -0.7758 -0.5759
18429TIP3    H276779   6.030   4.623  16.393 -0.9920 -0.9691 -0.0385
18430TIP3   OH276780   3.666   4.722  15.250 -0.2231 -0.3883  0.5082
18430TIP3    H176781   3.730   4.793  15.244 -0.9840  0.1894 -1.2362
18430TIP3    H276782   3.611   4.746  15.324 -0.5537  0.9351 -0.1445
18431TIP3   OH276783   0.338   3.526   2.788  0.0350 -0.3553  0.3718
18431TIP3    H176784   0.397   3.569   2.727  0.0471 -0.2324  0.4693
18431TIP3    H276785   0.380   3.535   2.874 -0.1962 -0.1367  0.4637
18432TIP3   OH276786   6.745   1.802   4.730 -0.1421 -0.0561  0.2748
18432TIP3    H176787   6.677   1.749   4.770 -1.1079  0.9654  0.0295
18432TIP3    H276788   6.701   1.848   4.658  1.1556 -0.5196 -0.8565
18433TIP3   OH276789   0.811   5.693  11.055  0.3134  0.3421  0.0399
18433TIP3    H176790   0.730   5.745  11.057 -1.0761 -1.6543 -0.6770
18433TIP3    H276791   0.823   5.671  10.963  0.4980 -1.0646  0.3754
18434TIP3   OH276792   6.417   1.580   6.890 -0.3920  0.0378  0.4618
18434TIP3    H176793   6.364   1.508   6.856 -1.0436  0.8817 -0.3396
18434TIP3    H276794   6.420   1.564   6.985  0.0527 -1.4131  0.2325
18435TIP3   OH276795   1.223   1.320   3.572 -0.2684 -0.0448  0.7790
18435TIP3    H176796   1.235   1.230   3.602 -0.5004 -1.1560 -2.1213
18435TIP3    H276797   1.154   1.314   3.506  1.0657  1.8610 -0.9165
18436TIP3   OH276798   1.208   5.926  15.478  0.3462  0.4764  0.1204
18436TIP3    H176799   1.127   5.885  15.509  0.4007  0.0677 -0.2705
18436TIP3    H276800   1.275   5.860  15.491  0.3866  0.3223 -0.7855
18437TIP3   OH276801   6.390   4.738  17.040 -0.3797  0.1172  0.5500
18437TIP3    H176802   6.367   4.792  17.116 -0.4460  0.2118  0.4609
18437TIP3    H276803   6.408   4.801  16.970 -2.1376  0.0060 -0.0596
18438TIP3   OH276804   0.560   5.301  12.407  0.3011  0.7249 -0.4006
18438TIP3    H176805   0.605   5.221  12.435  0.3082  0.5017 -1.0212
18438TIP3    H276806   0.469   5.274  12.393  0.0647  1.0746  0.4251
18439TIP3   OH276807   3.754   3.613   3.950 -0.1135 -0.1596  0.1027
18439TIP3    H176808   3.759   3.524   3.916  0.2205  0.0367 -0.3848
18439TIP3    H276809   3.674   3.649   3.912 -0.3525 -0.3159  0.4588
18440TIP3   OH276810   0.315   4.115   4.140 -0.6489 -0.6327 -0.4092
18440TIP3    H176811   0.365   4.150   4.066 -0.2658  0.9220  0.5509
18440TIP3    H276812   0.254   4.053   4.099  0.1293 -0.4635 -1.9245
18441TIP3   OH276813   6.239   0.987  13.260  0.2087 -0.2479 -0.0418
18441TIP3    H176814   6.270   1.058  13.203 -0.0503 -1.3051 -1.5768
18441TIP3    H276815   6.218   0.916  13.199  1.0966 -1.8983  1.4994
18442TIP3   OH276816   1.061   6.044  16.574  0.1639 -0.2006 -0.1270
18442TIP3    H176817   1.105   6.072  16.654 -1.1027 -1.3347  1.0195
18442TIP3    H276818   1.052   6.124  16.522  2.4733  0.2723  0.0906
18443TIP3   OH276819   0.242   0.738  11.269 -0.0497  0.5131 -0.2017
18443TIP3    H176820   0.223   0.734  11.175  0.0057 -2.8684 -0.1662
18443TIP3    H276821   0.156   0.733  11.311  0.0471 -0.7782 -0.1117
18444TIP3   OH276822   6.765   1.161   1.610  0.3769  0.1778 -0.1811
18444TIP3    H176823   6.815   1.180   1.690 -2.9596 -0.9859  2.3922
18444TIP3    H276824   6.728   1.246   1.584  0.8335  0.4198 -0.0612
18445TIP3   OH276825   1.229   1.295  14.362  0.2826 -0.4412 -0.3335
18445TIP3    H176826   1.269   1.283  14.276 -0.7414 -1.2701 -0.7132
18445TIP3    H276827   1.164   1.225  14.368  0.2048 -0.2737  1.0377
18446TIP3   OH276828   6.493   0.232   5.064 -1.2425 -0.0860 -0.0035
18446TIP3    H176829   6.443   0.167   5.013 -1.5737 -1.5418  2.0784
18446TIP3    H276830   6.562   0.182   5.106 -0.0729  1.3472 -0.1318
18447TIP3   OH276831   4.573   5.048   0.226  0.0786 -0.1872  0.1970
18447TIP3    H176832   4.530   5.117   0.276 -1.0283 -1.4726  1.0856
18447TIP3    H276833   4.545   4.967   0.268  0.8108 -1.2158 -1.2232
18448TIP3   OH276834   6.633   3.035   4.881 -0.7404 -0.2434 -0.6294
18448TIP3    H176835   6.553   3.085   4.863 -0.6327  1.0092  1.9222
18448TIP3    H276836   6.606   2.967   4.942  0.2104  0.7039  0.9212
18449TIP3   OH276837   5.661   4.760   5.485 -0.5824 -0.0486 -0.0193
18449TIP3    H176838   5.586   4.770   5.426 -0.6436  0.9426  0.2091
18449TIP3    H276839   5.643   4.820   5.558 -0.2597 -0.8695  0.7645
18450TIP3   OH276840   4.852   6.569   3.532  0.0120  0.2310  0.6122
18450TIP3    H176841   4.844   6.644   3.473  2.0791  0.2390  0.2466
18450TIP3    H276842   4.869   6.495   3.474  0.8714  0.0292  1.0989
18451TIP3   OH276843   4.049   0.803   4.357 -0.2992 -0.6833  0.0825
18451TIP3    H176844   4.003   0.870   4.305  0.2072 -1.4440 -1.4204
18451TIP3    H276845   3.978   0.756   4.402 -0.6573  0.8388  1.1816
18452TIP3   OH276846   3.116   2.197  13.775  0.4912 -0.4965  0.3424
18452TIP3    H176847   3.124   2.171  13.867 -1.5113  2.7811  1.6127
18452TIP3    H276848   3.026   2.173  13.751  1.0353 -1.4392 -0.8926
18453TIP3   OH276849   4.388   3.953  12.101  0.4319 -0.2449 -0.5557
18453TIP3    H176850   4.459   3.913  12.051  0.5195 -0.7136 -0.0684
18453TIP3    H276851   4.316   3.891  12.093 -0.0752  0.4386 -1.4143
18454TIP3   OH276852   5.649   4.106   4.317  0.2792 -0.1158 -0.4102
18454TIP3    H176853   5.734   4.061   4.311 -0.0183 -0.5428 -1.6758
18454TIP3    H276854   5.605   4.063   4.390  1.1073  0.0360  0.1886
18455TIP3   OH276855   0.249   4.541   5.346 -0.4050 -0.0976 -0.2059
18455TIP3    H176856   0.319   4.597   5.379 -0.3125 -0.1695 -0.2794
18455TIP3    H276857   0.289   4.455   5.338 -0.9593 -0.5495  1.4233
18456TIP3   OH276858   6.185   3.251  13.447  0.2645  0.3004  0.0579
18456TIP3    H176859   6.177   3.341  13.415  0.9799 -0.1152 -1.3909
18456TIP3    H276860   6.279   3.237  13.455  0.1261 -0.0402  1.1234
18457TIP3   OH276861   4.993   3.893   0.314 -0.7657 -0.2645  0.6299
18457TIP3    H176862   5.017   3.871   0.224 -0.1381  0.0727  0.7118
18457TIP3    H276863   4.914   3.841   0.331  0.7199 -2.6353  0.8698
18458TIP3   OH276864   1.585   5.493   4.853  0.2946  0.7410  0.0807
18458TIP3    H176865   1.622   5.513   4.767  0.5331  0.8629  0.2089
18458TIP3    H276866   1.591   5.397   4.859 -0.7709  0.6207 -0.4973
18459TIP3   OH276867   3.398   5.143  16.189 -0.0046 -0.3480  0.5516
18459TIP3    H176868   3.398   5.234  16.218  0.6309 -0.3657  0.6123
18459TIP3    H276869   3.485   5.110  16.211  0.7806 -0.1565 -1.9981
18460TIP3   OH276870   3.765   3.584  14.040 -0.4878  0.4516  0.4265
18460TIP3    H176871   3.739   3.525  14.111 -3.8419  0.2709 -0.8166
18460TIP3    H276872   3.818   3.529  13.983  0.8224  0.1444  1.8561
18461TIP3   OH276873   5.789   3.803   3.133  0.2283  0.1797  0.1461
18461TIP3    H176874   5.734   3.842   3.201  3.5963  2.4739  1.8522
18461TIP3    H276875   5.768   3.855   3.055  0.8471  1.9610  1.0981
18462TIP3   OH276876   1.986   0.718   0.162 -0.5521 -0.1557  0.2153
18462TIP3    H176877   1.931   0.659   0.213 -0.3411  0.4009  1.1105
18462TIP3    H276878   2.071   0.716   0.207 -0.3523  0.3224 -0.1316
18463TIP3   OH276879   0.558   1.324   4.814  0.6407  0.4331 -0.1624
18463TIP3    H176880   0.534   1.271   4.890  0.5234 -0.3250 -0.7066
18463TIP3    H276881   0.618   1.390   4.848  0.4460  0.2159  0.6147
18464TIP3   OH276882   3.121   5.604   0.900 -0.0152  0.3681  0.2118
18464TIP3    H176883   3.077   5.597   0.815 -1.0947  2.2163  0.5647
18464TIP3    H276884   3.176   5.681   0.892 -1.1772  1.3909  1.5968
18465TIP3   OH276885   0.376   6.126   4.729  0.2126 -0.1703  0.4293
18465TIP3    H176886   0.400   6.068   4.657 -1.5704  0.7959 -1.0393
18465TIP3    H276887   0.341   6.069   4.797  0.2130 -0.9515 -0.2204
18466TIP3   OH276888   0.648   2.968  13.181  0.0545  0.6422 -0.7402
18466TIP3    H176889   0.718   2.971  13.117  0.1559  2.4243 -0.6045
18466TIP3    H276890   0.690   2.988  13.265 -0.2186 -0.7763 -0.2429
18467TIP3   OH276891   2.219   2.147  14.014 -0.2325 -0.0238 -0.0468
18467TIP3    H176892   2.202   2.230  13.969  1.8548 -0.5684 -2.0276
18467TIP3    H276893   2.135   2.101  14.013 -1.1364  1.5410  0.0397
18468TIP3   OH276894   5.210   5.185  13.835  0.3434  0.5431  0.0350
18468TIP3    H176895   5.269   5.140  13.774  1.1617  0.9003  0.5427
18468TIP3    H276896   5.269   5.232  13.894 -0.4621  0.9517  0.5239
18469TIP3   OH276897   2.209   6.655   2.047 -0.1629  0.6430 -0.4052
18469TIP3    H176898   2.180   6.565   2.058  0.9552  0.1103 -1.6048
18469TIP3    H276899   2.140   6.696   1.995 -0.8425  0.5977  0.4324
18470TIP3   OH276900   1.283   1.729  16.700  0.1739 -0.5930 -0.4315
18470TIP3    H176901   1.368   1.691  16.677  1.0101  1.2413 -0.6313
18470TIP3    H276902   1.303   1.788  16.773 -0.6237  0.9021 -1.3567
18471TIP3   OH276903   5.928   3.388   1.395 -0.3121 -0.0472 -0.3347
18471TIP3    H176904   5.912   3.294   1.399 -0.3377 -0.0019  0.9869
18471TIP3    H276905   6.020   3.399   1.419 -1.1310  0.4732  2.9507
18472TIP3   OH276906   3.401   6.192  13.079  0.3163 -0.3601 -0.4063
18472TIP3    H176907   3.351   6.130  13.131  0.6805  0.3604  0.8506
18472TIP3    H276908   3.363   6.278  13.100  1.4382  0.0982 -0.1291
18473TIP3   OH276909   1.657   2.335   5.557 -0.1328  0.4461 -0.6407
18473TIP3    H176910   1.565   2.308   5.551  0.0372  0.0248 -1.7302
18473TIP3    H276911   1.696   2.301   5.476  1.1564 -0.0368  0.1614
18474TIP3   OH276912   5.219   2.551   0.265 -0.1497 -0.0799  0.4674
18474TIP3    H176913   5.276   2.555   0.188 -1.1217 -0.2829 -0.2885
18474TIP3    H276914   5.249   2.474   0.313 -0.0931 -0.4707 -0.1782
18475TIP3   OH276915   3.957   4.882   1.296  0.0018 -0.0777 -0.1498
18475TIP3    H176916   3.958   4.918   1.385 -0.4307  2.2760 -1.0333
18475TIP3    H276917   4.034   4.826   1.292 -0.6789 -1.3199  2.0852
18476TIP3   OH276918   2.833   0.103   0.257  0.3204  0.0111 -0.2307
18476TIP3    H176919   2.822   0.009   0.267 -0.8429  0.2242  0.7049
18476TIP3    H276920   2.773   0.141   0.321  1.9953  1.3767  0.6223
18477TIP3   OH276921   4.153   1.174   0.573 -0.0480  0.3463  0.0158
18477TIP3    H176922   4.060   1.157   0.561 -0.0264  1.3272 -1.9417
18477TIP3    H276923   4.186   1.095   0.616 -1.8368  0.1626  1.1580
18478TIP3   OH276924   0.849   1.518  16.976 -0.1270 -0.0283  0.3297
18478TIP3    H176925   0.861   1.612  16.961  1.3945 -0.2080  0.3347
18478TIP3    H276926   0.899   1.476  16.906 -0.5648 -0.8436  0.4941
18479TIP3   OH276927   5.153   4.460  16.274 -0.1978  0.1201 -0.5952
18479TIP3    H176928   5.160   4.373  16.315 -4.0242  0.1744  0.4875
18479TIP3    H276929   5.109   4.443  16.190 -1.1112  1.0179 -0.3042
18480TIP3   OH276930   2.473   5.348   2.806  0.2265 -0.3546 -0.4233
18480TIP3    H176931   2.460   5.371   2.898  0.0391  2.7336 -1.1062
18480TIP3    H276932   2.547   5.288   2.806  0.0473 -0.6488  1.7444
18481TIP3   OH276933   2.293   4.267   1.924  0.1682  0.5387 -0.3852
18481TIP3    H176934   2.359   4.328   1.958 -0.9405  1.0688  0.9062
18481TIP3    H276935   2.343   4.207   1.869  1.7137  0.9979  0.4467
18482TIP3   OH276936   3.204   4.564  12.315  0.1921  0.2076 -0.0756
18482TIP3    H176937   3.250   4.482  12.296  0.1400 -0.4477  2.2602
18482TIP3    H276938   3.208   4.613  12.233 -0.8466 -2.6112 -1.9890
18483TIP3   OH276939   4.820   5.312  14.044 -0.2261 -0.4552 -0.4765
18483TIP3    H176940   4.800   5.232  13.997 -0.3041 -1.5548  1.3168
18483TIP3    H276941   4.734   5.347  14.069 -0.1724 -0.1872 -0.6643
18484TIP3   OH276942   1.348   4.497  11.501 -0.0837  0.2747 -1.2502
18484TIP3    H176943   1.421   4.447  11.466  0.3764 -1.1638  1.5213
18484TIP3    H276944   1.385   4.547  11.574 -1.6175  0.4466 -0.5455
18485TIP3   OH276945   0.219   6.483   3.327 -0.1931  0.2429 -0.4076
18485TIP3    H176946   0.155   6.413   3.341 -0.0799  0.1619 -0.2864
18485TIP3    H276947   0.193   6.524   3.245 -2.4230  2.4068  1.2481
18486TIP3   OH276948   5.793   4.429   1.394 -0.0748 -0.6356  0.0042
18486TIP3    H176949   5.785   4.468   1.481  1.8849  2.4882 -1.0434
18486TIP3    H276950   5.705   4.433   1.357 -0.4671  0.2549  0.9850
18487TIP3   OH276951   6.435   1.238   5.262  0.1531  0.1768 -0.2434
18487TIP3    H176952   6.525   1.229   5.230  0.3101 -0.0317  0.2539
18487TIP3    H276953   6.442   1.235   5.357 -0.3350  0.6077 -0.1871
18488TIP3   OH276954   6.739   3.484  12.173  0.0289  0.5416 -0.0168
18488TIP3    H176955   6.724   3.529  12.256 -0.4487  0.1500  0.1134
18488TIP3    H276956   6.749   3.392  12.196 -2.1788  0.0913 -0.5484
18489TIP3   OH276957   5.622   5.942   4.324  0.5145  0.2228 -0.2082
18489TIP3    H176958   5.667   5.942   4.408  2.9001 -1.3479 -1.3638
18489TIP3    H276959   5.654   6.020   4.279  0.9843 -0.1281 -0.4889
18490TIP3   OH276960   6.539   3.884   6.157  0.3575 -0.6040 -0.2016
18490TIP3    H176961   6.494   3.968   6.147  1.0668 -0.3575 -1.5695
18490TIP3    H276962   6.513   3.853   6.243 -0.6962  0.5566 -0.0733
18491TIP3   OH276963   6.002   4.095  10.446 -1.0271 -0.2123 -0.2707
18491TIP3    H176964   6.074   4.032  10.439 -0.1505  0.8109 -0.5716
18491TIP3    H276965   6.044   4.179  10.462 -2.2443  0.0939  1.6104
18492TIP3   OH276966   2.517   4.454   5.329 -0.2725  0.0519  0.4323
18492TIP3    H176967   2.587   4.489   5.274 -0.5091 -1.5254 -0.9580
18492TIP3    H276968   2.438   4.463   5.275 -0.6344 -0.8881  0.7984
18493TIP3   OH276969   4.549   5.872   5.799  0.5882 -0.0464  0.6808
18493TIP3    H176970   4.487   5.827   5.742  1.2316 -0.7791  0.5391
18493TIP3    H276971   4.592   5.936   5.743  1.7480 -1.2645  0.1144
18494TIP3   OH276972   5.468   2.626  16.920 -0.2361 -0.0886  0.2093
18494TIP3    H176973   5.376   2.626  16.896 -0.5079  0.1190  1.2178
18494TIP3    H276974   5.511   2.574  16.852 -1.3665 -1.7964  0.7538
18495TIP3   OH276975   6.739   3.927  16.721 -0.8788  0.2350  0.5205
18495TIP3    H176976   6.656   3.883  16.739 -1.8969  1.5587 -0.6536
18495TIP3    H276977   6.730   3.959  16.631  1.1564 -0.0706  0.1585
18496TIP3   OH276978   1.085   2.357   2.042  0.0565 -0.5598  0.0369
18496TIP3    H176979   1.121   2.287   1.988  0.9822 -0.4116  0.4432
18496TIP3    H276980   1.066   2.428   1.981  0.4608 -0.6400 -0.1805
18497TIP3   OH276981   1.393   4.731  11.659  0.0292 -0.0636 -0.5181
18497TIP3    H176982   1.320   4.788  11.681  1.6075  1.1057  2.1797
18497TIP3    H276983   1.463   4.790  11.632  0.6149 -1.0141 -1.1502
18498TIP3   OH276984   1.193   2.128   1.916 -0.3595 -0.4734 -0.0202
18498TIP3    H176985   1.269   2.115   1.974 -0.8229 -1.0455  0.4754
18498TIP3    H276986   1.137   2.052   1.933 -1.4222  0.3348  0.2097
18499TIP3   OH276987   3.031   3.982  16.332 -0.6271 -0.1849 -0.3346
18499TIP3    H176988   3.000   3.979  16.423  0.3416  2.7526  0.2170
18499TIP3    H276989   2.968   4.037  16.287  0.7448  1.3212 -0.5193
18500TIP3   OH276990   3.428   1.386  17.177  0.7820 -0.1424 -0.6432
18500TIP3    H176991   3.443   1.331  17.100 -0.1867  0.0906 -1.0243
18500TIP3    H276992   3.419   1.475  17.142 -0.6449 -0.1606 -0.4133
18501TIP3   OH276993   2.664   3.259   3.838  0.0481  0.2781 -0.1208
18501TIP3    H176994   2.752   3.224   3.821 -0.8681 -1.8637 -0.8107
18501TIP3    H276995   2.671   3.298   3.926  1.8932  1.0344 -0.5467
18502TIP3   OH276996   5.430   2.294   5.179  0.5544  0.5541 -0.4398
18502TIP3    H176997   5.365   2.298   5.249 -1.1999  2.0655 -2.0533
18502TIP3    H276998   5.419   2.207   5.140 -0.4716  0.7618 -0.6356
18503TIP3   OH276999   1.598   0.093  16.772 -0.3602  0.1198  0.0098
18503TIP3    H177000   1.662   0.156  16.802 -0.1784 -0.8048  1.6708
18503TIP3    H277001   1.608   0.092  16.677 -0.8207  3.0131 -0.1453
18504TIP3   OH277002   1.507   5.237  12.387  0.2954  0.4516 -0.0166
18504TIP3    H177003   1.481   5.145  12.397 -1.5328  0.8765 -0.4933
18504TIP3    H277004   1.595   5.233  12.350  0.3534 -1.1010  0.2071
18505TIP3   OH277005   3.068   6.619   0.121  0.5328  0.5909 -0.4051
18505TIP3    H177006   2.977   6.605   0.146  0.1177 -0.3009 -2.2130
18505TIP3    H277007   3.069   6.703   0.077  0.8660  1.2096  0.7417
18506TIP3   OH277008   2.757   0.427   4.318 -0.2877 -0.2334 -0.0382
18506TIP3    H177009   2.783   0.340   4.348  2.2690  0.6935  0.6970
18506TIP3    H277010   2.703   0.462   4.388 -1.7093 -1.3357 -0.5335
18507TIP3   OH277011   5.036   2.691   1.359  0.3612 -0.2471 -1.1216
18507TIP3    H177012   4.958   2.645   1.388  1.8365 -2.3647 -0.2314
18507TIP3    H277013   5.013   2.784   1.363 -1.7559 -0.7678  0.0539
18508TIP3   OH277014   0.936   4.327  14.834 -0.0145  0.4686  0.0082
18508TIP3    H177015   0.918   4.244  14.879  0.4406  0.6392  0.5143
18508TIP3    H277016   0.867   4.334  14.768  1.4482 -1.6097 -1.8729
18509TIP3   OH277017   6.435   4.986  12.435  0.7114  0.0008  0.1535
18509TIP3    H177018   6.396   4.928  12.500 -0.4281 -1.7763 -1.9451
18509TIP3    H277019   6.528   4.963  12.435  0.6002 -0.4652  0.6916
18510TIP3   OH277020   1.528   4.744  17.048 -0.1018 -0.4742  0.4814
18510TIP3    H177021   1.601   4.805  17.061  0.1887 -1.0648  1.8360
18510TIP3    H277022   1.564   4.673  16.994  0.2025 -0.5434  0.7746
18511TIP3   OH277023   3.714   3.741  10.977 -0.3350  0.2393 -0.3029
18511TIP3    H177024   3.704   3.777  11.066  0.5153  1.5787 -0.7290
18511TIP3    H277025   3.802   3.767  10.950  0.0059 -1.4718 -0.9872
18512TIP3   OH277026   2.014   1.844   1.197 -0.0738 -0.2186 -0.3036
18512TIP3    H177027   1.969   1.772   1.241 -1.7761  0.9134 -0.1050
18512TIP3    H277028   2.074   1.879   1.263 -1.9351  0.8763  0.8821
18513TIP3   OH277029   4.740   6.373  14.946  0.5155 -0.5093  0.5046
18513TIP3    H177030   4.716   6.363  15.038 -2.2185 -0.3111 -0.0972
18513TIP3    H277031   4.739   6.284  14.911  1.3182 -0.5594  0.5858
18514TIP3   OH277032   4.517   4.623   3.794  0.1202 -0.6820  0.0579
18514TIP3    H177033   4.538   4.602   3.703 -1.2241  1.1839 -0.7407
18514TIP3    H277034   4.438   4.571   3.813 -0.9821  0.6819 -0.6572
18515TIP3   OH277035   1.562   1.180  14.379  0.8647 -0.0630 -0.5341
18515TIP3    H177036   1.620   1.112  14.416 -1.7248 -1.2169  1.7307
18515TIP3    H277037   1.483   1.175  14.432 -0.1717  3.5609 -1.5030
18516TIP3   OH277038   6.095   4.216   5.310 -0.3740 -0.4742  0.6546
18516TIP3    H177039   6.110   4.249   5.222  1.6325 -1.1396  0.6968
18516TIP3    H277040   6.045   4.136   5.298 -1.3308  0.1661  0.2474
18517TIP3   OH277041   2.901   6.139  17.077  0.7348  0.1297  0.7772
18517TIP3    H177042   2.878   6.058  17.122 -1.5970  0.2198 -0.1075
18517TIP3    H277043   2.875   6.209  17.137 -2.7976  0.2622 -0.6661
18518TIP3   OH277044   4.235   3.567   2.141 -0.0803  0.4311  0.0102
18518TIP3    H177045   4.320   3.582   2.099 -0.8819  1.0205 -1.4969
18518TIP3    H277046   4.182   3.526   2.073 -1.3372  1.1328  0.5339
18519TIP3   OH277047   0.822   1.997   4.140 -0.0710 -0.7490  0.2857
18519TIP3    H177048   0.733   2.017   4.112 -0.0581 -0.6763  0.2968
18519TIP3    H277049   0.832   2.045   4.223 -0.3082 -1.4250  0.7119
18520TIP3   OH277050   3.933   1.271   5.352  0.2073 -0.0453  0.2913
18520TIP3    H177051   3.956   1.364   5.350 -1.1547  0.3301 -1.5743
18520TIP3    H277052   3.837   1.270   5.343  0.3629 -1.5899 -2.5816
18521TIP3   OH277053   4.543   4.166   4.462  0.3736 -0.4159 -0.4974
18521TIP3    H177054   4.505   4.126   4.384 -1.2448  0.9654 -0.4670
18521TIP3    H277055   4.593   4.241   4.430  1.7869 -1.2593 -0.3793
18522TIP3   OH277056   2.230   1.910  14.654  0.3255  0.4986 -0.4788
18522TIP3    H177057   2.267   1.957  14.579 -1.0554  2.3981 -0.0472
18522TIP3    H277058   2.273   1.948  14.730  0.2404  0.0130 -0.1806
18523TIP3   OH277059   0.775   5.028   6.048 -0.0399 -0.1803  0.3249
18523TIP3    H177060   0.844   5.083   6.084  0.3611  0.6774 -1.6139
18523TIP3    H277061   0.819   4.947   6.021  0.8046  1.1710 -2.8952
18524TIP3   OH277062   5.610   5.069  14.038 -0.1823 -0.4483 -0.3729
18524TIP3    H177063   5.550   5.049  14.109  0.2109  1.0067  0.4025
18524TIP3    H277064   5.584   5.010  13.967 -1.4204 -1.0082  0.5167
18525TIP3   OH277065   4.641   4.309  11.270 -0.1200 -0.5152 -0.1393
18525TIP3    H177066   4.646   4.375  11.201 -1.5562  0.2495  0.4370
18525TIP3    H277067   4.717   4.253  11.255  2.2298  2.2741  0.4181
18526TIP3   OH277068   1.666   5.166  17.095  0.5562 -0.4713  0.8912
18526TIP3    H177069   1.714   5.084  17.082 -0.3089 -0.8647  0.0514
18526TIP3    H277070   1.714   5.231  17.043 -0.1844 -1.0135 -0.5059
18527TIP3   OH277071   2.093   6.274   4.539 -0.0691 -0.3071 -0.0680
18527TIP3    H177072   2.025   6.264   4.605 -0.0863 -0.6997 -0.1477
18527TIP3    H277073   2.091   6.192   4.489  1.3381 -0.8472  0.7353
18528TIP3   OH277074   2.080   5.254   0.898  0.0815 -0.4775  0.6884
18528TIP3    H177075   2.143   5.322   0.875 -0.4940  0.2446  1.1947
18528TIP3    H277076   2.117   5.173   0.861  1.0376  0.0145  0.5346
18529TIP3   OH277077   1.765   4.632  16.714 -0.3597  0.1402  0.1353
18529TIP3    H177078   1.686   4.686  16.704 -0.6465 -0.2927  0.0724
18529TIP3    H277079   1.741   4.547  16.677  0.5839  0.4170 -1.1999
18530TIP3   OH277080   6.438   5.431  14.200  0.4006  0.0929 -0.0453
18530TIP3    H177081   6.437   5.479  14.282  0.4450  0.2127 -0.1141
18530TIP3    H277082   6.346   5.413  14.181  0.4394 -0.5729  0.4005
18531TIP3   OH277083   6.525   4.147   6.225 -0.4812  0.3262 -0.3629
18531TIP3    H177084   6.462   4.213   6.195  0.0787  0.8053 -0.4823
18531TIP3    H277085   6.604   4.196   6.246 -0.9269  0.0649  2.2817
18532TIP3   OH277086   1.424   4.387  11.134 -0.7056 -0.1753  0.2477
18532TIP3    H177087   1.429   4.482  11.131 -0.1563 -0.2041  0.0122
18532TIP3    H277088   1.470   4.363  11.214 -0.4152 -0.2623  0.0580
18533TIP3   OH277089   5.058   3.561  11.033  0.1894  0.2871  0.0898
18533TIP3    H177090   5.118   3.633  11.050  0.4605 -0.0607  0.6386
18533TIP3    H277091   5.104   3.483  11.065  0.6095 -0.3868 -2.0065
18534TIP3   OH277092   5.650   3.376   3.335 -0.1094 -0.8377  0.3851
18534TIP3    H177093   5.679   3.367   3.244 -0.9106 -2.6062  0.2619
18534TIP3    H277094   5.714   3.328   3.386  0.5979  0.5366  0.8556
18535TIP3   OH277095   1.490   2.833   6.050  0.0057  0.5797 -0.5760
18535TIP3    H177096   1.537   2.836   5.966  0.3641  0.0904 -0.4002
18535TIP3    H277097   1.512   2.917   6.092 -0.3472  0.9204 -1.0545
18536TIP3   OH277098   2.968   4.175  11.961 -0.2986  0.0472 -0.2748
18536TIP3    H177099   3.036   4.191  12.025 -1.0892  2.3911  0.0611
18536TIP3    H277100   3.015   4.164  11.878  0.5380  1.2938  0.0037
18537TIP3   OH277101   6.206   1.810  15.293 -0.1118 -0.6047  0.6530
18537TIP3    H177102   6.169   1.865  15.362  0.8965  0.8044  0.1173
18537TIP3    H277103   6.136   1.803  15.228 -0.1622  0.3023  0.5970
18538TIP3   OH277104   4.780   0.272  14.146 -0.0710 -0.2365 -0.2110
18538TIP3    H177105   4.717   0.280  14.217 -0.8939 -0.7631 -0.8690
18538TIP3    H277106   4.728   0.255  14.068  0.9037 -1.4061 -0.6478
18539TIP3   OH277107   6.092   3.605  14.806  0.5543 -0.2967  0.5567
18539TIP3    H177108   6.120   3.659  14.732 -0.7042 -0.6497 -0.2031
18539TIP3    H277109   6.174   3.577  14.847  1.2482  0.8238 -0.0230
18540TIP3   OH277110   3.059   5.422  16.883 -0.0302  0.0201  0.3303
18540TIP3    H177111   3.078   5.506  16.926  0.4552 -0.6872  1.5664
18540TIP3    H277112   3.082   5.357  16.949 -1.1768 -1.0669 -0.3179
18541TIP3   OH277113   6.703   4.311   2.482  0.4247 -0.7756  0.4380
18541TIP3    H177114   6.743   4.233   2.519 -0.9107 -2.1941 -0.9287
18541TIP3    H277115   6.687   4.368   2.557  1.3340 -1.8588  1.4936
18542TIP3   OH277116   3.565   3.941   3.870 -0.2071  0.1952  0.0275
18542TIP3    H177117   3.550   3.850   3.844 -0.9962 -0.2732  1.9689
18542TIP3    H277118   3.623   3.976   3.801 -0.9257 -1.3644 -1.4460
18543TIP3   OH277119   3.431   2.237   4.331  0.5165  0.1618 -0.5193
18543TIP3    H177120   3.516   2.263   4.296  0.8112  0.1072  0.1362
18543TIP3    H277121   3.368   2.267   4.266  0.9472  1.3171 -0.4355
18544TIP3   OH277122   2.737   3.103   0.347 -0.4378  0.0871 -0.1062
18544TIP3    H177123   2.780   3.185   0.325  0.2941 -0.1330  0.4478
18544TIP3    H277124   2.692   3.121   0.430 -0.2595 -0.0761  0.0267
18545TIP3   OH277125   6.320   2.551  12.996 -0.4675  0.2373  0.0915
18545TIP3    H177126   6.337   2.503  12.915 -0.3801  0.2482  0.1026
18545TIP3    H277127   6.249   2.610  12.975 -0.3326  0.3580 -0.0238
18546TIP3   OH277128   5.707   0.219   2.551  0.2605 -0.3438  0.2836
18546TIP3    H177129   5.719   0.228   2.646 -1.3632  0.0321  0.4864
18546TIP3    H277130   5.761   0.289   2.514 -0.8828  1.0511  1.0913
18547TIP3   OH277131   1.459   3.787  13.900  0.3965 -0.1416 -0.1884
18547TIP3    H177132   1.507   3.704  13.894 -1.3746 -1.2455  0.3091
18547TIP3    H277133   1.384   3.767  13.955 -0.2085  1.7493 -0.2860
18548TIP3   OH277134   3.481   4.561  14.592 -0.1906 -0.2334  0.2820
18548TIP3    H177135   3.459   4.522  14.677  0.0277 -1.0022 -0.0070
18548TIP3    H277136   3.469   4.655  14.606 -0.7712 -0.3929  0.9866
18549TIP3   OH277137   3.981   0.745  11.618  0.1734  0.1034  0.1383
18549TIP3    H177138   3.897   0.792  11.618  0.4272  0.5663  0.7274
18549TIP3    H277139   4.045   0.812  11.642  1.0728  0.3909 -2.6506
18550TIP3   OH277140   3.399   6.240  11.429 -0.9686  0.6750  0.0737
18550TIP3    H177141   3.467   6.181  11.461 -1.6473  0.4424  1.1180
18550TIP3    H277142   3.369   6.287  11.506 -3.4730 -0.7329  0.0805
18551TIP3   OH277143   1.059   2.793  12.923 -0.0562  0.0029  0.2345
18551TIP3    H177144   1.078   2.880  12.958 -1.1123 -0.4150  1.9746
18551TIP3    H277145   1.140   2.744  12.938 -0.1012  0.1629  1.0363
18552TIP3   OH277146   0.698   6.596  12.184 -0.2654  0.3804  0.5858
18552TIP3    H177147   0.759   6.529  12.154  0.1013  1.3459 -0.9114
18552TIP3    H277148   0.746   6.644  12.252 -0.6891 -1.0887  2.0000
18553TIP3   OH277149   2.195   0.444  11.415  0.4001  0.1262 -0.6313
18553TIP3    H177150   2.267   0.466  11.473 -0.2688  0.3750  0.1267
18553TIP3    H277151   2.202   0.350  11.401 -0.4255 -0.2624  1.2690
18554TIP3   OH277152   5.730   2.686  11.321  0.1984 -0.1800  0.0036
18554TIP3    H177153   5.745   2.658  11.231 -0.4096  0.5242 -0.3255
18554TIP3    H277154   5.697   2.775  11.314 -0.6803 -0.4128  0.8764
18555TIP3   OH277155   1.671   1.979   3.436 -0.3015  0.8535 -0.1060
18555TIP3    H177156   1.694   2.070   3.454 -2.5084  1.6829 -1.1694
18555TIP3    H277157   1.576   1.975   3.447 -0.1924 -1.5153  0.6184
18556TIP3   OH277158   0.134   4.082  13.249 -0.1869  0.3168  0.1271
18556TIP3    H177159   0.194   4.026  13.298 -1.0390 -2.1718 -1.5248
18556TIP3    H277160   0.184   4.111  13.173 -0.7113 -0.9441 -0.7279
18557TIP3   OH277161   1.923   5.605   2.259  0.4718  0.2611 -0.1836
18557TIP3    H177162   1.981   5.614   2.184  0.3509 -1.4999 -0.5197
18557TIP3    H277163   1.927   5.512   2.282 -1.5333  0.2491  0.3107
18558TIP3   OH277164   1.136   0.395   2.065 -0.1404  0.0731  0.5337
18558TIP3    H177165   1.113   0.321   2.010  1.6308  0.1211 -0.3467
18558TIP3    H277166   1.076   0.390   2.139 -1.8968 -0.5996 -0.8737
18559TIP3   OH277167   3.310   4.477   0.215  0.2918 -0.0142  0.2722
18559TIP3    H177168   3.328   4.471   0.309 -0.3437 -1.1562  0.3451
18559TIP3    H277169   3.288   4.569   0.200  1.4089  0.4096  1.0354
18560TIP3   OH277170   5.741   2.210  13.534 -0.2466 -0.2561  0.0293
18560TIP3    H177171   5.802   2.208  13.609 -1.4257  2.9619  1.2517
18560TIP3    H277172   5.735   2.118  13.506  2.9334 -1.1125  1.6174
18561TIP3   OH277173   6.414   2.520  15.930 -0.1672 -0.0145 -0.2178
18561TIP3    H177174   6.356   2.543  16.003 -0.1334 -0.4913 -0.0357
18561TIP3    H277175   6.493   2.572  15.944 -0.5303  0.6130 -0.4444
18562TIP3   OH277176   2.484   0.970  17.232  0.4159 -0.1263  0.2267
18562TIP3    H177177   2.551   1.017  17.183  0.5046  0.1427  0.6055
18562TIP3    H277178   2.451   1.034  17.295 -1.4680  0.3317 -1.1375
18563TIP3   OH277179   5.537   1.143   3.631  0.5638 -0.1162 -0.1964
18563TIP3    H177180   5.499   1.084   3.566  1.5167 -0.6146 -0.3168
18563TIP3    H277181   5.470   1.210   3.645 -0.3025 -0.9013 -0.4901
18564TIP3   OH277182   2.105   4.461  16.761 -0.2270 -0.8849 -0.2822
18564TIP3    H177183   2.183   4.409  16.740  0.3359 -0.3990  0.5378
18564TIP3    H277184   2.107   4.534  16.698  0.5153 -0.3567  0.3340
18565TIP3   OH277185   5.636   2.697  17.226 -0.2621 -0.1343  0.3078
18565TIP3    H177186   5.629   2.704  17.131 -1.2720 -1.0514  0.3023
18565TIP3    H277187   5.694   2.622  17.240 -0.1000  0.0113  0.4227
18566TIP3   OH277188   5.631   6.474  16.425  0.0864  0.2030 -0.0246
18566TIP3    H177189   5.618   6.406  16.358  1.5113  1.4714 -1.6953
18566TIP3    H277190   5.567   6.541  16.404 -0.5640 -0.1001  0.9311
18567TIP3   OH277191   3.748   5.792  16.201 -0.2914 -0.3218  0.4829
18567TIP3    H177192   3.703   5.788  16.116  0.8592 -0.9039 -0.1197
18567TIP3    H277193   3.819   5.855  16.187 -0.3792 -0.0687  1.1609
18568TIP3   OH277194   3.671   4.801  10.501 -0.8667  0.3946 -0.2108
18568TIP3    H177195   3.610   4.765  10.437 -0.3893 -0.6639 -0.0917
18568TIP3    H277196   3.711   4.876  10.457  0.8742 -1.4247 -1.9449
18569TIP3   OH277197   2.075   5.390  16.751 -0.1240  0.0447  0.1302
18569TIP3    H177198   2.073   5.483  16.725 -0.3620  0.2893  1.0070
18569TIP3    H277199   2.043   5.390  16.841 -0.1146 -0.8960  0.1355
18570TIP3   OH277200   6.429   4.317   1.033 -0.1364  0.0355 -0.6043
18570TIP3    H177201   6.468   4.240   0.993 -1.3639 -0.0428 -1.7022
18570TIP3    H277202   6.367   4.281   1.097  0.3260  0.1479 -0.0785
18571TIP3   OH277203   4.272   5.827  16.743  0.4634  0.2122  0.6186
18571TIP3    H177204   4.256   5.847  16.651 -2.0538 -0.9284  0.7092
18571TIP3    H277205   4.299   5.735  16.744 -3.7043 -1.2230  1.1378
18572TIP3   OH277206   3.032   2.759  16.241  0.1818 -0.0024 -0.0609
18572TIP3    H177207   2.962   2.697  16.219 -0.2191  0.1702  0.7010
18572TIP3    H277208   3.070   2.725  16.322  0.2868  0.4780  0.0944
18573TIP3   OH277209   0.233   3.632   4.098 -0.5965  0.5395 -0.2882
18573TIP3    H177210   0.260   3.670   4.014  1.1487 -0.2956 -0.1478
18573TIP3    H277211   0.176   3.698   4.137  2.2357  3.1022 -0.0953
18574TIP3   OH277212   5.645   5.636   1.583  0.1385  0.0196 -0.4695
18574TIP3    H177213   5.651   5.686   1.501  0.4061  2.2940  0.8536
18574TIP3    H277214   5.582   5.685   1.636  1.3352 -0.3383  1.3509
18575TIP3   OH277215   2.084   0.482  11.061  0.1472  0.8416 -0.6864
18575TIP3    H177216   2.156   0.446  11.111 -0.4072  0.8042  0.1060
18575TIP3    H277217   2.015   0.497  11.126 -1.6983 -1.9697 -1.7966
18576TIP3   OH277218   3.231   4.186  12.796  0.0747  0.2782 -0.3740
18576TIP3    H177219   3.286   4.264  12.786 -1.3066  1.3532  0.0945
18576TIP3    H277220   3.241   4.161  12.888 -1.8769  1.8445  0.3480
18577TIP3   OH277221   4.989   5.377  10.638 -0.0411  0.1173 -0.1134
18577TIP3    H177222   4.931   5.431  10.691 -0.8384  1.8967 -2.6371
18577TIP3    H277223   4.931   5.311  10.599  0.1114  0.1907 -0.4717
18578TIP3   OH277224   0.616   5.759  12.267 -0.1134  0.2121 -0.3350
18578TIP3    H177225   0.690   5.820  12.269 -1.2445  1.6229  0.4728
18578TIP3    H277226   0.545   5.805  12.313 -1.0440 -1.7058  0.2749
18579TIP3   OH277227   4.772   0.805   3.715  0.0542 -0.2261  0.0325
18579TIP3    H177228   4.822   0.886   3.719 -1.6878  0.8962  0.0757
18579TIP3    H277229   4.797   0.757   3.794 -0.6607  1.3866  1.2970
18580TIP3   OH277230   5.367   4.216  15.662  0.3334  0.1246  0.4321
18580TIP3    H177231   5.277   4.243  15.644  0.0584 -1.2630 -0.4537
18580TIP3    H277232   5.362   4.174  15.748  0.0695 -0.1492  0.2883
18581TIP3   OH277233   3.242   5.698  13.275 -0.3245  0.0297 -0.0204
18581TIP3    H177234   3.196   5.706  13.192 -1.6474 -1.8141  0.4377
18581TIP3    H277235   3.287   5.613  13.269 -1.6789 -0.8846  1.6155
18582TIP3   OH277236   4.867   2.913   0.090  0.3891 -0.2597 -0.0212
18582TIP3    H177237   4.824   2.835   0.056  1.3726 -0.5087 -0.7441
18582TIP3    H277238   4.891   2.889   0.180 -0.7832 -0.1824  0.3208
18583TIP3   OH277239   3.825   3.538  10.769  0.1177 -0.0183  0.5478
18583TIP3    H177240   3.913   3.552  10.734 -0.6411  2.0839 -0.6897
18583TIP3    H277241   3.816   3.604  10.839 -0.6903  0.2419  0.2111
18584TIP3   OH277242   6.806   4.066  13.848 -0.1085  0.6211  0.2840
18584TIP3    H177243   6.823   4.159  13.863 -0.4297  0.5346  1.1839
18584TIP3    H277244   6.885   4.034  13.804  1.2259  0.7092  2.4766
18585TIP3   OH277245   0.227   6.490   2.125  0.0302 -0.0324 -0.0129
18585TIP3    H177246   0.215   6.520   2.215 -1.1015 -0.2218 -0.0801
18585TIP3    H277247   0.139   6.464   2.097  0.0706  1.4690 -1.7029
18586TIP3   OH277248   6.734   5.646   2.367  0.3913  0.0266 -0.8967
18586TIP3    H177249   6.758   5.592   2.442 -0.8667 -0.6261 -0.9372
18586TIP3    H277250   6.657   5.695   2.397  0.1466  0.0901 -1.6064
18587TIP3   OH277251   0.242   3.740  10.806  0.4814  0.0233  0.6168
18587TIP3    H177252   0.230   3.661  10.858 -0.2981 -0.3381 -0.0669
18587TIP3    H277253   0.159   3.788  10.816  1.3497  1.3432  1.9361
18588TIP3   OH277254   0.649   4.616  11.801 -0.1581 -0.2635 -0.3412
18588TIP3    H177255   0.678   4.565  11.725 -0.4268  0.0997 -0.6907
18588TIP3    H277256   0.702   4.695  11.797 -0.2476 -0.1977 -0.2105
18589TIP3   OH277257   6.486   3.385  12.826 -0.2695  0.1099  0.3327
18589TIP3    H177258   6.512   3.391  12.918 -0.6787 -1.5705  0.5877
18589TIP3    H277259   6.547   3.321  12.789 -1.3092 -0.6593 -0.0864
18590TIP3   OH277260   0.115   2.305   4.214  0.6963 -0.4504  0.2204
18590TIP3    H177261   0.182   2.356   4.259  0.4189 -0.3982  0.5795
18590TIP3    H277262   0.154   2.219   4.201  0.5723 -0.6467  1.0815
18591TIP3   OH277263   3.423   6.787  10.486 -0.1589  0.1468 -0.3487
18591TIP3    H177264   3.458   6.818  10.402  1.2439  0.3225  0.2622
18591TIP3    H277265   3.451   6.853  10.550  1.5614 -1.5031  0.7241
18592TIP3   OH277266   1.169   1.179  16.845  0.0753  0.4937  0.2720
18592TIP3    H177267   1.103   1.207  16.909  1.2252 -0.5011  1.9571
18592TIP3    H277268   1.138   1.094  16.815  0.7801 -0.1849  1.4064
18593TIP3   OH277269   1.333   3.188  12.122  0.3735  0.7369 -0.1407
18593TIP3    H177270   1.274   3.238  12.067  0.2393  0.0397 -0.6450
18593TIP3    H277271   1.328   3.099  12.088 -0.7366 -0.0178  1.8152
18594TIP3   OH277272   2.856   5.281   3.843  0.1627 -0.2312 -0.1335
18594TIP3    H177273   2.913   5.298   3.918 -0.6091 -0.4322  0.5127
18594TIP3    H277274   2.916   5.275   3.768  1.0450 -0.9243  0.6013
18595TIP3   OH277275   0.510   6.613  14.322 -0.0669  0.5448  0.1031
18595TIP3    H177276   0.562   6.620  14.242 -0.9349  1.0692 -0.4336
18595TIP3    H277277   0.524   6.523  14.353 -2.2855 -0.8523 -2.4796
18596TIP3   OH277278   3.843   5.593  12.639 -0.1804  0.4425  0.3401
18596TIP3    H177279   3.800   5.517  12.678  0.5997  0.0021  0.3629
18596TIP3    H277280   3.806   5.599  12.551  0.0162 -0.1953  0.2044
18597TIP3   OH277281   4.376   1.606  15.119 -0.4188 -0.1537  0.0800
18597TIP3    H177282   4.466   1.601  15.153 -0.5212  0.1112  0.3964
18597TIP3    H277283   4.339   1.520  15.135  0.4183 -0.9234 -1.8790
18598TIP3   OH277284   6.369   3.701   2.685  0.0959  0.1391  0.0767
18598TIP3    H177285   6.456   3.687   2.723 -0.1401 -0.0407  0.5555
18598TIP3    H277286   6.314   3.725   2.760 -0.3543 -0.1277 -0.1662
18599TIP3   OH277287   1.822   5.028  12.539  0.1218 -0.3517 -0.3604
18599TIP3    H177288   1.859   4.970  12.606 -0.5880 -0.2811  0.1055
18599TIP3    H277289   1.891   5.093  12.523  0.1716 -0.1594  0.5753
18600TIP3   OH277290   4.284   0.976   1.263  0.6165 -0.0259 -0.4216
18600TIP3    H177291   4.285   1.025   1.180  0.8170 -0.1571 -0.4973
18600TIP3    H277292   4.191   0.970   1.286  0.5824  0.3024 -0.4630
18601TIP3   OH277293   1.622   6.366   1.565  0.5300  0.1719  0.0962
18601TIP3    H177294   1.695   6.315   1.529  1.8595  1.4087  0.9499
18601TIP3    H277295   1.602   6.324   1.649 -0.4598 -0.7791 -0.5815
18602TIP3   OH277296   0.628   3.601  11.172  0.1819  0.0986 -0.2373
18602TIP3    H177297   0.613   3.628  11.081 -0.5660  0.4247 -0.0301
18602TIP3    H277298   0.540   3.588  11.207  0.4953 -1.6153 -0.0229
18603TIP3   OH277299   2.726   5.114  12.126  0.2753  0.5747 -0.1274
18603TIP3    H177300   2.637   5.080  12.123 -0.2868  2.0061 -1.3684
18603TIP3    H277301   2.740   5.139  12.217 -0.5551  0.2260  0.1001
18604TIP3   OH277302   4.193   6.415   0.021 -0.2554  0.1866  0.0609
18604TIP3    H177303   4.174   6.327  -0.010  1.1324 -0.3705  0.7123
18604TIP3    H277304   4.280   6.435  -0.014  2.0957 -1.0405  4.4894
18605TIP3   OH277305   2.650   5.164   5.397 -0.4007 -0.1173  0.0627
18605TIP3    H177306   2.731   5.112   5.396  0.2186  0.7983 -1.3889
18605TIP3    H277307   2.585   5.108   5.356  0.0740 -0.0499 -0.8061
18606TIP3   OH277308   2.787   6.535   5.265  0.7853  0.0400  0.3280
18606TIP3    H177309   2.751   6.619   5.294  0.1357 -0.2431  0.3629
18606TIP3    H277310   2.803   6.487   5.347  0.7470 -0.0335  0.2924
18607TIP3   OH277311   3.220   0.717   5.039  1.1285  0.2685 -0.4238
18607TIP3    H177312   3.201   0.626   5.061 -0.6360  1.2291  2.6012
18607TIP3    H277313   3.295   0.739   5.095  0.0326  1.2543  0.7337
18608TIP3   OH277314   0.541   0.878  13.478 -0.2182 -0.3325  0.3873
18608TIP3    H177315   0.598   0.831  13.539  1.0984  1.3990  0.5405
18608TIP3    H277316   0.457   0.832  13.484  0.5912 -1.7437  1.6044
18609TIP3   OH277317   3.630   5.661   0.049  0.3232 -0.8050  0.0107
18609TIP3    H177318   3.709   5.606   0.049  1.4364  0.6810 -1.7533
18609TIP3    H277319   3.661   5.749   0.070 -1.1453 -0.4566  0.9100
18610TIP3   OH277320   1.024   6.463  12.436  0.7927  0.0933  0.0887
18610TIP3    H177321   1.041   6.444  12.344  1.4108 -1.1743  0.4390
18610TIP3    H277322   1.077   6.541  12.454  2.3570 -0.8758 -0.1197
18611TIP3   OH277323   3.900   4.335  15.860 -0.0473  0.2468 -0.5063
18611TIP3    H177324   3.980   4.289  15.833  0.8674 -0.7861  3.2509
18611TIP3    H277325   3.829   4.286  15.819  1.1328 -1.1025 -1.0426
18612TIP3   OH277326   0.609   1.209  13.779 -0.1504 -0.3279  0.0242
18612TIP3    H177327   0.693   1.253  13.775 -1.0381  1.4436  0.0095
18612TIP3    H277328   0.631   1.116  13.782  1.8157  0.1124  0.9082
18613TIP3   OH277329   6.777   6.382   0.414  1.2161 -0.4531 -0.0741
18613TIP3    H177330   6.846   6.411   0.354  1.7348  1.7361  1.4636
18613TIP3    H277331   6.786   6.287   0.416  1.6475 -0.5415 -2.8539
18614TIP3   OH277332   5.079   1.377  14.547  0.1041  0.0959 -0.0039
18614TIP3    H177333   5.158   1.431  14.545  0.3912 -0.2799  0.8337
18614TIP3    H277334   5.052   1.376  14.639 -0.2744 -0.6280 -0.1142
18615TIP3   OH277335   0.948   1.482  13.134  0.6211 -0.4284 -0.1654
18615TIP3    H177336   1.034   1.441  13.124  1.5755  0.9280  1.8837
18615TIP3    H277337   0.953   1.529  13.217 -2.6219 -1.4772  0.7950
18616TIP3   OH277338   6.634   6.115  16.321 -0.0645  0.4731 -0.3130
18616TIP3    H177339   6.564   6.162  16.367 -0.5932  0.4217 -1.0547
18616TIP3    H277340   6.590   6.069  16.250  0.5992 -0.2836 -0.2534
18617TIP3   OH277341   5.886   1.129  16.198 -0.4164 -0.2285 -0.6246
18617TIP3    H177342   5.974   1.099  16.174  0.0811  0.1560  0.6424
18617TIP3    H277343   5.831   1.051  16.191  0.2815 -0.7610 -0.2242
18618TIP3   OH277344   4.485   4.902  15.529 -0.0430 -0.3291  1.0087
18618TIP3    H177345   4.450   4.990  15.519  1.0628 -0.1119 -1.8106
18618TIP3    H277346   4.579   4.916  15.542  0.4513 -1.0229 -1.2889
18619TIP3   OH277347   4.641   0.503   1.831 -0.2343  0.3971 -0.3044
18619TIP3    H177348   4.718   0.471   1.783 -1.2934  0.8356 -2.4541
18619TIP3    H277349   4.662   0.594   1.852 -0.6096  0.9211 -2.0375
18620TIP3   OH277350   3.269   1.131   5.432  0.0161 -0.2166  0.2412
18620TIP3    H177351   3.283   1.221   5.402  0.8669 -0.1719  0.7579
18620TIP3    H277352   3.223   1.141   5.516 -1.0590 -0.3105 -0.3103
18621TIP3   OH277353   5.441   2.705   5.431 -0.1235 -0.2647  0.0318
18621TIP3    H177354   5.387   2.637   5.472 -0.1683 -1.7999 -2.3897
18621TIP3    H277355   5.524   2.701   5.478 -0.8323 -0.5110  1.3074
18622TIP3   OH277356   0.144   3.816  11.347 -1.0555 -0.5650  0.4125
18622TIP3    H177357   0.158   3.842  11.256 -0.0308 -2.8213 -0.1569
18622TIP3    H277358   0.107   3.894  11.389  2.0159  1.8614 -0.9873
18623TIP3   OH277359   1.528   0.976   5.184 -0.6569 -0.5062 -0.2016
18623TIP3    H177360   1.456   1.028   5.148  1.1736  2.7065  0.4036
18623TIP3    H277361   1.585   0.958   5.108 -0.7065 -0.6231 -0.2116
18624TIP3   OH277362   4.951   5.287   4.003  0.4571  0.1846  0.2556
18624TIP3    H177363   5.024   5.224   4.001  0.2005 -0.1017 -0.3645
18624TIP3    H277364   4.993   5.373   3.996  0.6672 -0.0314 -1.7314
18625TIP3   OH277365   6.314   3.442   5.314  0.0091  0.1784 -0.1308
18625TIP3    H177366   6.230   3.396   5.310 -0.8185  1.1521  3.0763
18625TIP3    H277367   6.380   3.373   5.315 -1.1175 -1.0611  3.0937
18626TIP3   OH277368   4.256   5.463   0.442  0.3842 -0.1938  0.2134
18626TIP3    H177369   4.199   5.439   0.370  1.5664 -0.6547 -0.6063
18626TIP3    H277370   4.298   5.381   0.468  0.9728  0.1926  0.5174
18627TIP3   OH277371   2.099   0.933   1.259  0.4236  0.0383  0.2032
18627TIP3    H177372   2.037   0.867   1.290  1.4710 -1.5691 -1.0111
18627TIP3    H277373   2.044   1.006   1.230 -0.8513 -0.9647  0.0219
18628TIP3   OH277374   3.987   3.512   6.240  0.2319 -0.3464 -0.1105
18628TIP3    H177375   4.001   3.607   6.246  0.0955 -0.2495 -1.0438
18628TIP3    H277376   4.074   3.477   6.223  0.6457 -0.6328  2.3368
18629TIP3   OH277377   2.441   0.091   5.165  0.1541 -0.3133 -0.0299
18629TIP3    H177378   2.442   0.017   5.225  2.1752  0.7542  1.3406
18629TIP3    H277379   2.531   0.098   5.133 -0.4120  0.4539 -1.5712
18630TIP3   OH277380   1.332   0.241  15.873 -0.5407 -0.0875 -0.1371
18630TIP3    H177381   1.335   0.148  15.851  1.6577 -0.5573  1.7623
18630TIP3    H277382   1.239   0.259  15.886 -1.2668 -1.3910 -2.7477
18631TIP3   OH277383   4.272   4.045   0.029 -0.0368  0.4088  0.2467
18631TIP3    H177384   4.220   3.976   0.072  1.3084 -1.4345 -0.9038
18631TIP3    H277385   4.297   4.104   0.099 -0.8489 -0.5571  1.3844
18632TIP3   OH277386   5.075   5.737   1.910 -0.3365 -0.8885 -0.4138
18632TIP3    H177387   5.158   5.688   1.911 -0.9314 -1.9443  1.5478
18632TIP3    H277388   5.014   5.681   1.957 -0.9111  1.9642  2.5868
18633TIP3   OH277389   1.008   0.590  15.966  0.1897 -0.3524 -0.7208
18633TIP3    H177390   1.082   0.633  15.924 -1.3494  2.3426 -0.9218
18633TIP3    H277391   1.022   0.497  15.951  3.3411  0.0765 -0.9618
18634TIP3   OH277392   3.167   3.688  13.766 -0.2936  0.4301  0.2361
18634TIP3    H177393   3.182   3.727  13.852  0.0079 -1.9323  1.3355
18634TIP3    H277394   3.253   3.655  13.738 -0.7587 -0.6667  0.0279
18635TIP3   OH277395   4.178   1.613  13.226 -0.3351  0.3383  0.1266
18635TIP3    H177396   4.248   1.570  13.177  2.1497 -0.0587  3.5692
18635TIP3    H277397   4.206   1.705  13.232 -0.5982  0.3854  0.7295
18636TIP3   OH277398   1.475   2.720   2.178 -0.5856  0.0614  0.0553
18636TIP3    H177399   1.427   2.670   2.112  1.2585 -0.7784 -0.7437
18636TIP3    H277400   1.519   2.789   2.128 -1.1087  0.9567  0.7977
18637TIP3   OH277401   2.537   5.474  10.530 -0.1279  0.3119 -0.4535
18637TIP3    H177402   2.612   5.522  10.564 -0.8893  1.6342 -0.5834
18637TIP3    H277403   2.512   5.521  10.450  0.1063 -1.2793 -1.5211
18638TIP3   OH277404   6.817   1.143  12.680 -0.0907 -0.5608 -0.5255
18638TIP3    H177405   6.835   1.175  12.768  0.0379 -0.5964 -0.5394
18638TIP3    H277406   6.751   1.074  12.693 -0.9977  0.2773 -0.5751
18639TIP3   OH277407   2.502   5.582  14.225 -0.5003  0.4251 -0.1356
18639TIP3    H177408   2.525   5.615  14.138  1.4764  2.7044  1.1347
18639TIP3    H277409   2.551   5.501  14.233  0.1942  0.7764 -0.7288
18640TIP3   OH277410   3.508   0.350  16.630 -0.1195 -0.2886  0.2904
18640TIP3    H177411   3.485   0.263  16.663 -0.5422 -0.1623  0.3384
18640TIP3    H277412   3.449   0.363  16.556  2.2124 -1.4488 -1.9181
18641TIP3   OH277413   3.368   2.102   3.696  0.2997  0.5873 -0.0352
18641TIP3    H177414   3.409   2.054   3.624  0.0504  0.8541 -0.3553
18641TIP3    H277415   3.305   2.160   3.654  0.5222  1.1211  0.3560
18642TIP3   OH277416   2.496   6.733  10.817 -0.8351  0.4921  0.1967
18642TIP3    H177417   2.444   6.800  10.773  0.0954  1.9100  1.1593
18642TIP3    H277418   2.500   6.661  10.755 -0.9037  1.7862 -1.3732
18643TIP3   OH277419   1.431   0.124   5.242  0.4476  0.5823  0.5009
18643TIP3    H177420   1.521   0.147   5.265  0.3945 -0.0217  1.3239
18643TIP3    H277421   1.437   0.034   5.208  0.0523  0.2571  1.2744
18644TIP3   OH277422   1.598   1.330   6.437 -0.3635 -0.1194  0.0271
18644TIP3    H177423   1.684   1.339   6.478 -0.5652 -0.5666  0.5651
18644TIP3    H277424   1.585   1.235   6.429 -0.2506 -0.0468 -1.2649
18645TIP3   OH277425   3.536   5.077   2.397 -0.2166 -0.1897 -0.0028
18645TIP3    H177426   3.532   5.003   2.336 -1.0261  0.6176 -0.9767
18645TIP3    H277427   3.464   5.134   2.369 -1.0956 -0.1376  2.2063
18646TIP3   OH277428   3.514   5.828   2.849 -0.0500  0.3146  0.3089
18646TIP3    H177429   3.591   5.853   2.901 -0.9204  0.6807  1.4763
18646TIP3    H277430   3.538   5.850   2.759  1.9144 -1.3268  0.3536
18647TIP3   OH277431   6.640   0.730   4.291 -0.3746  0.4858  1.1716
18647TIP3    H177432   6.714   0.730   4.353 -0.1119  1.1781  0.8603
18647TIP3    H277433   6.653   0.650   4.239  1.5263  1.7818 -0.4876
18648TIP3   OH277434   4.887   6.155  13.640  0.5966  0.0036  0.4324
18648TIP3    H177435   4.980   6.176  13.637  0.6176 -0.0853  0.4506
18648TIP3    H277436   4.846   6.220  13.583  0.6870 -0.0500  0.3058
18649TIP3   OH277437   0.504   2.257   2.713 -0.0890  0.0478  0.1797
18649TIP3    H177438   0.438   2.227   2.651 -1.1966  0.0110  1.3305
18649TIP3    H277439   0.540   2.177   2.751 -0.5081  0.0893  0.6779
18650TIP3   OH277440   3.028   5.609   4.690 -0.2270  0.0165  0.3919
18650TIP3    H177441   2.996   5.698   4.673 -0.2303 -0.0039  0.2954
18650TIP3    H277442   2.963   5.572   4.751 -0.0790  0.1764  0.6492
18651TIP3   OH277443   3.031   0.350  16.774 -0.2869  0.1207  0.1903
18651TIP3    H177444   3.120   0.334  16.806 -1.0490 -0.6480  2.1396
18651TIP3    H277445   2.975   0.307  16.840 -2.0790  0.1949 -1.2260
18652TIP3   OH277446   4.569   1.134  11.542 -0.6841  0.1971 -0.1484
18652TIP3    H177447   4.476   1.122  11.563 -0.6426  2.2070  1.5163
18652TIP3    H277448   4.613   1.138  11.627  1.2247 -2.2268 -0.8938
18653TIP3   OH277449   4.068   4.748  16.192 -0.8640  0.0193  0.4663
18653TIP3    H177450   4.147   4.716  16.148 -1.2347  0.5025 -0.5896
18653TIP3    H277451   4.021   4.668  16.218 -0.2787 -0.2703  0.6667
18654TIP3   OH277452   5.340   4.091   5.007  0.2335  0.2898 -0.1050
18654TIP3    H177453   5.378   4.051   5.085  0.6660 -1.8416 -1.3138
18654TIP3    H277454   5.413   4.137   4.965 -0.1111  1.8648  0.9487
18655TIP3   OH277455   1.881   4.649   1.495  0.5206 -0.1534  0.5960
18655TIP3    H177456   1.789   4.626   1.505  0.8594 -0.5369  4.5104
18655TIP3    H277457   1.885   4.742   1.513  0.7654  0.2517 -1.3621
18656TIP3   OH277458   4.201   5.624  15.105 -0.4322 -0.1882 -0.1442
18656TIP3    H177459   4.226   5.546  15.055 -1.1523 -0.0792 -0.6916
18656TIP3    H277460   4.115   5.603  15.141 -0.1543 -0.0567  0.6111
18657TIP3   OH277461   2.144   2.354   1.384 -0.0099  0.7689 -0.1381
18657TIP3    H177462   2.062   2.323   1.421  0.0288  0.2349 -0.4823
18657TIP3    H277463   2.210   2.292   1.416  0.3093  1.3620  0.3743
18658TIP3   OH277464   4.201   3.071   3.019 -0.0726  0.1347  0.1558
18658TIP3    H177465   4.194   3.166   3.010  1.1542  0.0921 -1.5211
18658TIP3    H277466   4.248   3.042   2.941 -0.9911 -1.9423  0.3038
18659TIP3   OH277467   4.257   2.424   0.576 -0.1873 -0.7674 -1.0644
18659TIP3    H177468   4.220   2.448   0.492 -0.3681 -0.9856 -1.0477
18659TIP3    H277469   4.242   2.500   0.632 -0.3911 -0.7608 -1.1276
18660TIP3   OH277470   3.334   1.456   4.854 -0.3550  0.5381 -0.1655
18660TIP3    H177471   3.283   1.378   4.831  0.0433  0.1378  0.2720
18660TIP3    H277472   3.381   1.479   4.773 -1.1639  0.8736 -0.5523
18661TIP3   OH277473   1.585   4.594  14.475 -0.4302  0.2143 -0.1511
18661TIP3    H177474   1.642   4.617  14.401  2.2642  1.3977  2.1059
18661TIP3    H277475   1.499   4.626  14.449  0.4654  0.8614 -2.6360
18662TIP3   OH277476   6.241   2.716   5.527  0.0058  0.3744 -0.0545
18662TIP3    H177477   6.149   2.690   5.536 -0.0045  0.8297  1.6283
18662TIP3    H277478   6.287   2.634   5.508 -0.6886  0.0682 -0.4549
18663TIP3   OH277479   6.172   5.774   6.292 -0.1209 -0.4210 -0.2629
18663TIP3    H177480   6.214   5.691   6.268  2.6617  0.9939 -0.7846
18663TIP3    H277481   6.199   5.835   6.223 -0.8026  1.2879  0.9079
18664TIP3   OH277482   1.312   3.628   2.778  0.7428 -0.4821 -0.3324
18664TIP3    H177483   1.281   3.538   2.784 -1.4399  0.1895 -0.5470
18664TIP3    H277484   1.301   3.651   2.685 -0.1600  0.4468 -0.0169
18665TIP3   OH277485   5.757   5.946   3.773  0.4325 -0.2127  0.1536
18665TIP3    H177486   5.796   5.924   3.689 -0.5299  1.6546 -0.8467
18665TIP3    H277487   5.760   6.041   3.777 -1.5192 -0.1345  1.2312
18666TIP3   OH277488   2.856   0.776   5.483 -0.0676  0.3863 -0.1982
18666TIP3    H177489   2.761   0.772   5.474 -0.1689  1.7052  0.0944
18666TIP3    H277490   2.885   0.687   5.463 -1.2737  0.1819 -1.2498
18667TIP3   OH277491   5.807   2.867   6.311  0.0566  0.1017 -0.1303
18667TIP3    H177492   5.754   2.790   6.332 -0.0424  0.7182  2.1856
18667TIP3    H277493   5.750   2.941   6.331  0.2428  0.8266 -2.0741
18668TIP3   OH277494   4.898   3.912  12.987  0.0706 -0.6052 -0.0997
18668TIP3    H177495   4.982   3.954  13.007  0.6861 -0.5904 -2.4643
18668TIP3    H277496   4.832   3.975  13.016  0.9143  0.2697 -0.0339
18669TIP3   OH277497   2.787   0.405   0.449  0.0421  0.0411 -0.6478
18669TIP3    H177498   2.733   0.327   0.459 -0.9628  0.9420  1.6260
18669TIP3    H277499   2.725   0.477   0.442  0.9584  0.7300 -2.1072
18670TIP3   OH277500   2.782   1.379  13.093  0.0441  0.2879 -0.2341
18670TIP3    H177501   2.694   1.383  13.054  0.8728 -1.0521 -2.4088
18670TIP3    H277502   2.795   1.466  13.131 -1.5929  1.0516 -1.3025
18671TIP3   OH277503   4.790   6.783  13.510  0.3054 -0.0102  0.3654
18671TIP3    H177504   4.857   6.829  13.561  0.8710  1.8308 -1.8917
18671TIP3    H277505   4.840   6.733  13.445 -0.4670  0.8012 -0.8769
18672TIP3   OH277506   0.341   0.867  15.132 -0.0689  0.0764 -0.5278
18672TIP3    H177507   0.250   0.892  15.121 -0.0273 -0.1355 -1.5257
18672TIP3    H277508   0.389   0.924  15.072  0.5847  0.8794  0.7242
18673TIP3   OH277509   5.372   2.376   0.409 -0.7008  0.4494  0.4567
18673TIP3    H177510   5.351   2.422   0.491 -1.1824  0.2046  0.4712
18673TIP3    H277511   5.467   2.384   0.401 -0.6190  0.2542  1.1739
18674TIP3   OH277512   2.420   2.711  15.415 -0.3244 -0.4686 -0.1621
18674TIP3    H177513   2.355   2.668  15.360  0.3942 -0.5654 -0.9517
18674TIP3    H277514   2.480   2.641  15.441 -0.8845 -0.5082  1.1113
18675TIP3   OH277515   0.035   6.504   6.208 -0.7258 -0.1597 -0.7478
18675TIP3    H177516  -0.011   6.486   6.126 -0.0273 -2.0746 -0.7733
18675TIP3    H277517   0.030   6.599   6.219  1.1997  0.4922 -4.2164
18676TIP3   OH277518   3.132   0.576   1.674  0.0522 -0.3329  0.3820
18676TIP3    H177519   3.093   0.646   1.726 -0.8919 -0.5791  0.0294
18676TIP3    H277520   3.094   0.496   1.711  0.2370 -0.5835  0.0312
18677TIP3   OH277521   5.652   3.011   2.778 -0.5628 -0.2682  0.0713
18677TIP3    H177522   5.695   3.083   2.823 -1.8560 -0.2910  1.4264
18677TIP3    H277523   5.696   2.932   2.811  0.1527 -0.1803 -0.6286
18678TIP3   OH277524   3.010   1.712  11.636 -0.2705  0.4875 -0.9203
18678TIP3    H177525   3.028   1.651  11.707  0.6156  0.7179 -0.9450
18678TIP3    H277526   2.917   1.734  11.646 -0.0292  0.9145  0.4770
18679TIP3   OH277527   0.742   4.704  10.851  0.1884  0.1955  0.9929
18679TIP3    H177528   0.746   4.795  10.880  2.5306 -0.0050  1.5618
18679TIP3    H277529   0.655   4.694  10.813  0.8654  3.5802 -2.0369
18680TIP3   OH277530   2.572   4.581   2.272  0.3112  0.0010 -0.1347
18680TIP3    H177531   2.613   4.636   2.338 -0.7736 -0.9466  1.4059
18680TIP3    H277532   2.645   4.544   2.223  1.3124 -0.8036  1.8226
18681TIP3   OH277533   2.400   6.753  14.520  0.6138 -0.0175 -0.2556
18681TIP3    H177534   2.307   6.772  14.528  0.4369 -1.4404  1.8850
18681TIP3    H277535   2.443   6.832  14.554  0.0081 -0.9907  3.1570
18682TIP3   OH277536   5.894   1.875  13.444 -0.0740  0.3102  0.2415
18682TIP3    H177537   5.919   1.940  13.509  2.0727  2.5909 -2.5701
18682TIP3    H277538   5.956   1.803  13.455 -0.5743  0.0555  1.4936
18683TIP3   OH277539   0.335   2.461   2.495 -0.1390 -0.7221  0.4588
18683TIP3    H177540   0.297   2.403   2.429 -0.8656 -1.7277  1.7253
18683TIP3    H277541   0.281   2.540   2.491 -1.4086 -1.5269  1.1524
18684TIP3   OH277542   1.053   2.499   1.512  0.1467  0.1925 -0.2693
18684TIP3    H177543   1.020   2.575   1.560  0.7836 -0.0206  0.5252
18684TIP3    H277544   1.080   2.534   1.427 -0.1307  0.7442 -0.1338
18685TIP3   OH277545   3.991   3.739  14.932 -0.1883  0.4161 -0.1906
18685TIP3    H177546   3.937   3.739  15.012 -0.2308  1.3212 -0.2098
18685TIP3    H277547   3.928   3.730  14.861 -0.1436 -0.4736 -0.1191
18686TIP3   OH277548   0.379   5.427   5.573  0.0169 -0.3318  0.2600
18686TIP3    H177549   0.324   5.374   5.631  0.5112 -1.9438 -0.6820
18686TIP3    H277550   0.329   5.507   5.557 -1.4635 -1.2016  0.4531
18687TIP3   OH277551   5.865   6.377  14.230 -0.6263  0.0687  0.1474
18687TIP3    H177552   5.785   6.343  14.271 -0.0667 -1.1199  0.2968
18687TIP3    H277553   5.897   6.443  14.291 -0.4837 -0.7885  1.0352
18688TIP3   OH277554   3.753   2.644   0.187 -0.1065  0.1306 -0.1494
18688TIP3    H177555   3.833   2.695   0.200 -0.4652  0.5762  0.3332
18688TIP3    H277556   3.733   2.608   0.274  0.9400 -2.0595 -0.7389
18689TIP3   OH277557   1.629   0.794  11.992  0.0869  0.1055  0.2142
18689TIP3    H177558   1.606   0.881  11.958 -0.7826  0.5000  1.7239
18689TIP3    H277559   1.547   0.760  12.027  0.9910 -0.1236  2.1911
18690TIP3   OH277560   3.768   4.297  11.276  0.1268 -0.5421 -0.3510
18690TIP3    H177561   3.784   4.288  11.370  0.8125 -2.0223 -0.5733
18690TIP3    H277562   3.687   4.347  11.270 -0.4680 -1.2800  1.0533
18691TIP3   OH277563   4.848   5.006  16.856 -0.2654 -0.1008  0.1951
18691TIP3    H177564   4.868   5.056  16.936  1.1602 -1.8979  1.0435
18691TIP3    H277565   4.759   5.033  16.832 -0.5976  0.7557  2.1866
18692TIP3   OH277566   5.007   5.514   0.083  0.5602  0.5663 -0.4141
18692TIP3    H177567   4.954   5.592   0.065  1.1602  1.1875  0.4029
18692TIP3    H277568   5.088   5.549   0.121  0.3342 -0.5095  1.1566
18693TIP3   OH277569   2.596   6.193  12.170 -0.1661 -0.2415 -0.0727
18693TIP3    H177570   2.578   6.278  12.209  0.2557  0.2602 -0.9550
18693TIP3    H277571   2.638   6.143  12.240  3.0743  1.5374 -0.5731
18694TIP3   OH277572   2.968   2.876   0.024 -0.2385  0.2252 -0.4775
18694TIP3    H177573   2.953   2.903  -0.066  2.3442  1.7349 -0.5341
18694TIP3    H277574   2.971   2.957   0.074 -1.5019 -0.5688  1.0260
18695TIP3   OH277575   6.238   4.867  16.581  0.0508  0.3008 -0.0481
18695TIP3    H177576   6.263   4.898  16.494 -0.0244 -0.5309 -0.3811
18695TIP3    H277577   6.149   4.834  16.570 -0.1090  0.5741  0.4403
18696TIP3   OH277578   6.442   1.307  15.564  0.6629 -0.2389  0.0331
18696TIP3    H177579   6.528   1.349  15.573 -0.5427  2.5826 -0.6132
18696TIP3    H277580   6.389   1.345  15.634 -1.1322  1.2421 -1.9925
18697TIP3   OH277581   0.942   4.746  12.624  0.5850 -0.3384 -0.0264
18697TIP3    H177582   0.856   4.755  12.664  1.3095  0.4022  1.4249
18697TIP3    H277583   0.977   4.836  12.621  1.4039 -0.6562 -0.3532
18698TIP3   OH277584   3.663   5.882   0.334  0.3073 -0.2818  0.5798
18698TIP3    H177585   3.593   5.921   0.281  0.1603 -0.9054  0.3138
18698TIP3    H277586   3.649   5.919   0.422  0.0913  0.1650  0.3611
18699TIP3   OH277587   0.772   2.025   5.864 -0.1071  0.0853  0.0860
18699TIP3    H177588   0.750   1.942   5.905 -0.1919  0.4164  0.7393
18699TIP3    H277589   0.792   2.004   5.773  0.1932 -0.6884  0.3306
18700TIP3   OH277590   3.960   2.894   4.046 -0.5728  0.2017  0.3244
18700TIP3    H177591   3.993   2.940   3.969 -0.6565  2.0857  1.3527
18700TIP3    H277592   3.917   2.816   4.011 -0.9598  1.2079 -1.5625
18701TIP3   OH277593   3.628   5.085   3.880  0.6903  0.2880 -0.2424
18701TIP3    H177594   3.602   4.994   3.898  0.9560  0.3685  0.5788
18701TIP3    H277595   3.668   5.081   3.793 -0.4537 -0.1522 -0.7658
18702TIP3   OH277596   5.077   4.947   3.551  0.0754  0.0304 -0.0065
18702TIP3    H177597   4.989   4.951   3.588 -0.2059 -1.0912 -0.5011
18702TIP3    H277598   5.072   4.998   3.470 -1.1275 -2.7134 -1.8540
18703TIP3   OH277599   4.364   4.913  16.484 -0.3200  0.2372 -0.5991
18703TIP3    H177600   4.375   4.833  16.536  0.5205  0.0260 -1.0762
18703TIP3    H277601   4.272   4.912  16.457 -1.1501  1.0540  1.9751
18704TIP3   OH277602   6.142   5.563  13.370  0.1216  0.0743  0.8360
18704TIP3    H177603   6.216   5.518  13.412 -0.0693  0.1257  1.2332
18704TIP3    H277604   6.115   5.629  13.433 -1.0510 -0.7459  1.2320
18705TIP3   OH277605   1.836   0.767   3.496 -0.0901  0.1191 -0.0235
18705TIP3    H177606   1.894   0.802   3.564 -0.4831  0.2735  0.2351
18705TIP3    H277607   1.895   0.747   3.423  0.2118  0.8847 -0.0062
18706TIP3   OH277608   0.909   1.911  12.916 -0.1681 -0.5041 -0.2025
18706TIP3    H177609   0.896   1.917  13.011  1.7958  1.8945  0.0225
18706TIP3    H277610   0.946   1.824  12.903 -0.2510 -0.7986  1.2536
18707TIP3   OH277611   1.809   5.018  13.188  0.5189  0.4192  0.2116
18707TIP3    H177612   1.862   5.026  13.108  0.3308  2.3460  0.2245
18707TIP3    H277613   1.719   5.009  13.157  0.5032  0.6063  0.2018
18708TIP3   OH277614   2.655   2.823  11.030 -0.5064 -0.1402  0.1366
18708TIP3    H177615   2.667   2.729  11.021  1.2578 -0.2634  2.5835
18708TIP3    H277616   2.730   2.862  10.985  0.0142 -0.0544  1.0507
18709TIP3   OH277617   1.919   6.142  14.609 -0.4775  0.9354  0.0070
18709TIP3    H177618   1.974   6.092  14.669 -1.6926  0.1070  0.4611
18709TIP3    H277619   1.975   6.158  14.533  0.7226  1.0514  0.8836
18710TIP3   OH277620   2.812   3.270  15.349 -0.0111 -0.4361  0.0470
18710TIP3    H177621   2.769   3.194  15.311 -0.2702 -0.6487  0.7606
18710TIP3    H277622   2.873   3.299  15.280 -0.5760 -0.7160 -0.5862
18711TIP3   OH277623   2.996   1.724   3.777  0.2798  0.6675 -0.2432
18711TIP3    H177624   2.991   1.690   3.867  1.8374 -0.9131 -0.7005
18711TIP3    H277625   2.904   1.735   3.751 -0.2108  0.7182  1.3594
18712TIP3   OH277626   5.384   1.138   5.997  0.5243 -0.1316  0.1279
18712TIP3    H177627   5.361   1.046   5.985 -2.2339  0.6220 -1.4134
18712TIP3    H277628   5.403   1.147   6.090  1.5551 -2.3434  0.1887
18713TIP3   OH277629   3.730   5.895   4.622 -0.6120 -0.0076 -0.2262
18713TIP3    H177630   3.692   5.843   4.551 -0.3246 -0.8410  0.2269
18713TIP3    H277631   3.808   5.935   4.583 -1.1627  0.5932 -0.7511
18714TIP3   OH277632   4.753   2.275  12.005  0.1931 -0.6648 -0.3201
18714TIP3    H177633   4.815   2.215  11.963 -0.5765 -1.8410  0.1937
18714TIP3    H277634   4.804   2.316  12.075  0.4457 -1.5162  0.0082
18715TIP3   OH277635   1.042   0.888  14.562  0.4281  0.5362 -0.2025
18715TIP3    H177636   0.966   0.831  14.560 -0.0143  1.1168 -2.0081
18715TIP3    H277637   1.112   0.835  14.599 -0.2393 -0.8177 -0.8289
18716TIP3   OH277638   4.981   0.443  14.114  0.1541  0.1028 -0.0236
18716TIP3    H177639   4.974   0.532  14.150  0.6408 -0.7355  2.3157
18716TIP3    H277640   4.904   0.398  14.147  0.5092 -0.6645 -0.2253
18717TIP3   OH277641   3.338   0.879   4.858  0.3617  0.0809 -0.2560
18717TIP3    H177642   3.315   0.824   4.933  0.9927  0.3121  0.1175
18717TIP3    H277643   3.380   0.819   4.797 -1.2723 -0.3724 -1.0013
18718TIP3   OH277644   2.108   1.151  14.218  0.1582  0.1899 -0.1000
18718TIP3    H177645   2.153   1.122  14.298  1.4709 -1.7794 -1.4735
18718TIP3    H277646   2.031   1.095  14.212  0.6867 -0.4876 -0.7886
18719TIP3   OH277647   2.523   1.330   4.345  0.7863 -0.7765 -0.5046
18719TIP3    H177648   2.487   1.294   4.426 -1.1612  0.4511 -0.7753
18719TIP3    H277649   2.535   1.423   4.364  0.6190 -0.5402 -1.5310
18720TIP3   OH277650   0.124   1.587  15.385 -0.7751  0.1380  0.0734
18720TIP3    H177651   0.189   1.552  15.446 -1.3693 -0.8552  0.1492
18720TIP3    H277652   0.048   1.606  15.439 -1.7939 -2.0018 -0.5030
18721TIP3   OH277653   1.171   4.199   1.184 -0.5241 -0.0935 -0.1574
18721TIP3    H177654   1.211   4.123   1.226 -0.8367 -0.2823 -0.1958
18721TIP3    H277655   1.089   4.166   1.147  0.7130 -0.4588 -2.8302
18722TIP3   OH277656   3.786   3.724  15.926  0.4539  0.3317 -0.2514
18722TIP3    H177657   3.846   3.712  15.852  0.5107 -0.8419 -0.0413
18722TIP3    H277658   3.707   3.760  15.887  0.3758 -0.5447 -0.9577
18723TIP3   OH277659   6.004   1.557  15.638  0.1376  0.0861  0.1119
18723TIP3    H177660   6.071   1.500  15.676  0.1533  0.6097  0.8966
18723TIP3    H277661   5.988   1.623  15.705  0.5911  1.3971 -1.0382
18724TIP3   OH277662   0.414   2.592   4.532  0.1301 -0.2568 -0.0663
18724TIP3    H177663   0.373   2.679   4.539  0.9288  0.1734 -0.6155
18724TIP3    H277664   0.403   2.553   4.619  2.7567  1.7476  1.3018
18725TIP3   OH277665   3.718   2.732  17.193 -0.5546 -0.3368 -0.0412
18725TIP3    H177666   3.718   2.687  17.277  0.3541  1.2347  0.8663
18725TIP3    H277667   3.666   2.811  17.208 -0.7364 -0.2466 -1.0747
18726TIP3   OH277668   2.241   5.450   5.781  0.0391 -0.6863 -0.3445
18726TIP3    H177669   2.183   5.382   5.747 -0.5749  0.7034 -2.2505
18726TIP3    H277670   2.294   5.405   5.847 -1.1468 -2.7025 -0.6650
18727TIP3   OH277671   4.687   5.891  14.774 -0.2572 -0.2993  0.5761
18727TIP3    H177672   4.600   5.849  14.774  0.1561 -1.1745  0.7404
18727TIP3    H277673   4.708   5.903  14.682 -0.5963  0.0087  0.5374
18728TIP3   OH277674   3.033   1.660  13.018 -0.0788  0.1793  0.6382
18728TIP3    H177675   3.094   1.716  13.067  0.4961 -0.8594  1.1474
18728TIP3    H277676   2.953   1.660  13.071  0.5337 -0.9261  1.6240
18729TIP3   OH277677   3.092   5.352  12.681 -0.0806 -0.1074  0.0520
18729TIP3    H177678   3.042   5.287  12.731 -0.1610  0.8468  1.2674
18729TIP3    H277679   3.136   5.405  12.748  1.6877 -0.2209 -0.9516
18730TIP3   OH277680   3.986   2.842   5.672  0.1543  0.1504  0.2843
18730TIP3    H177681   4.073   2.818   5.706  0.3567  1.0777  0.4352
18730TIP3    H277682   4.005   2.883   5.587 -0.1214  0.6205  0.4548
18731TIP3   OH277683   4.345   2.600  17.065 -0.3056  0.0708  0.4083
18731TIP3    H177684   4.384   2.512  17.065  0.1849  0.2877  0.2807
18731TIP3    H277685   4.356   2.630  16.975  2.2913  1.4744  1.0942
18732TIP3   OH277686   3.647   3.746  12.224  0.0457  0.0702 -0.4023
18732TIP3    H177687   3.622   3.798  12.147 -1.0120 -0.4635 -0.4365
18732TIP3    H277688   3.700   3.806  12.277 -0.2581  0.8406 -0.9506
18733TIP3   OH277689   1.954   4.051   2.892  0.8253  0.0940  0.1636
18733TIP3    H177690   1.919   3.995   2.823  2.0611  1.9713 -2.1566
18733TIP3    H277691   1.879   4.100   2.924  0.3407 -0.2731 -0.3893
18734TIP3   OH277692   1.080   5.227   4.508 -0.4414 -0.1679  0.2920
18734TIP3    H177693   1.040   5.197   4.426 -2.1703  0.7237  0.7561
18734TIP3    H277694   1.174   5.226   4.491 -0.7761  1.9144 -2.4096
18735TIP3   OH277695   0.868   1.352  15.235  0.2501  0.0542  0.1920
18735TIP3    H177696   0.839   1.262  15.221  0.4590  0.2288 -1.6005
18735TIP3    H277697   0.909   1.351  15.322  0.1153 -1.5400  0.2629
18736TIP3   OH277698   3.791   4.407  12.548  0.4662  0.4841 -0.5065
18736TIP3    H177699   3.742   4.487  12.567 -0.6808 -0.1508 -0.6959
18736TIP3    H277700   3.850   4.397  12.622 -0.6389  0.5642  0.4174
18737TIP3   OH277701   1.316   5.890  16.024  0.1368 -0.0239 -0.6751
18737TIP3    H177702   1.241   5.878  16.082  0.1396  1.9241 -0.1731
18737TIP3    H277703   1.388   5.848  16.069 -0.3443 -0.5940 -0.4211
18738TIP3   OH277704   0.036   0.988   2.514  0.0407  0.0857  0.4762
18738TIP3    H177705   0.009   0.938   2.437  0.2171 -0.5946  0.8429
18738TIP3    H277706  -0.036   0.978   2.576 -1.3953  2.9338 -0.5614
18739TIP3   OH277707   1.066   4.029  16.099  0.5857 -0.1338 -0.0932
18739TIP3    H177708   1.039   4.081  16.175 -0.8395 -3.9809  2.2812
18739TIP3    H277709   1.009   4.059  16.028 -0.2184  1.4352  1.1442
18740TIP3   OH277710   0.556   4.133   0.424  0.4177 -0.4427 -0.1445
18740TIP3    H177711   0.555   4.217   0.377 -1.5781  0.2480  1.0192
18740TIP3    H277712   0.648   4.106   0.421  1.2230  1.9804 -0.2092
18741TIP3   OH277713   3.230   4.493  16.990 -0.1477 -0.3221  0.0609
18741TIP3    H177714   3.275   4.481  16.906  0.8343 -2.1585  0.7892
18741TIP3    H277715   3.301   4.503  17.054 -0.8797  0.8574  0.7279
18742TIP3   OH277716   6.651   2.268   0.492 -0.4863  0.4867 -0.3416
18742TIP3    H177717   6.637   2.201   0.560 -0.4799 -0.1610 -0.9639
18742TIP3    H277718   6.745   2.285   0.495 -0.5177  0.6122 -0.0444
18743TIP3   OH277719   4.412   1.500  15.856  0.3449  0.2877  0.2856
18743TIP3    H177720   4.496   1.523  15.815 -0.2937  2.3942  0.0593
18743TIP3    H277721   4.364   1.582  15.861 -1.7954 -0.8870  0.2803
18744TIP3   OH277722   3.595   4.458   2.849 -0.2552 -0.2976  0.1486
18744TIP3    H177723   3.677   4.464   2.799 -1.6382 -0.2328 -2.2469
18744TIP3    H277724   3.530   4.429   2.785 -2.0430 -0.7895  2.0873
18745TIP3   OH277725   4.532   5.625  13.126  1.0871 -0.0922 -0.0423
18745TIP3    H177726   4.589   5.609  13.050 -0.4758 -2.9521 -0.7369
18745TIP3    H277727   4.584   5.595  13.201  0.4394 -3.2510 -0.7270
18746TIP3   OH277728   4.176   4.148  13.273 -0.0082  0.6789  0.4578
18746TIP3    H177729   4.132   4.126  13.191  0.8643 -3.0256  0.8383
18746TIP3    H277730   4.231   4.223  13.250  0.2667 -0.2585 -2.4055
18747TIP3   OH277731   6.356   2.961   2.329 -0.5353 -0.0262  0.7089
18747TIP3    H177732   6.263   2.971   2.348 -1.0656 -0.8450 -1.2119
18747TIP3    H277733   6.378   2.875   2.366 -1.1599 -0.8936 -0.8546
18748TIP3   OH277734   5.907   0.050  16.631 -0.1961  0.5694  0.5215
18748TIP3    H177735   5.966   0.014  16.698 -0.0721 -0.5105 -0.1565
18748TIP3    H277736   5.870  -0.026  16.587 -0.7316  1.2589 -0.2549
18749TIP3   OH277737   3.497   1.685   0.177 -0.5377  0.4859 -0.0816
18749TIP3    H177738   3.562   1.750   0.204 -1.1506  0.6323  1.0905
18749TIP3    H277739   3.464   1.649   0.259 -1.2848 -0.2404 -0.6897
18750TIP3   OH277740   0.219   5.496   1.723  0.2073  0.3963  0.1616
18750TIP3    H177741   0.274   5.574   1.732  2.1788 -0.7196 -1.4240
18750TIP3    H277742   0.135   5.529   1.691  0.1348  2.0752  1.8779
18751TIP3   OH277743   1.989   0.089   3.777 -0.2172  0.4221 -0.4194
18751TIP3    H177744   1.925   0.027   3.810  1.7172 -1.8483 -0.7056
18751TIP3    H277745   1.954   0.117   3.692 -0.4849 -1.3670 -0.9277
18752TIP3   OH277746   4.387   3.072   0.478 -0.1922  0.1626 -0.3023
18752TIP3    H177747   4.400   3.034   0.391  0.1139  3.5997 -1.9097
18752TIP3    H277748   4.308   3.029   0.511  0.7921 -2.6697 -1.3055
18753TIP3   OH277749   2.523   2.757   5.828 -0.0957 -1.2733 -0.2412
18753TIP3    H177750   2.579   2.705   5.769  0.4167 -1.0946  0.0793
18753TIP3    H277751   2.583   2.791   5.894 -0.8591 -2.4558  1.0963
18754TIP3   OH277752   4.181   0.955   2.898  0.3833 -0.3194  0.2250
18754TIP3    H177753   4.173   0.871   2.945  0.8121 -0.2137  0.4977
18754TIP3    H277754   4.266   0.949   2.855 -0.2106 -0.6035 -0.9290
18755TIP3   OH277755   4.314   4.444   2.872 -0.4490 -0.0003  0.4355
18755TIP3    H177756   4.349   4.496   2.800 -0.3236  0.5028  0.8482
18755TIP3    H277757   4.343   4.355   2.854 -0.6774  0.0711 -0.2914
18756TIP3   OH277758   1.651   1.837  13.381 -0.1909  0.2088 -0.0509
18756TIP3    H177759   1.562   1.818  13.351  0.1795  1.2142 -2.0057
18756TIP3    H277760   1.684   1.901  13.317  1.8151  0.1222  0.8217
18757TIP3   OH277761   5.933   0.792   2.577 -0.0848 -0.3684 -0.4364
18757TIP3    H177762   5.986   0.783   2.656 -0.6180 -0.5841 -0.0965
18757TIP3    H277763   5.938   0.885   2.555 -0.4962 -0.1738  0.2572
18758TIP3   OH277764   5.330   3.139   5.384  0.4379  0.7508 -0.4482
18758TIP3    H177765   5.313   3.055   5.343 -2.3103  0.9208  0.1304
18758TIP3    H277766   5.346   3.119   5.476 -0.5314  0.8425 -0.2467
18759TIP3   OH277767   5.219   1.649   2.856  0.1625  0.2127 -0.3645
18759TIP3    H177768   5.207   1.626   2.948  0.3000  0.3460 -0.3153
18759TIP3    H277769   5.155   1.719   2.840  1.2907  1.3705  0.0612
18760TIP3   OH277770   2.835   0.864  16.140  0.0217 -0.2280 -0.1557
18760TIP3    H177771   2.822   0.879  16.047 -0.7078 -0.2833 -0.0712
18760TIP3    H277772   2.861   0.949  16.176 -0.8796  0.0916 -0.2189
18761TIP3   OH277773   3.352   4.830   6.173  0.4207 -0.1348 -0.2442
18761TIP3    H177774   3.351   4.735   6.165 -0.0036 -0.3061  1.5261
18761TIP3    H277775   3.444   4.852   6.189  0.1522 -0.6000  2.4077
18762TIP3   OH277776   1.970   6.162   0.170  0.0270 -0.2394  0.2792
18762TIP3    H177777   1.878   6.154   0.147 -0.6417  2.8198  1.3242
18762TIP3    H277778   2.012   6.196   0.091 -0.0869 -0.1440  0.2586
18763TIP3   OH277779   0.984   1.967  12.644  0.0724 -0.2115 -0.2251
18763TIP3    H177780   0.932   1.887  12.646  2.2069 -1.7002 -0.0836
18763TIP3    H277781   0.993   1.992  12.736  0.3994 -0.5351 -0.1638
18764TIP3   OH277782   6.759   4.700  13.685  0.9664 -0.5397 -0.3055
18764TIP3    H177783   6.680   4.691  13.737  1.0246  0.9941  0.0827
18764TIP3    H277784   6.733   4.751  13.609  1.6763  0.4527  0.0938
18765TIP3   OH277785   3.255   4.908  10.983  0.2534  0.0460 -0.8890
18765TIP3    H177786   3.298   4.843  10.926  0.7655  0.5879 -1.1317
18765TIP3    H277787   3.326   4.942  11.038 -0.6522 -2.4448  2.0978
18766TIP3   OH277788   2.829   1.672   4.457  0.1847 -0.1156  0.0423
18766TIP3    H177789   2.737   1.667   4.482 -0.9421  0.4615 -3.4944
18766TIP3    H277790   2.857   1.580   4.452 -0.3675 -0.3171  0.4825
18767TIP3   OH277791   4.494   2.137  16.135 -0.7818 -0.6723 -0.0388
18767TIP3    H177792   4.414   2.170  16.175 -0.5852 -0.7061  0.3906
18767TIP3    H277793   4.539   2.091  16.206 -0.6079 -1.0600 -0.3944
18768TIP3   OH277794   0.085   3.818  12.859 -0.4462 -0.1257  0.1292
18768TIP3    H177795   0.143   3.867  12.800  1.3576 -2.8594 -0.5815
18768TIP3    H277796   0.145   3.763  12.910 -2.1183  0.6072  3.1166
18769TIP3   OH277797   4.551   1.421  11.915 -0.3661 -0.1410 -0.0803
18769TIP3    H177798   4.509   1.491  11.965 -1.1284  0.7381 -1.8510
18769TIP3    H277799   4.478   1.371  11.878  0.1342  0.1521 -1.5133
18770TIP3   OH277800   2.558   5.991   5.139  0.0949  0.4764  0.7276
18770TIP3    H177801   2.601   5.924   5.087  1.2530  0.9047  1.1129
18770TIP3    H277802   2.583   5.971   5.229 -1.0654  0.3450  1.0400
18771TIP3   OH277803   2.484   3.291  14.483 -0.1617 -0.6754  0.0379
18771TIP3    H177804   2.395   3.312  14.455 -0.1562 -1.4840 -0.6191
18771TIP3    H277805   2.526   3.253  14.406  1.1816  0.8982 -0.0551
18772TIP3   OH277806   5.005   1.207  12.372  0.0096 -0.0188 -0.2537
18772TIP3    H177807   4.997   1.147  12.298 -1.7516 -0.4688  0.2358
18772TIP3    H277808   4.918   1.247  12.379  0.1724  0.1093  1.4721
18773TIP3   OH277809   5.439   0.561   2.524 -0.1950 -0.1965 -0.2330
18773TIP3    H177810   5.431   0.609   2.441 -0.0247 -2.7219 -1.8054
18773TIP3    H277811   5.495   0.617   2.578 -1.8229  2.4162 -1.0491
18774TIP3   OH277812   3.110   0.338  11.111 -0.1219  0.2783  0.2834
18774TIP3    H177813   3.129   0.423  11.151 -1.4911  0.6340  0.2365
18774TIP3    H277814   3.139   0.347  11.020  0.8859  0.2590  0.5986
18775TIP3   OH277815   2.747   1.199   1.820 -0.0854 -0.3760  0.4146
18775TIP3    H177816   2.700   1.163   1.745  0.5358 -1.3441  0.4811
18775TIP3    H277817   2.806   1.264   1.782  1.4628 -2.0561 -0.1827
18776TIP3   OH277818   4.971   0.795   2.136 -0.3266 -0.0754 -0.5615
18776TIP3    H177819   5.042   0.856   2.155 -0.5787 -0.1154  0.5677
18776TIP3    H277820   4.901   0.820   2.196  0.0037 -2.2045  0.8168
18777TIP3   OH277821   4.116   5.821  15.660 -0.2543  0.2886 -0.2443
18777TIP3    H177822   4.200   5.862  15.680 -0.4704  0.0942  1.1344
18777TIP3    H277823   4.065   5.891  15.620 -0.4898  1.3289  1.7330
18778TIP3   OH277824   5.910   5.549   5.182 -0.3478  0.0651 -1.2866
18778TIP3    H177825   5.889   5.456   5.189  0.6984 -0.1875 -1.2154
18778TIP3    H277826   5.913   5.580   5.273 -0.9340  0.2308 -1.3213
18779TIP3   OH277827   4.017   2.629   0.950 -0.1062  0.9336 -0.1371
18779TIP3    H177828   4.024   2.534   0.959  2.2718  0.9931 -0.6874
18779TIP3    H277829   3.983   2.659   1.034  3.8320 -0.0687  2.0672
18780TIP3   OH277830   2.076   6.626  14.591 -0.3057  0.2768  0.2569
18780TIP3    H177831   2.043   6.628  14.501 -1.7079  2.2215  0.7651
18780TIP3    H277832   2.040   6.545  14.627 -1.5016  0.5114 -0.3363
18781TIP3   OH277833   1.777   4.607   5.207  0.0920 -0.6568  0.4698
18781TIP3    H177834   1.836   4.558   5.265  0.7179  0.5753  0.9174
18781TIP3    H277835   1.711   4.645   5.266  0.7726  0.6627  0.4218
18782TIP3   OH277836   5.841   5.923   1.471  0.3687  0.3848  0.0963
18782TIP3    H177837   5.827   5.914   1.565  0.5075 -0.5897  0.0350
18782TIP3    H277838   5.765   5.880   1.431  0.7284  0.0458 -0.2303
18783TIP3   OH277839   2.202   6.162   3.885  0.0256  0.0139  0.3686
18783TIP3    H177840   2.271   6.106   3.849  1.2029  2.8277 -2.1626
18783TIP3    H277841   2.240   6.199   3.965  0.6936 -0.0006  0.0646
18784TIP3   OH277842   0.063   2.458   3.793  0.3715 -0.0299 -0.0561
18784TIP3    H177843   0.146   2.411   3.781  0.6672  0.6996 -1.0041
18784TIP3    H277844   0.001   2.391   3.822  0.7521 -1.0577 -1.5146
18785TIP3   OH277845   3.124   1.032  13.888 -0.6214 -0.4685  0.0275
18785TIP3    H177846   3.133   0.962  13.952 -0.9161 -0.0110  0.5752
18785TIP3    H277847   3.189   1.097  13.914 -0.7804 -0.2544 -0.1030
18786TIP3   OH277848   4.055   2.578   5.507  0.7836 -0.0887 -0.4112
18786TIP3    H177849   4.144   2.574   5.543  0.8187  0.6491 -0.4012
18786TIP3    H277850   4.031   2.670   5.512  0.9264  0.1230 -2.6324
18787TIP3   OH277851   1.824   6.020  14.270 -0.8762 -0.0442  0.3369
18787TIP3    H177852   1.850   5.949  14.329 -1.2294  0.5254  1.2025
18787TIP3    H277853   1.907   6.052  14.233 -0.7481 -1.1780 -0.4024
18788TIP3   OH277854   0.032   5.946   3.846 -0.1045 -0.2862  0.3013
18788TIP3    H177855  -0.054   5.982   3.828  0.2607  0.6090  0.2926
18788TIP3    H277856   0.092   6.021   3.838  0.6766 -0.8977  0.2590
18789TIP3   OH277857   2.532   2.998  17.233 -0.3150  0.0347  0.0175
18789TIP3    H177858   2.467   3.033  17.294  0.0218  0.5728  0.0693
18789TIP3    H277859   2.579   2.932  17.283 -1.3836 -0.9841 -0.2752
18790TIP3   OH277860   0.804   1.309   1.470 -0.0429  0.2413  0.0940
18790TIP3    H177861   0.819   1.241   1.536  0.2947  1.0218  0.8538
18790TIP3    H277862   0.880   1.303   1.412  0.3010  0.3723  0.5256
18791TIP3   OH277863   0.752   6.578  11.531  0.0759 -0.3654 -0.0029
18791TIP3    H177864   0.791   6.492  11.546  0.0719 -0.4102 -0.2494
18791TIP3    H277865   0.680   6.583  11.594  0.6812 -0.1470  0.6946
18792TIP3   OH277866   4.862   1.776  16.321 -0.0421  0.3391 -0.6749
18792TIP3    H177867   4.943   1.740  16.286  0.1237 -0.7122  0.6980
18792TIP3    H277868   4.890   1.841  16.385 -0.3084  0.6228 -0.8402
18793TIP3   OH277869   6.662   2.511  12.174 -0.1205 -0.1587  0.2927
18793TIP3    H177870   6.585   2.532  12.227  0.0176 -0.1818  0.5062
18793TIP3    H277871   6.695   2.429  12.211 -0.0732 -0.2202  0.1150
18794TIP3   OH277872   6.080   4.987  14.075  0.0044 -0.2889 -0.2260
18794TIP3    H177873   6.094   4.921  14.143  0.3427  1.6119  1.6315
18794TIP3    H277874   6.159   4.985  14.022  0.0494 -1.2930 -0.1345
18795TIP3   OH277875   5.673   4.334  13.058  0.6183  0.6601 -0.0789
18795TIP3    H177876   5.643   4.382  12.981 -1.7179 -0.3722  0.1024
18795TIP3    H277877   5.707   4.251  13.023 -0.0122  0.3833 -0.0400
18796TIP3   OH277878   0.225   2.341  12.019 -0.5224 -0.2854  0.0271
18796TIP3    H177879   0.181   2.277  12.074  1.3442 -1.6328  0.0539
18796TIP3    H277880   0.270   2.399  12.081 -1.4657  0.5349 -0.0253
18797TIP3   OH277881   6.121   5.329  15.274 -0.1173  0.2887 -0.2947
18797TIP3    H177882   6.120   5.281  15.357  0.0222 -0.3238 -0.6393
18797TIP3    H277883   6.120   5.421  15.299 -1.5330  0.1158  0.3822
18798TIP3   OH277884   1.415   2.498   5.950  0.0190 -0.1168 -0.0755
18798TIP3    H177885   1.435   2.407   5.973 -0.6763 -0.5046 -0.9349
18798TIP3    H277886   1.485   2.523   5.890 -1.1900 -1.0050 -1.9595
18799TIP3   OH277887   1.140   3.938  12.184 -0.3016 -0.0538 -0.1668
18799TIP3    H177888   1.086   3.894  12.249  1.3152 -0.0336  1.2668
18799TIP3    H277889   1.192   3.868  12.144  1.8549  0.3836  1.7093
18800TIP3   OH277890   0.348   4.388   2.873  0.0844 -0.0827 -0.4147
18800TIP3    H177891   0.430   4.398   2.826 -0.7670  1.2026 -1.6819
18800TIP3    H277892   0.282   4.431   2.818 -0.7681  2.7684  2.4818
18801TIP3   OH277893   2.943   6.298  13.381 -0.2879 -0.4535 -0.2226
18801TIP3    H177894   3.012   6.315  13.445  0.9699  0.7366 -1.8227
18801TIP3    H277895   2.921   6.205  13.394 -0.0294 -0.2800  1.8394
18802TIP3   OH277896   3.990   2.479  17.010 -0.1149 -0.6039  0.0453
18802TIP3    H177897   4.048   2.554  17.020 -1.5309  0.6019 -0.4347
18802TIP3    H277898   3.960   2.483  16.919 -0.6290 -1.4421  0.1600
18803TIP3   OH277899   1.598   0.933  16.059 -0.3140 -0.1356  0.7589
18803TIP3    H177900   1.522   0.884  16.029  0.1094 -0.3204 -0.0481
18803TIP3    H277901   1.563   1.017  16.090 -0.6197  0.9930 -2.2903
18804TIP3   OH277902   6.522   2.254   3.816 -0.1725 -0.6917  0.0270
18804TIP3    H177903   6.505   2.271   3.908  0.1829 -1.7003  0.3006
18804TIP3    H277904   6.613   2.222   3.814 -0.6074 -1.9734 -0.4728
18805TIP3   OH277905   0.294   3.797   4.571 -0.3019 -0.2925 -0.4012
18805TIP3    H177906   0.293   3.890   4.593  0.8004 -0.2467 -0.5165
18805TIP3    H277907   0.204   3.768   4.587 -1.2840  1.2912 -2.5386
18806TIP3   OH277908   6.684   0.151   0.544  0.4576  0.0279 -0.3331
18806TIP3    H177909   6.598   0.193   0.553  0.4989 -0.1571  1.2528
18806TIP3    H277910   6.665   0.068   0.500 -0.5099 -0.9124  1.7368
18807TIP3   OH277911   1.041   3.493   6.148 -0.0212  0.2274  0.4586
18807TIP3    H177912   1.056   3.543   6.228 -0.9474 -1.1277  1.5266
18807TIP3    H277913   0.946   3.488   6.141  0.0304 -1.6129  0.5707
18808TIP3   OH277914   6.715   2.942  14.412  0.3628 -1.0217 -0.2598
18808TIP3    H177915   6.629   2.969  14.442  1.1601  1.2249  0.1709
18808TIP3    H277916   6.750   2.888  14.483 -0.2633 -1.0565  0.0281
18809TIP3   OH277917   3.051   4.512   3.081 -0.0603 -0.5120 -0.3547
18809TIP3    H177918   2.973   4.563   3.103 -0.2011  0.7660 -3.3511
18809TIP3    H277919   3.094   4.562   3.011  2.2847 -2.2729 -0.2957
18810TIP3   OH277920   6.170   2.993  12.884 -0.4345  0.0717  0.1949
18810TIP3    H177921   6.145   3.085  12.887  1.1959  0.5329  0.7774
18810TIP3    H277922   6.209   2.981  12.797  0.1891  0.1728  0.4574
18811TIP3   OH277923   0.058   1.384   5.021 -0.3357  0.1231  0.6945
18811TIP3    H177924   0.014   1.401   5.104  0.0246  0.6657  0.7836
18811TIP3    H277925   0.128   1.449   5.017 -1.3905  1.2547 -0.8162
18812TIP3   OH277926   0.999   2.929  12.148 -0.0244  0.3263 -0.4768
18812TIP3    H177927   0.969   2.847  12.188  0.4587 -1.3531 -3.2604
18812TIP3    H277928   0.919   2.970  12.115 -0.1037  0.0867 -0.5865
18813TIP3   OH277929   3.474   2.865   2.375 -0.1862  0.6683  0.4003
18813TIP3    H177930   3.481   2.951   2.334 -2.0597  0.1715 -1.1020
18813TIP3    H277931   3.380   2.846   2.377  0.0932 -0.8652  1.7782
18814TIP3   OH277932   1.523   6.291   1.815  0.1786  0.6555  0.0820
18814TIP3    H177933   1.477   6.374   1.802 -3.4387 -1.3940 -1.5914
18814TIP3    H277934   1.468   6.242   1.876  2.3464 -0.5415  1.2099
18815TIP3   OH277935   0.323   5.249  15.839 -0.0262 -0.0896  0.3343
18815TIP3    H177936   0.237   5.207  15.832 -0.7969  1.5735 -0.8057
18815TIP3    H277937   0.349   5.236  15.930 -1.3533 -0.8690  0.6252
18816TIP3   OH277938   0.048   3.740   3.489  0.7933 -0.4511  0.4750
18816TIP3    H177939  -0.015   3.676   3.456  2.0705 -0.8915 -1.3001
18816TIP3    H277940   0.130   3.691   3.496  1.3835  0.5528  0.8860
18817TIP3   OH277941   3.248   2.964   1.182  0.3440  0.1564  0.3964
18817TIP3    H177942   3.339   2.989   1.199 -0.1953  1.1180  2.1153
18817TIP3    H277943   3.242   2.874   1.213  1.1098 -0.5341 -1.3502
18818TIP3   OH277944   1.505   6.248   2.138  0.3201 -0.2268 -0.1412
18818TIP3    H177945   1.568   6.183   2.106  1.3550  1.0806 -0.8262
18818TIP3    H277946   1.427   6.234   2.085  1.5908  1.1103 -2.5293
18819TIP3   OH277947   2.262   3.378  16.158  0.5662  0.0197 -0.3039
18819TIP3    H177948   2.318   3.305  16.185  1.4507  0.7562 -0.0825
18819TIP3    H277949   2.317   3.456  16.170  0.1505  0.5952 -1.9392
18820TIP3   OH277950   1.909   2.863  17.208 -0.3172  0.0349 -0.2393
18820TIP3    H177951   1.818   2.890  17.192 -0.1574  0.3446 -0.6226
18820TIP3    H277952   1.903   2.768  17.220 -0.6159 -0.0385 -0.9015
18821TIP3   OH277953   4.451   4.019   4.254  0.5207  0.6721  0.8611
18821TIP3    H177954   4.523   4.041   4.194  0.1244  0.7397  0.3998
18821TIP3    H277955   4.376   4.004   4.196  0.3328 -0.0978  1.2915
18822TIP3   OH277956   5.041   0.811   2.977 -0.4081 -0.3149  0.7874
18822TIP3    H177957   4.987   0.878   2.934 -1.7098  0.0997  2.9401
18822TIP3    H277958   5.129   0.824   2.939 -1.0954  1.1499 -0.4386
18823TIP3   OH277959   2.672   5.971  15.835  0.1567 -0.8005 -0.5788
18823TIP3    H177960   2.613   5.967  15.911  0.7048 -0.1482 -0.0993
18823TIP3    H277961   2.665   5.885  15.794 -1.5104 -0.5734 -0.8316
18824TIP3   OH277962   1.517   5.023  11.087  0.1361 -0.0228 -0.2585
18824TIP3    H177963   1.482   4.934  11.092 -1.1245  0.4378 -0.4214
18824TIP3    H277964   1.612   5.012  11.077 -0.0684 -1.3541 -0.8909
18825TIP3   OH277965   6.201   3.290  12.313  0.1787  0.2813 -0.4698
18825TIP3    H177966   6.145   3.361  12.281 -0.2506  0.8538  1.4135
18825TIP3    H277967   6.257   3.269  12.239 -0.4010  1.8592 -1.4229
18826TIP3   OH277968   2.286   0.821   4.706  0.3069 -0.0256  0.0146
18826TIP3    H177969   2.382   0.822   4.705  0.4320 -1.4824  2.3240
18826TIP3    H277970   2.263   0.882   4.776 -0.4364  0.0029 -0.2502
18827TIP3   OH277971   4.478   3.389  13.185  0.0628 -0.0075 -0.1379
18827TIP3    H177972   4.511   3.328  13.252 -0.1771  0.8945  0.8318
18827TIP3    H277973   4.383   3.381  13.191 -0.0419  1.7483  1.2806
18828TIP3   OH277974   6.429   4.702   0.633  0.2943 -0.1343  0.5145
18828TIP3    H177975   6.386   4.654   0.703 -2.0330 -0.0135 -0.7486
18828TIP3    H277976   6.455   4.634   0.571  0.9455 -0.1054  0.7487
18829TIP3   OH277977   6.187   6.061   4.158 -0.2701 -0.6417 -0.3274
18829TIP3    H177978   6.156   6.029   4.242 -0.5234 -1.3611 -0.6845
18829TIP3    H277979   6.268   6.108   4.178 -1.8964  1.8777  0.7127
18830TIP3   OH277980   6.660   6.751  15.250 -0.4574  0.3442  0.0206
18830TIP3    H177981   6.746   6.718  15.225 -0.4274  0.2657  0.2251
18830TIP3    H277982   6.603   6.728  15.176 -0.6652 -1.0968  0.5882
18831TIP3   OH277983   5.760   5.545  11.538  0.0500 -0.3639 -0.0395
18831TIP3    H177984   5.670   5.524  11.563  0.1380  1.6475  2.3310
18831TIP3    H277985   5.752   5.620  11.478  0.1272 -0.8357 -0.6487
18832TIP3   OH277986   0.844   1.264   1.860  0.2039  0.3688  0.3186
18832TIP3    H177987   0.864   1.190   1.918 -1.4810  0.1119  0.6278
18832TIP3    H277988   0.826   1.225   1.775 -1.3453  0.3096  0.6395
18833TIP3   OH277989   3.146   0.322  12.629 -0.0023  0.5484  0.1012
18833TIP3    H177990   3.113   0.411  12.640  0.7802  0.6811  1.5114
18833TIP3    H277991   3.098   0.270  12.693  0.2933  0.1573  0.0079
18834TIP3   OH277992   5.541   5.114  16.332 -0.5265  0.4600  0.4124
18834TIP3    H177993   5.568   5.060  16.406  1.1650 -0.7511 -1.0303
18834TIP3    H277994   5.620   5.162  16.307 -1.0469  0.8028 -0.6418
18835TIP3   OH277995   3.400   2.703  13.139  0.0479  0.7055 -0.1984
18835TIP3    H177996   3.305   2.693  13.135  0.1715 -0.5401 -0.4203
18835TIP3    H277997   3.421   2.756  13.062 -0.1121 -2.3280 -2.5115
18836TIP3   OH277998   6.077   5.904   2.163 -0.2112  0.7118 -0.3094
18836TIP3    H177999   6.098   5.967   2.094 -0.2997  1.2079  0.1091
18836TIP3    H278000   6.027   5.836   2.118 -0.2173  0.9985 -0.7480
18837TIP3   OH278001   4.045   0.096   1.220  0.2143  0.2691 -0.7523
18837TIP3    H178002   3.962   0.127   1.183  0.2232  2.1331  0.6598
18837TIP3    H278003   4.086   0.174   1.256  1.6541 -0.9486  0.3755
18838TIP3   OH278004   2.873   3.624  11.389  0.5447  0.5372  0.2939
18838TIP3    H178005   2.793   3.677  11.381  0.5269  0.8011  1.9137
18838TIP3    H278006   2.930   3.657  11.319  0.0727  1.8893  0.5173
18839TIP3   OH278007   3.368   6.077  15.381  0.0734 -0.3112 -0.0300
18839TIP3    H178008   3.462   6.091  15.371 -0.1537  0.1643 -1.9025
18839TIP3    H278009   3.329   6.133  15.313 -1.5034 -1.2405  0.0775
18840TIP3   OH278010   3.788   3.114   1.947  0.1690 -0.1157  0.0898
18840TIP3    H178011   3.725   3.109   2.019  0.2883  1.1921  0.2925
18840TIP3    H278012   3.746   3.170   1.882  0.1538 -1.1129 -0.7922
18841TIP3   OH278013   5.815   2.635  12.670  0.0133  0.0909  0.3655
18841TIP3    H178014   5.835   2.603  12.582  1.0400  0.4702  0.4502
18841TIP3    H278015   5.805   2.730  12.659 -0.5485  0.0547  0.5426
18842TIP3   OH278016   2.404   5.028  13.055  0.0171  0.4670 -0.0805
18842TIP3    H178017   2.416   5.040  13.149 -0.1045 -0.1818  0.0186
18842TIP3    H278018   2.454   5.101  13.016 -1.7634  2.0920  0.5276
18843TIP3   OH278019   1.286   2.328  16.420  0.2409 -0.2868  0.3445
18843TIP3    H178020   1.250   2.408  16.383  1.3518  0.2186  0.3240
18843TIP3    H278021   1.225   2.259  16.392 -1.1316  0.6192  0.9671
18844TIP3   OH278022   4.501   5.806  15.592  0.1243 -0.0518  0.6244
18844TIP3    H178023   4.587   5.838  15.617 -0.2801  0.3143  1.5908
18844TIP3    H278024   4.473   5.751  15.665  1.0366 -3.1702 -1.2078
18845TIP3   OH278025   5.978   4.095  12.000 -0.5151 -0.1547  0.3074
18845TIP3    H178026   6.017   4.176  12.034  0.9490 -0.0119 -1.5369
18845TIP3    H278027   5.996   4.030  12.068 -0.1257  0.6817  1.0341
18846TIP3   OH278028   6.750   5.694   0.726 -0.0772  0.5363 -0.2939
18846TIP3    H178029   6.698   5.767   0.760 -0.8998  0.0989 -0.5921
18846TIP3    H278030   6.757   5.633   0.800  0.7238  0.9668 -0.0039
18847TIP3   OH278031   4.927   0.092  12.785  0.0612 -0.5784 -0.0992
18847TIP3    H178032   4.926   0.016  12.728 -0.3183 -0.8838  0.3112
18847TIP3    H278033   4.846   0.138  12.765 -1.9009 -2.5423  2.6455
18848TIP3   OH278034   3.900   2.091   4.759  0.5150 -0.1175 -0.3032
18848TIP3    H178035   3.914   2.012   4.707 -1.3872 -0.0513 -0.9780
18848TIP3    H278036   3.807   2.090   4.781  0.1788  2.4522 -1.2097
18849TIP3   OH278037   0.855   1.937   0.901  0.3291  0.0641  0.1205
18849TIP3    H178038   0.881   1.960   0.991 -0.3038  0.2792  0.2509
18849TIP3    H278039   0.784   1.874   0.912  0.0944  0.2648 -0.2296
18850TIP3   OH278040   3.436   5.136  13.149 -0.3571 -0.0590  0.4877
18850TIP3    H178041   3.498   5.148  13.221 -1.0135 -0.0381  1.0688
18850TIP3    H278042   3.488   5.102  13.077  0.3198 -0.0613  0.9705
18851TIP3   OH278043   4.784   3.934   6.211 -0.0160  0.1661 -0.3115
18851TIP3    H178044   4.692   3.923   6.186 -0.7168 -0.3015  2.2361
18851TIP3    H278045   4.791   3.893   6.297  3.2523 -2.3494 -1.5696
18852TIP3   OH278046   2.495   4.174  12.186  0.0300 -0.4596 -1.0020
18852TIP3    H178047   2.517   4.081  12.183 -1.4237 -0.8938  0.1787
18852TIP3    H278048   2.550   4.210  12.255 -1.9992 -1.3159  1.2125
18853TIP3   OH278049   2.535   2.994  10.804  0.0202  0.6540 -0.0482
18853TIP3    H178050   2.615   3.041  10.827  0.9949 -1.4644  1.1445
18853TIP3    H278051   2.565   2.906  10.780 -1.9145 -0.0475 -0.0560
18854TIP3   OH278052   3.175   2.627   2.712  0.5328  0.7075  0.2966
18854TIP3    H178053   3.092   2.610   2.757 -0.7374  1.2314 -1.7085
18854TIP3    H278054   3.196   2.718   2.733 -0.2611  1.0725 -0.4163
18855TIP3   OH278055   6.346   3.501  14.901  0.3726  1.1033 -0.6241
18855TIP3    H178056   6.388   3.427  14.944 -0.1119  2.4216  2.4247
18855TIP3    H278057   6.406   3.575  14.919  0.0171  1.7743 -2.0905
18856TIP3   OH278058   1.551   3.695   0.888  0.0303 -0.0808 -0.2947
18856TIP3    H178059   1.612   3.765   0.869 -0.8642  1.1573  1.1852
18856TIP3    H278060   1.469   3.722   0.846 -0.5262  0.1511  0.9158
18857TIP3   OH278061   2.143   1.790   6.350 -0.3688 -0.1622  0.6312
18857TIP3    H178062   2.088   1.712   6.344 -0.3901 -0.1704  0.9425
18857TIP3    H278063   2.112   1.836   6.427  1.9950 -1.6653  2.6295
18858TIP3   OH278064   6.487   1.656  12.843  0.3900  0.0389  0.0969
18858TIP3    H178065   6.568   1.629  12.799 -0.7788 -1.3171 -1.3651
18858TIP3    H278066   6.457   1.731  12.792  1.2558  1.2278  1.3042
18859TIP3   OH278067   5.132   1.427  12.475 -0.5998 -0.4114  0.1487
18859TIP3    H178068   5.208   1.370  12.465 -1.9679 -2.0828 -1.4013
18859TIP3    H278069   5.057   1.370  12.463 -2.1687  1.1262  1.9590
18860TIP3   OH278070   4.053   4.520   0.472 -0.2348  0.0700 -0.1126
18860TIP3    H178071   4.025   4.480   0.390  0.9914  0.5477 -0.7878
18860TIP3    H278072   4.052   4.448   0.536 -1.3132 -0.2764 -0.4948
18861TIP3   OH278073   2.889   5.685  11.293 -0.5605 -0.8085 -0.1080
18861TIP3    H178074   2.901   5.779  11.275 -0.3649 -0.6149  0.9636
18861TIP3    H278075   2.834   5.654  11.221  0.1484 -0.0819 -0.9953
18862TIP3   OH278076   1.190   0.772  11.089  0.2726  0.3822  0.0686
18862TIP3    H178077   1.223   0.857  11.060  1.5902 -0.5432 -1.2972
18862TIP3    H278078   1.152   0.733  11.011  2.1642 -1.3905 -0.0636
18863TIP3   OH278079   5.060   6.705   4.725 -0.5640  0.2889  0.5741
18863TIP3    H178080   5.130   6.682   4.665 -0.3069 -1.1812  1.3888
18863TIP3    H278081   4.983   6.716   4.670 -0.1820 -0.3171 -0.0894
18864TIP3   OH278082   4.449   1.262  11.261  0.5253  0.0684 -0.3736
18864TIP3    H178083   4.445   1.355  11.240  2.2756 -0.0735 -1.6040
18864TIP3    H278084   4.520   1.228  11.205 -0.0936 -2.0066  0.0125
18865TIP3   OH278085   2.060   0.417  13.397  0.0701 -0.3440  0.3325
18865TIP3    H178086   2.143   0.378  13.426 -0.1908 -0.7826  0.4920
18865TIP3    H278087   2.055   0.397  13.304  0.8477  0.9548 -0.0112
18866TIP3   OH278088   1.013   0.556   5.309  0.0584 -0.0099 -0.7720
18866TIP3    H178089   1.021   0.589   5.220  1.3829  0.1362 -0.6118
18866TIP3    H278090   1.073   0.482   5.313  0.3679  0.2763  0.1292
18867TIP3   OH278091   0.994   2.961   6.247 -0.5615 -0.0585 -0.1125
18867TIP3    H178092   0.996   2.911   6.329 -0.6569  1.5917  0.9541
18867TIP3    H278093   0.984   3.052   6.275  2.5148  0.9411 -1.8362
18868TIP3   OH278094   5.158   0.137  13.260 -0.2296 -0.0554 -0.3541
18868TIP3    H178095   5.148   0.204  13.327  0.0058 -0.2075 -0.1662
18868TIP3    H278096   5.252   0.133  13.243 -0.1727 -0.7281  0.0439
18869TIP3   OH278097   2.353   6.334   0.950 -0.0950 -0.8681  0.2462
18869TIP3    H178098   2.378   6.375   0.867  0.0146  0.8694  1.1037
18869TIP3    H278099   2.257   6.327   0.945 -0.0356 -1.4730 -0.3066
18870TIP3   OH278100   0.190   1.934   3.407  0.4631 -0.8398  0.1814
18870TIP3    H178101   0.236   1.906   3.486  1.5496 -1.0256 -0.4974
18870TIP3    H278102   0.106   1.968   3.439  1.6645  0.9977  1.6499
18871TIP3   OH278103   0.065   2.034   2.617  0.6876 -0.4350  0.0536
18871TIP3    H178104   0.109   1.990   2.690 -0.2685 -2.0664 -0.2846
18871TIP3    H278105  -0.028   2.011   2.628  0.2200  1.0948 -0.4655
18872TIP3   OH278106   1.929   1.845  10.945  0.2004 -0.2791  0.2708
18872TIP3    H178107   1.899   1.933  10.922 -0.8275 -0.6913 -0.0134
18872TIP3    H278108   1.976   1.814  10.868  1.3819  0.3595  0.7077
18873TIP3   OH278109   3.416   5.540   5.381 -0.2418  0.8227 -0.0940
18873TIP3    H178110   3.425   5.527   5.476 -0.4767 -0.9049 -0.2637
18873TIP3    H278111   3.488   5.489   5.344 -1.3081 -0.1723 -0.8841
18874TIP3   OH278112   1.933   1.841   4.359 -0.5557 -0.1696  0.2523
18874TIP3    H178113   1.959   1.901   4.428 -2.6817 -0.2604  1.2066
18874TIP3    H278114   1.839   1.826   4.374 -0.4365 -2.5146 -0.8573
18875TIP3   OH278115   2.528   6.059  14.518  0.1545  0.3633  0.2651
18875TIP3    H178116   2.592   6.088  14.583 -1.2092  0.6108  1.5727
18875TIP3    H278117   2.508   6.137  14.467  0.6865  0.3509  0.0395
18876TIP3   OH278118   2.757   5.490  11.784 -0.1605  0.1446  0.2451
18876TIP3    H178119   2.712   5.458  11.862 -1.4063 -1.0581 -0.8916
18876TIP3    H278120   2.754   5.415  11.723  1.8565  0.6250 -0.5210
18877TIP3   OH278121   6.547   4.689  11.592  0.4339  0.2989  0.2992
18877TIP3    H178122   6.615   4.688  11.525 -0.2362 -1.9842 -0.4471
18877TIP3    H278123   6.477   4.633  11.556 -1.5909  2.0596  1.2873
18878TIP3   OH278124   4.516   4.889   3.844 -0.0560  0.2810  0.1212
18878TIP3    H178125   4.546   4.798   3.841  0.9850  0.6371 -0.8677
18878TIP3    H278126   4.528   4.922   3.755 -0.2047  1.4593  0.5151
18879TIP3   OH278127   1.795   4.849  13.659  0.1992  0.3847 -0.5199
18879TIP3    H178128   1.706   4.819  13.641  0.3137 -0.5672  0.4427
18879TIP3    H278129   1.816   4.813  13.745  1.3908  0.8980 -0.5747
18880TIP3   OH278130   3.129   0.984  11.994  0.3618  0.3261 -0.1763
18880TIP3    H178131   3.141   0.914  11.929  1.1286  2.1929 -2.1926
18880TIP3    H278132   3.207   1.038  11.985 -0.5579  1.8833  0.7026
18881TIP3   OH278133   1.784   2.229   1.169 -0.0090 -0.2042  0.0322
18881TIP3    H178134   1.785   2.235   1.074 -0.8907 -0.9947 -0.0498
18881TIP3    H278135   1.726   2.300   1.197  0.8133  0.4782  0.0397
18882TIP3   OH278136   5.809   3.527   5.591  0.4762 -0.0350  0.1818
18882TIP3    H178137   5.761   3.604   5.622  0.5580 -0.1657  0.6398
18882TIP3    H278138   5.806   3.466   5.665  1.0412 -0.1830  0.0844
18883TIP3   OH278139   2.264   2.625   2.409  0.1492 -0.6271  0.0948
18883TIP3    H178140   2.231   2.699   2.460  2.1998  1.0124 -0.7783
18883TIP3    H278141   2.190   2.598   2.355 -0.5559  1.1252  0.1041
18884TIP3   OH278142   0.029   1.639  16.612  0.1385 -0.0558 -0.1473
18884TIP3    H178143   0.052   1.593  16.531  0.6585  3.0388 -1.9259
18884TIP3    H278144   0.114   1.667  16.647 -0.1959  0.2347  0.4301
18885TIP3   OH278145   2.851   1.308   2.584  0.0643  0.3671  0.4707
18885TIP3    H178146   2.863   1.333   2.492 -0.1327 -1.4359 -0.0805
18885TIP3    H278147   2.757   1.317   2.599  0.1918  1.3861  0.7443
18886TIP3   OH278148   5.891   1.927   2.766 -0.3244 -0.3624  0.0027
18886TIP3    H178149   5.823   1.908   2.702 -0.7796 -2.1548  0.9625
18886TIP3    H278150   5.853   1.903   2.851  1.1048 -0.3588  0.6842
18887TIP3   OH278151   3.724   3.119   2.658  0.1270 -0.2719 -0.7327
18887TIP3    H178152   3.804   3.147   2.702 -0.9462  1.1308  0.4342
18887TIP3    H278153   3.755   3.070   2.581  2.1504  1.9090 -1.4438
18888TIP3   OH278154   3.271   4.592   5.282  0.1815 -0.1425 -0.1882
18888TIP3    H178155   3.282   4.505   5.243  0.5780 -0.2274  0.1092
18888TIP3    H278156   3.254   4.575   5.374  0.6002  0.1062 -0.0630
18889TIP3   OH278157   0.790   4.901   4.313  0.1440 -0.2524 -0.3939
18889TIP3    H178158   0.726   4.883   4.244  0.3413 -2.7151 -0.0086
18889TIP3    H278159   0.748   4.870   4.393  1.2855 -0.6645  0.0645
18890TIP3   OH278160   3.609   0.915   4.037 -0.1240 -0.4449 -0.4378
18890TIP3    H178161   3.562   0.984   3.990  0.9592  1.1653  0.7052
18890TIP3    H278162   3.689   0.900   3.986  1.2215  1.5503  0.9166
18891TIP3   OH278163   2.744   1.768   3.702 -0.0727  0.6368 -0.6778
18891TIP3    H178164   2.707   1.722   3.627  0.8566 -1.7852  0.2130
18891TIP3    H278165   2.672   1.817   3.740 -0.9858  0.4161 -2.0823
18892TIP3   OH278166   6.589   0.706   3.348 -0.3237 -0.1007 -0.0292
18892TIP3    H178167   6.580   0.668   3.436 -1.3229 -0.6092 -0.3384
18892TIP3    H278168   6.505   0.690   3.306 -0.5092  1.7864 -0.4563
18893TIP3   OH278169   4.263   4.474   0.174  0.0452  0.0327  0.4194
18893TIP3    H178170   4.352   4.442   0.183 -0.3457 -1.6709 -0.9635
18893TIP3    H278171   4.272   4.562   0.138  1.1848 -0.6496 -1.0745
18894TIP3   OH278172   0.679   4.644  13.216  0.3484 -0.0709 -0.0188
18894TIP3    H178173   0.628   4.714  13.175 -0.4235 -0.2295  0.6414
18894TIP3    H278174   0.640   4.564  13.182  0.1463 -0.1957  0.5087
18895TIP3   OH278175   2.328   5.892  13.400 -0.0500 -0.6581 -0.6043
18895TIP3    H178176   2.312   5.803  13.370 -1.0066 -0.3623 -1.0015
18895TIP3    H278177   2.396   5.883  13.467 -0.7496 -1.7874 -0.0113
18896TIP3   OH278178   1.102   4.885  11.657 -0.0073  0.6445 -0.2842
18896TIP3    H178179   1.114   4.969  11.701  1.5944  1.0519 -1.3716
18896TIP3    H278180   1.010   4.883  11.632 -0.6636  0.9453  1.9062
18897TIP3   OH278181   2.976   4.335   1.718  0.2387 -0.3224 -0.1349
18897TIP3    H178182   2.912   4.311   1.786 -1.1962 -1.0966 -1.6761
18897TIP3    H278183   2.991   4.428   1.731 -2.2907  0.2198 -0.5310
18898TIP3   OH278184   4.012   1.927  15.308  0.5073 -0.2015  0.1671
18898TIP3    H178185   3.971   2.001  15.353 -0.9370 -1.2702  0.6855
18898TIP3    H278186   4.095   1.915  15.353  1.4289  1.9658 -0.8497
18899TIP3   OH278187   2.930   3.131   3.880  0.4825  0.2306 -0.1364
18899TIP3    H178188   2.946   3.083   3.961  0.9282  0.9898  0.2375
18899TIP3    H278189   3.017   3.159   3.852  0.6030 -1.6579 -1.9352
18900TIP3   OH278190   4.673   0.011  11.787  0.0559 -0.3514  0.1572
18900TIP3    H178191   4.684  -0.060  11.724  1.0239  0.0881 -0.2006
18900TIP3    H278192   4.721   0.084  11.748  1.8481 -0.4416  1.9989
18901TIP3   OH278193   1.648   4.616   0.297 -0.1484  0.4683 -0.4682
18901TIP3    H178194   1.617   4.528   0.318  0.1227  0.3796 -0.4335
18901TIP3    H278195   1.602   4.639   0.216 -0.2053  0.2869 -0.4890
18902TIP3   OH278196   0.854   1.960  12.304 -0.0669 -0.0130 -0.1612
18902TIP3    H178197   0.916   1.994  12.239 -1.1811  1.4655 -0.5036
18902TIP3    H278198   0.802   2.036  12.329 -1.5304 -1.1447  0.3394
18903TIP3   OH278199   1.397   5.154  14.821 -0.1976 -0.1971 -0.2097
18903TIP3    H178200   1.477   5.196  14.790 -0.3136 -0.9585 -1.6226
18903TIP3    H278201   1.378   5.197  14.904  0.2741  1.7647 -1.0647
18904TIP3   OH278202   1.222   6.523  13.025 -0.5149  0.0848  0.2026
18904TIP3    H178203   1.181   6.504  13.109 -2.2561 -1.0006 -0.8089
18904TIP3    H278204   1.275   6.445  13.005 -0.4336  0.1607  0.1191
18905TIP3   OH278205   2.479   2.896   6.131 -0.1638  0.4603  0.4549
18905TIP3    H178206   2.444   2.973   6.177 -0.5804 -0.1759  1.2239
18905TIP3    H278207   2.404   2.862   6.082 -0.3194 -0.1763  1.1144
18906TIP3   OH278208   3.400   4.207   1.506 -0.1550 -0.3990  0.3168
18906TIP3    H178209   3.370   4.127   1.548  0.4148 -0.3641  0.8030
18906TIP3    H278210   3.345   4.216   1.428  0.0565 -1.4689  0.0413
18907TIP3   OH278211   0.731   0.928   5.577 -0.0918  0.5386 -0.3035
18907TIP3    H178212   0.738   0.854   5.637 -0.2093  0.1627 -0.7526
18907TIP3    H278213   0.815   0.973   5.584 -0.3012  0.8135  0.5514
18908TIP3   OH278214   2.625   5.378  10.868 -0.2727  0.4038  0.5238
18908TIP3    H178215   2.672   5.425  10.799  0.6172  2.1290  2.2408
18908TIP3    H278216   2.671   5.294  10.874  0.2012  0.5818 -0.3665
18909TIP3   OH278217   5.386   3.311  14.223 -0.2461  0.0625 -0.3631
18909TIP3    H178218   5.344   3.251  14.161  2.4212 -1.1936 -1.0936
18909TIP3    H278219   5.457   3.350  14.173 -0.5182  2.1591  0.7976
18910TIP3   OH278220   1.283   2.659   2.807  0.1902 -0.3753 -0.8348
18910TIP3    H178221   1.338   2.731   2.837  0.9765 -1.7161  1.1206
18910TIP3    H278222   1.205   2.664   2.863 -0.2673 -0.3701 -1.4656
18911TIP3   OH278223   4.858   0.287  14.862 -0.1376  0.9712 -0.5327
18911TIP3    H178224   4.916   0.228  14.814  0.5777  0.8911  0.3908
18911TIP3    H278225   4.867   0.371  14.818  0.0507  0.7619 -0.8976
18912TIP3   OH278226   3.979   4.485  13.175 -0.7614  0.0328 -0.0798
18912TIP3    H178227   4.067   4.449  13.179 -0.4528  0.7651 -0.1211
18912TIP3    H278228   3.977   4.552  13.243 -1.2791  0.0448 -0.0979
18913TIP3   OH278229   0.391   2.991   0.521 -0.2469 -0.1780 -0.7025
18913TIP3    H178230   0.297   2.971   0.514 -0.1870 -0.8592  0.1626
18913TIP3    H278231   0.434   2.916   0.480 -0.0805  0.3265 -1.4612
18914TIP3   OH278232   5.449   5.414   0.691  0.0024 -0.6557 -0.0023
18914TIP3    H178233   5.460   5.509   0.689 -0.2617 -0.6033  0.6696
18914TIP3    H278234   5.366   5.401   0.737  0.3084 -1.2258  0.3948
18915TIP3   OH278235   2.887   0.719   4.355  0.2703  0.2267  0.2115
18915TIP3    H178236   2.928   0.634   4.368 -0.0652  0.1721  0.9280
18915TIP3    H278237   2.937   0.758   4.283  0.3649 -0.6096 -0.1976
18916TIP3   OH278238   6.382   5.634  14.760  0.2246  0.0488 -0.3829
18916TIP3    H178239   6.444   5.572  14.723 -0.5490 -0.4805 -0.8169
18916TIP3    H278240   6.409   5.719  14.724  0.7025 -0.1710 -0.5470
18917TIP3   OH278241   2.257   1.028  16.762  0.0916  0.1858  0.0717
18917TIP3    H178242   2.258   0.998  16.853 -2.0530 -0.1358  0.0377
18917TIP3    H278243   2.241   0.949  16.711  0.2695  0.5198 -0.5118
18918TIP3   OH278244   4.509   5.459   1.585  0.5199 -0.4533 -0.5191
18918TIP3    H178245   4.467   5.373   1.595 -0.3933  0.1232  0.9217
18918TIP3    H278246   4.548   5.456   1.497 -0.2877 -1.9881 -0.8728
18919TIP3   OH278247   3.212   6.376   1.249 -0.2251 -0.3663 -0.0659
18919TIP3    H178248   3.145   6.403   1.186 -1.6598  1.4081  2.0376
18919TIP3    H278249   3.166   6.314   1.307  0.8511 -1.4223 -0.3102
18920TIP3   OH278250   0.248   4.251  15.044  0.6625 -0.4215 -0.4750
18920TIP3    H178251   0.288   4.297  15.118 -1.1923  0.2090  0.1990
18920TIP3    H278252   0.311   4.262  14.973  1.2633  1.3560  0.2595
18921TIP3   OH278253   6.267   6.462   5.599  0.0906  0.4286 -0.3093
18921TIP3    H178254   6.336   6.520   5.565 -0.7882  0.8772 -1.3952
18921TIP3    H278255   6.208   6.450   5.525  0.2083 -1.8345 -0.0941
18922TIP3   OH278256   0.310   0.854   1.692  0.2669 -0.0805  0.1191
18922TIP3    H178257   0.384   0.833   1.749  0.8661  0.9624 -0.2633
18922TIP3    H278258   0.282   0.941   1.719 -1.4614 -0.8206  0.9088
18923TIP3   OH278259   6.168   2.319   3.852  0.4218 -0.3783  0.4991
18923TIP3    H178260   6.206   2.242   3.810 -1.4969 -0.4140 -1.3349
18923TIP3    H278261   6.214   2.393   3.811 -1.2349 -0.4225 -1.6446
18924TIP3   OH278262   6.523   0.819  14.698 -0.1207  0.1089 -0.2650
18924TIP3    H178263   6.489   0.813  14.787  1.1563 -0.4611  0.2118
18924TIP3    H278264   6.447   0.804  14.642 -0.8910  0.2021  0.7211
18925TIP3   OH278265   2.394   0.802   2.777 -0.1145  0.0348 -0.5828
18925TIP3    H178266   2.401   0.719   2.731 -1.6821 -2.3955  3.0838
18925TIP3    H278267   2.474   0.849   2.755  0.9198 -2.4896 -2.6892
18926TIP3   OH278268   6.208   1.059   1.392 -0.4365  0.1723 -0.3051
18926TIP3    H178269   6.253   1.129   1.439  0.7950 -0.0552 -1.1060
18926TIP3    H278270   6.160   1.012   1.460 -0.7757  1.3984  0.3345
18927TIP3   OH278271   0.472   6.629   3.918  0.5900  0.0640  0.0193
18927TIP3    H178272   0.398   6.579   3.883  0.2187  0.4625  0.2329
18927TIP3    H278273   0.519   6.566   3.973  0.6288 -0.2949 -0.4176
18928TIP3   OH278274   1.375   4.994  11.820  0.3832 -0.1348 -0.3647
18928TIP3    H178275   1.462   4.954  11.825 -0.0370 -0.9064  1.3180
18928TIP3    H278276   1.373   5.057  11.892 -0.8194 -0.9210  0.3253
18929TIP3   OH278277   5.514   4.904   3.099 -0.1248  0.0408 -0.5969
18929TIP3    H178278   5.519   4.817   3.138  1.9054  0.6678  0.7220
18929TIP3    H278279   5.478   4.890   3.012 -1.4405 -1.8841  0.2008
18930TIP3   OH278280   2.508   0.148   1.139 -0.2571 -0.1409  0.7480
18930TIP3    H178281   2.599   0.147   1.169  0.6560  1.5516 -1.6476
18930TIP3    H278282   2.480   0.239   1.149 -0.3352  0.2232 -1.9862
18931TIP3   OH278283   6.337   2.573  16.183 -0.2317  0.5616 -0.3821
18931TIP3    H178284   6.304   2.485  16.201  0.4649  0.5885  1.1711
18931TIP3    H278285   6.420   2.578  16.231  0.6245  1.4703 -1.8855
18932TIP3   OH278286   0.176   5.366  15.567  0.4733 -0.2072 -0.2390
18932TIP3    H178287   0.230   5.317  15.629  0.8368  2.0120  1.3192
18932TIP3    H278288   0.189   5.458  15.590 -2.9853  0.5309 -0.5641
18933TIP3   OH278289   5.823   4.169  12.910  0.1980 -0.3099  0.1654
18933TIP3    H178290   5.893   4.212  12.960  1.6757 -0.3122 -1.8032
18933TIP3    H278291   5.869   4.112  12.848 -1.4646  0.6236 -2.0579
18934TIP3   OH278292   0.404   6.807   4.267 -0.6935  0.0836 -0.3513
18934TIP3    H178293   0.466   6.830   4.336 -0.8940 -1.7958  0.5105
18934TIP3    H278294   0.445   6.839   4.186 -0.5190  2.4336  0.5920
18935TIP3   OH278295   3.318   1.439   0.984  0.6522 -0.1381  0.5073
18935TIP3    H178296   3.307   1.527   0.949 -1.8683 -0.8379 -0.7026
18935TIP3    H278297   3.236   1.421   1.030  2.4292 -0.6547  3.7786
18936TIP3   OH278298   0.939   4.688   4.193  0.0944 -0.8510 -0.3705
18936TIP3    H178299   0.887   4.768   4.204  0.2147 -0.8010 -0.1585
18936TIP3    H278300   0.881   4.627   4.147 -0.7422 -1.4033  1.3705
18937TIP3   OH278301   5.998   1.338   3.330 -0.2877  0.0790  0.1520
18937TIP3    H178302   5.997   1.417   3.276 -1.5472 -0.3936 -0.5529
18937TIP3    H278303   6.071   1.286   3.296  1.9362  1.7792  1.9709
18938TIP3   OH278304   3.131   4.029   4.704  0.8538  0.2796 -0.0764
18938TIP3    H178305   3.051   3.996   4.663  1.2273 -0.8226  0.0519
18938TIP3    H278306   3.113   4.025   4.798  0.2701  2.1127 -0.0681
18939TIP3   OH278307   3.912   3.828  16.137  0.5869  0.1774  0.0353
18939TIP3    H178308   3.882   3.767  16.070  0.4184  0.0675  0.2089
18939TIP3    H278309   3.878   3.913  16.109 -0.3130 -0.0205  0.4831
18940TIP3   OH278310   6.169   4.990  12.821  0.3750 -0.0574  0.0206
18940TIP3    H178311   6.179   4.998  12.916  0.4325  2.4041 -0.1257
18940TIP3    H278312   6.184   5.079  12.788  2.0497 -1.1394 -2.4603
18941TIP3   OH278313   4.679   5.707   3.527  0.3489 -1.1087 -0.2631
18941TIP3    H178314   4.720   5.793   3.522  0.2093 -1.0063  0.2182
18941TIP3    H278315   4.716   5.668   3.607 -1.3711 -0.5205  0.8853
18942TIP3   OH278316   0.401   6.300   4.142  0.1793 -0.2906  0.3154
18942TIP3    H178317   0.460   6.252   4.200 -0.4232 -2.2020 -0.5794
18942TIP3    H278318   0.333   6.334   4.200  0.0095 -1.5011  0.8561
18943TIP3   OH278319   2.464   6.253  14.852 -0.5393  0.3620 -0.1570
18943TIP3    H178320   2.467   6.194  14.927  0.4612  0.5000 -0.0801
18943TIP3    H278321   2.423   6.201  14.782 -0.9560  0.0525  0.3112
18944TIP3   OH278322   5.840   5.774  11.845 -0.2098 -0.8442 -0.5227
18944TIP3    H178323   5.898   5.701  11.822  0.2406 -1.1230  1.4003
18944TIP3    H278324   5.871   5.847  11.791 -0.6999 -2.0300 -2.5144
18945TIP3   OH278325   0.634   0.154   4.927 -0.2574 -0.0857  0.2994
18945TIP3    H178326   0.639   0.230   4.870 -1.2874 -0.1824  0.0673
18945TIP3    H278327   0.568   0.177   4.993  0.4216 -0.2419  1.0500
18946TIP3   OH278328   6.211   3.791   2.929  0.8837 -0.7198 -0.4704
18946TIP3    H178329   6.289   3.759   2.974  1.0416 -0.6280 -0.6784
18946TIP3    H278330   6.138   3.754   2.979  1.0630 -1.1387 -0.5098
18947TIP3   OH278331   1.754   6.360  12.024 -0.0193 -0.0783 -0.6610
18947TIP3    H178332   1.751   6.354  11.928 -0.0494 -0.8865 -0.6175
18947TIP3    H278333   1.690   6.296  12.054  0.3173 -0.1588 -0.0984
18948TIP3   OH278334   3.027   4.665   2.383  0.1093  0.1032 -0.1473
18948TIP3    H178335   2.950   4.714   2.354  1.4126  1.3610 -1.5875
18948TIP3    H278336   2.991   4.580   2.412 -1.6896  0.2094 -1.8696
18949TIP3   OH278337   2.330   1.000   6.270  0.0639 -0.1751 -0.0395
18949TIP3    H178338   2.341   1.063   6.341  2.4846 -0.4944 -0.0307
18949TIP3    H278339   2.319   0.916   6.315  0.4476 -0.2190 -0.0195
18950TIP3   OH278340   3.139   5.380   1.416 -0.0966 -0.2646 -0.5539
18950TIP3    H178341   3.144   5.292   1.455  1.0654  0.3318  0.6992
18950TIP3    H278342   3.229   5.399   1.389 -0.2741  0.6947 -0.4803
18951TIP3   OH278343   2.524   2.354   4.835 -0.3758 -0.1040  0.1488
18951TIP3    H178344   2.433   2.331   4.814  0.0636 -0.9462 -0.9848
18951TIP3    H278345   2.560   2.384   4.752  0.1422  1.0889  0.7923
18952TIP3   OH278346   6.604   4.176  16.172 -0.0848 -0.0814  0.0439
18952TIP3    H178347   6.560   4.182  16.087 -0.3449 -0.8982  0.1108
18952TIP3    H278348   6.694   4.151  16.151 -0.5514 -1.9096  0.0644
18953TIP3   OH278349   3.238   3.991  13.010  0.5588  0.2323  0.4381
18953TIP3    H178350   3.162   3.933  12.999 -0.0252  1.2637 -1.5170
18953TIP3    H278351   3.228   4.027  13.098 -1.2049  0.2944  0.2467
18954TIP3   OH278352   6.447   6.093  15.777  0.5910  0.6493 -0.5926
18954TIP3    H178353   6.528   6.144  15.769  1.1001  0.1906  1.2883
18954TIP3    H278354   6.467   6.024  15.839 -0.6643 -0.7393 -1.6611
18955TIP3   OH278355   6.068   3.197  16.132 -0.1331  0.1776  0.6621
18955TIP3    H178356   5.996   3.235  16.081 -0.1196 -2.6739 -1.8183
18955TIP3    H278357   6.024   3.143  16.198 -0.2912 -0.2173  0.2455
18956TIP3   OH278358   5.350   3.453  13.359  1.0799  0.3831  0.4956
18956TIP3    H178359   5.314   3.516  13.295 -0.1083  0.8279  1.5587
18956TIP3    H278360   5.273   3.422  13.408  1.8141 -0.9334  0.8553
18957TIP3   OH278361   3.414   6.110   1.805 -0.1376 -0.8083 -0.2589
18957TIP3    H178362   3.398   6.118   1.899  0.0465  0.0522 -0.2913
18957TIP3    H278363   3.386   6.021   1.784  0.1680 -1.1444  0.6771
18958TIP3   OH278364   1.407   1.249   0.792  0.1491 -0.0877 -0.2637
18958TIP3    H178365   1.326   1.298   0.809  0.5766  0.7252 -0.5407
18958TIP3    H278366   1.447   1.238   0.878  0.9198  1.5902 -0.3746
18959TIP3   OH278367   5.842   3.172  12.507 -0.7400  0.5315 -0.4295
18959TIP3    H178368   5.837   3.120  12.587  0.1123 -1.1700 -1.4257
18959TIP3    H278369   5.805   3.257  12.532 -1.6949 -0.3468  1.4175
18960TIP3   OH278370   0.959   4.478  15.505  0.1592 -0.4913  0.0339
18960TIP3    H178371   1.050   4.480  15.475 -0.0758  0.3850 -0.6734
18960TIP3    H278372   0.908   4.453  15.428 -0.4611  1.9233 -0.4421
18961TIP3   OH278373   0.002   4.828  12.061  0.6386 -0.2679  0.2228
18961TIP3    H178374  -0.058   4.801  11.992 -0.8809  0.0148  1.3753
18961TIP3    H278375   0.033   4.746  12.100  0.5798 -0.4139 -0.0370
18962TIP3   OH278376   5.861   1.374   2.642  0.1876 -0.0771 -0.0132
18962TIP3    H178377   5.860   1.469   2.638 -1.4021  0.0059  1.1025
18962TIP3    H278378   5.845   1.354   2.735  0.8576 -1.4310 -0.1695
18963TIP3   OH278379   4.456   1.764  14.203 -0.7976 -0.4946  0.0496
18963TIP3    H178380   4.499   1.762  14.288 -1.2759  1.7798  0.4279
18963TIP3    H278381   4.388   1.831  14.212  0.1919  1.0194 -2.5577
18964TIP3   OH278382   4.010   3.514   0.476  0.8074 -0.0129 -0.1574
18964TIP3    H178383   3.940   3.487   0.417  0.2354  2.5530 -0.7758
18964TIP3    H278384   4.086   3.463   0.448 -0.2266 -1.1446 -0.9970
18965TIP3   OH278385   4.043   1.002  15.655  0.2578  0.2919 -0.2781
18965TIP3    H178386   3.951   1.022  15.638 -0.0631 -2.1636 -2.0843
18965TIP3    H278387   4.042   0.943  15.731 -0.0188 -1.7077 -1.7362
18966TIP3   OH278388   4.703   4.037   6.493  0.1030  0.0436  0.5944
18966TIP3    H178389   4.765   3.969   6.470  0.9366  0.6025  1.1224
18966TIP3    H278390   4.621   3.991   6.510  0.3382 -0.6907 -0.2252
18967TIP3   OH278391   4.251   2.660  11.802  0.4311 -0.2940 -0.0270
18967TIP3    H178392   4.285   2.715  11.872  0.2750 -2.5824  1.9931
18967TIP3    H278393   4.177   2.614  11.842  0.5256 -1.9172 -1.5864
18968TIP3   OH278394   1.589   1.835  13.901 -0.0571  0.0326 -0.3717
18968TIP3    H178395   1.634   1.777  13.962 -1.3326  0.1097  0.6815
18968TIP3    H278396   1.620   1.808  13.815  0.8206 -0.9210  0.2220
18969TIP3   OH278397   5.318   1.483  14.871 -0.7233  0.1647 -0.4061
18969TIP3    H178398   5.332   1.491  14.777 -0.2132  2.8196 -0.1951
18969TIP3    H278399   5.362   1.560  14.908 -0.0011 -1.3469  2.1125
18970TIP3   OH278400   3.014   6.490   4.084 -0.7038 -0.1372  0.4981
18970TIP3    H178401   3.051   6.523   4.002  0.8990  0.1014  1.2816
18970TIP3    H278402   2.919   6.499   4.073 -0.4466  1.8396 -0.5095
18971TIP3   OH278403   2.372   3.086   2.418  0.1174  0.8103  0.1461
18971TIP3    H178404   2.351   3.149   2.487  1.2891 -0.5369  1.8181
18971TIP3    H278405   2.377   3.001   2.463 -1.9660 -0.6455 -2.1022
18972TIP3   OH278406   4.028   6.822  12.612 -0.5596  0.4127  0.2121
18972TIP3    H178407   3.951   6.774  12.580 -1.3184  0.8793  1.2552
18972TIP3    H278408   3.998   6.863  12.694  1.3519 -0.9191  1.6645
18973TIP3   OH278409   5.604   5.863   0.673 -0.4747 -0.0476  0.3491
18973TIP3    H178410   5.682   5.818   0.641 -0.6619  0.5214 -1.0052
18973TIP3    H278411   5.589   5.932   0.608 -1.5348  0.4668  1.1203
18974TIP3   OH278412   1.256   2.653   0.982  0.2834 -0.5290 -0.0421
18974TIP3    H178413   1.260   2.740   0.943  1.7840  0.6749  2.5144
18974TIP3    H278414   1.286   2.594   0.912 -0.2505  1.0383 -1.6680
18975TIP3   OH278415   2.176   5.494   6.151  0.1880 -0.6193 -0.1470
18975TIP3    H178416   2.111   5.563   6.135 -0.1868 -1.0682 -0.5762
18975TIP3    H278417   2.260   5.537   6.134 -0.0217 -0.1562 -0.0254
18976TIP3   OH278418   6.380   3.854  14.302 -0.0015  0.0287  0.7337
18976TIP3    H178419   6.370   3.769  14.261 -0.0152  0.6801 -0.6505
18976TIP3    H278420   6.472   3.858  14.329  0.5289  0.3447 -1.0192
18977TIP3   OH278421   5.014   1.087   0.547 -0.5761  0.4398  0.3966
18977TIP3    H178422   4.924   1.069   0.575 -1.0201  1.0996 -0.5423
18977TIP3    H278423   5.034   1.173   0.582 -0.2567  0.2413  0.7106
18978TIP3   OH278424   5.014   2.877   5.320 -0.0933 -0.1721  0.1788
18978TIP3    H178425   4.965   2.892   5.239 -0.0408  0.7224  0.3096
18978TIP3    H278426   5.046   2.787   5.312  1.4307  0.4623 -1.6141
18979TIP3   OH278427   6.655   5.383  13.090 -0.2685  0.2589 -0.6397
18979TIP3    H178428   6.682   5.296  13.120  1.1829  0.5767 -0.9841
18979TIP3    H278429   6.560   5.375  13.078 -0.1138 -1.3937 -1.0491
18980TIP3   OH278430   3.949   3.791  13.342 -0.5942 -0.1360  0.3719
18980TIP3    H178431   4.015   3.830  13.399 -0.8881 -0.5868  1.0326
18980TIP3    H278432   3.872   3.780  13.398 -1.1739  0.1956 -0.3309
18981TIP3   OH278433   0.088   4.045   1.925 -0.0448 -0.6345  0.2144
18981TIP3    H178434   0.100   4.139   1.915  1.3105 -0.5142  2.3641
18981TIP3    H278435   0.091   4.011   1.835 -2.9375  1.5263 -0.8558
18982TIP3   OH278436   5.764   1.533  16.478  0.5111  0.3311 -0.5964
18982TIP3    H178437   5.802   1.457  16.523 -0.0002  0.1024 -0.5390
18982TIP3    H278438   5.735   1.590  16.549  0.6947  0.4762 -0.6382
18983TIP3   OH278439   2.460   0.335   2.939 -0.3669  0.0408  0.7303
18983TIP3    H178440   2.481   0.425   2.963 -1.8551  0.2736  1.2566
18983TIP3    H278441   2.438   0.293   3.022 -2.0037 -0.1384  0.2524
18984TIP3   OH278442   6.326   4.714   5.242 -0.3996 -0.8465  0.5066
18984TIP3    H178443   6.270   4.695   5.317  0.2650 -1.5470  0.8404
18984TIP3    H278444   6.265   4.719   5.168 -1.1257  0.4334  1.1585
18985TIP3   OH278445   2.741   1.571  13.482 -0.5761 -0.3484 -0.2991
18985TIP3    H178446   2.778   1.613  13.559  1.9185 -1.3818 -0.8404
18985TIP3    H278447   2.671   1.515  13.516  0.9945 -1.3930  1.3834
18986TIP3   OH278448   4.313   2.868   5.576  0.3015 -0.0225 -0.1913
18986TIP3    H178449   4.335   2.775   5.574  0.7512  0.0767  0.0067
18986TIP3    H278450   4.293   2.886   5.668  3.7501  0.8634  0.4971
18987TIP3   OH278451   5.242   4.905  16.604  0.7099  0.1436  0.0748
18987TIP3    H178452   5.300   4.902  16.680 -0.6203 -1.6915  1.0946
18987TIP3    H278453   5.269   4.830  16.551 -0.2199 -0.2679  0.1733
18988TIP3   OH278454   3.976   5.615  16.684  0.1570  0.0774 -0.4938
18988TIP3    H178455   4.028   5.631  16.606  1.1008 -0.4500  0.0141
18988TIP3    H278456   4.023   5.660  16.754  0.4864 -1.2211  0.1524
18989TIP3   OH278457   0.543   6.567  13.361 -0.3820 -0.5544  0.5933
18989TIP3    H178458   0.487   6.502  13.403  0.1222 -2.7651 -1.8827
18989TIP3    H278459   0.596   6.603  13.432 -0.4614 -3.0994  2.0673
18990TIP3   OH278460   5.664   2.607  11.690 -0.5304  0.1329  0.9680
18990TIP3    H178461   5.661   2.521  11.732 -1.0182 -0.2920  0.0839
18990TIP3    H278462   5.746   2.608  11.641 -0.6590  0.0557  0.7490
18991TIP3   OH278463   3.784   3.965   1.740 -0.0118 -0.3400  0.1524
18991TIP3    H178464   3.832   3.923   1.812  0.6047  1.7851  1.0397
18991TIP3    H278465   3.750   4.046   1.777 -0.7829  0.1983 -1.6274
18992TIP3   OH278466   2.805   5.138   2.239  0.2856 -0.1286  0.3319
18992TIP3    H178467   2.770   5.211   2.290  0.9593  0.2117  0.3113
18992TIP3    H278468   2.756   5.141   2.156  0.2950  0.2796  0.3420
18993TIP3   OH278469   0.839   0.443   4.141  0.0764 -0.2315 -0.7272
18993TIP3    H178470   0.925   0.461   4.179  0.1063 -0.5853 -0.6273
18993TIP3    H278471   0.784   0.515   4.172  0.3157 -0.0521 -0.7187
18994TIP3   OH278472   0.784   1.514  15.027  0.0969  0.6232 -0.0794
18994TIP3    H178473   0.814   1.456  15.097  0.4639  0.0236 -0.7158
18994TIP3    H278474   0.807   1.468  14.946 -0.6464  1.1247 -0.5986
18995TIP3   OH278475   5.387   4.558  15.439  0.3943 -0.0920 -0.0174
18995TIP3    H178476   5.329   4.545  15.364 -0.5147 -0.4761  0.7292
18995TIP3    H278477   5.368   4.647  15.469  0.4729 -0.0747 -0.0209
18996TIP3   OH278478   6.576   0.137   3.920  0.2519  0.5007  0.1452
18996TIP3    H178479   6.625   0.066   3.881 -0.6902 -1.1298  1.7791
18996TIP3    H278480   6.591   0.128   4.015 -0.1130  2.3143  0.4292
18997TIP3   OH278481   6.805   1.489   0.084 -0.4317 -0.1179 -0.0100
18997TIP3    H178482   6.780   1.446   0.002 -0.3027 -0.5616  0.1805
18997TIP3    H278483   6.876   1.549   0.059  0.3794 -1.0669 -0.0442
18998TIP3   OH278484   3.012   0.332   1.788 -0.2766  0.0073  0.5376
18998TIP3    H178485   3.011   0.238   1.800  2.2504 -0.1593 -0.0776
18998TIP3    H278486   2.951   0.366   1.854 -0.5965 -1.9690  1.3078
18999TIP3   OH278487   6.254   0.510   1.623  0.1901  0.0954 -0.0480
18999TIP3    H178488   6.224   0.550   1.542  0.5205 -0.2605 -0.3474
18999TIP3    H278489   6.174   0.491   1.671 -0.0018  0.3910 -0.2457
19000TIP3   OH278490   0.612   5.752   5.628  0.1133  0.0954  0.0149
19000TIP3    H178491   0.622   5.671   5.679 -0.6243  0.7891  1.3186
19000TIP3    H278492   0.671   5.814   5.671 -0.9726  0.8651  0.4458
19001TIP3   OH278493   6.643   1.364   4.887  0.6251  0.3153  0.4154
19001TIP3    H178494   6.685   1.359   4.973 -0.4037 -2.3953  0.8369
19001TIP3    H278495   6.554   1.335   4.902 -1.1550  4.3567 -0.7706
19002TIP3   OH278496   3.173   0.682  12.174  0.4045 -0.0116  0.0342
19002TIP3    H178497   3.150   0.750  12.111 -0.1108 -0.3838 -0.1906
19002TIP3    H278498   3.267   0.690  12.185  0.2877  1.0527  0.3748
19003TIP3   OH278499   6.389   3.508   0.901  0.5480 -0.3448 -0.5007
19003TIP3    H178500   6.305   3.464   0.890 -0.5007  1.2115  0.8582
19003TIP3    H278501   6.383   3.586   0.845  0.5788  0.4137  0.5326
19004TIP3   OH278502   3.310   5.189   4.129  0.5691 -0.1693 -0.5899
19004TIP3    H178503   3.378   5.230   4.076  0.6897  1.0861  0.4703
19004TIP3    H278504   3.349   5.105   4.157  0.6433 -0.6649 -2.1048
19005TIP3   OH278505   6.478   3.828   3.022  0.1779  0.4097 -0.2928
19005TIP3    H178506   6.557   3.803   2.973  2.1591  0.8196  2.4217
19005TIP3    H278507   6.457   3.915   2.990  0.0759 -0.1598 -1.8692
19006TIP3   OH278508   1.639   1.328   5.403 -0.3492  0.1477  0.2034
19006TIP3    H178509   1.726   1.353   5.372 -0.7522 -0.5598 -1.6354
19006TIP3    H278510   1.625   1.241   5.366 -1.9653  0.3794  0.2041
19007TIP3   OH278511   6.246   4.730   0.063 -0.1717 -0.1874 -1.2051
19007TIP3    H178512   6.252   4.808   0.009 -0.1029  0.3325 -0.4605
19007TIP3    H278513   6.155   4.729   0.093  0.0676  0.1254 -0.4581
19008TIP3   OH278514   5.972   0.542   1.978 -0.2418 -0.0185 -0.4403
19008TIP3    H178515   6.050   0.595   1.992  0.2228 -0.7146 -0.3593
19008TIP3    H278516   5.965   0.488   2.057 -0.4698 -0.3805 -0.7036
19009TIP3   OH278517   2.738   5.651  17.176  0.3764 -0.4352 -0.0163
19009TIP3    H178518   2.645   5.667  17.191  0.2204 -1.8763  0.6306
19009TIP3    H278519   2.740   5.584  17.107  1.0104  1.6541 -2.1805
19010TIP3   OH278520   0.796   0.291  16.471  0.7543  0.0726  1.0982
19010TIP3    H178521   0.711   0.254  16.493 -0.9445  2.3216 -1.0501
19010TIP3    H278522   0.788   0.384  16.491  1.4489  0.9597 -2.1022
19011TIP3   OH278523   0.856   0.172   5.178 -0.3425 -0.1626 -0.2582
19011TIP3    H178524   0.827   0.190   5.267 -0.8396  0.2307 -0.4951
19011TIP3    H278525   0.854   0.257   5.134  1.4354 -0.0637 -0.2216
19012TIP3   OH278526   4.597   6.104   0.944  0.1084  0.4735  0.5558
19012TIP3    H178527   4.578   6.144   0.859  0.8877  0.0959  0.1942
19012TIP3    H278528   4.643   6.172   0.993  1.6465 -0.0172 -0.1455
19013TIP3   OH278529   3.654   3.953  16.675  0.1668 -0.2877  0.3954
19013TIP3    H178530   3.671   3.909  16.592  2.1082  1.4283 -0.2069
19013TIP3    H278531   3.740   3.955  16.718 -0.3658  0.7591  1.4493
19014TIP3   OH278532   0.725   6.129   4.518 -0.0165  0.1937 -0.5363
19014TIP3    H178533   0.732   6.048   4.468  0.7350 -0.3861  0.4618
19014TIP3    H278534   0.693   6.193   4.456  0.9562 -0.4868 -1.7877
19015TIP3   OH278535   2.832   2.642   3.837 -0.7560  0.3259  0.3284
19015TIP3    H178536   2.890   2.694   3.780  0.6177  0.0860  1.4510
19015TIP3    H278537   2.757   2.622   3.781  0.3850  0.3675 -1.3179
19016TIP3   OH278538   4.760   5.352   4.390  0.2037 -0.4164  0.3009
19016TIP3    H178539   4.854   5.372   4.383  0.3265 -1.5167 -1.8912
19016TIP3    H278540   4.719   5.437   4.404  1.3566  0.4244 -1.0987
19017TIP3   OH278541   6.054   6.374  14.725 -0.1247 -0.2518 -0.6650
19017TIP3    H178542   6.090   6.323  14.797 -0.2054  0.6083  0.0070
19017TIP3    H278543   6.031   6.458  14.764  0.5933  0.5395 -1.8635
19018TIP3   OH278544   5.988   6.523   2.813  0.1389 -0.5119 -0.5263
19018TIP3    H178545   5.985   6.439   2.768  0.3684 -0.1207 -1.2982
19018TIP3    H278546   6.006   6.502   2.905  1.8416 -1.2072 -1.0002
19019TIP3   OH278547   6.299   0.150   0.218  0.0636 -0.8256 -0.1855
19019TIP3    H178548   6.212   0.122   0.192 -0.1898 -0.4958  0.2872
19019TIP3    H278549   6.318   0.100   0.297 -0.2398  0.0402  0.4495
19020TIP3   OH278550   1.499   2.959  15.198  0.3715  0.3066  0.1757
19020TIP3    H178551   1.584   2.998  15.216  0.1364  1.3308 -0.8560
19020TIP3    H278552   1.509   2.867  15.225  2.4755 -0.1372 -1.8264
19021TIP3   OH278553   6.151   4.848  15.382  0.3303 -0.4510  0.0436
19021TIP3    H178554   6.175   4.797  15.459  2.5777  0.0098 -0.3007
19021TIP3    H278555   6.075   4.801  15.346 -1.2896 -0.2712  2.8742
19022TIP3   OH278556   0.139   5.850   5.913 -1.0587 -0.0831 -0.0168
19022TIP3    H178557   0.057   5.894   5.935 -0.3991  0.4486  1.4847
19022TIP3    H278558   0.200   5.877   5.981  0.8991  0.9968 -2.0928
19023TIP3   OH278559   3.142   1.364  15.106 -0.4707  0.3662 -0.7577
19023TIP3    H178560   3.158   1.415  15.185 -1.7673 -2.0833  1.2086
19023TIP3    H278561   3.216   1.303  15.102 -0.8870 -0.1352 -0.8993
19024TIP3   OH278562   0.970   2.036  11.844  0.4035 -0.5824 -0.4814
19024TIP3    H178563   0.933   2.119  11.877  0.8252 -0.2914 -0.7292
19024TIP3    H278564   1.026   2.005  11.916  0.2521 -0.6448 -0.3912
19025TIP3   OH278565   0.321   2.306  16.413  0.5474 -0.0596  0.3266
19025TIP3    H178566   0.333   2.253  16.334 -2.9398 -0.7424  0.1118
19025TIP3    H278567   0.350   2.393  16.388 -1.8417  0.1167 -2.3295
19026TIP3   OH278568   3.073   2.846   3.088  0.2678 -0.2444 -0.4085
19026TIP3    H178569   3.034   2.930   3.064  0.4035  0.4200  1.5695
19026TIP3    H278570   3.167   2.864   3.093  0.3297 -0.5985 -0.2794
19027TIP3   OH278571   6.414   2.230   0.134  0.4272  0.6980 -0.4483
19027TIP3    H178572   6.335   2.272   0.097 -0.5746 -1.7194 -1.2557
19027TIP3    H278573   6.481   2.298   0.130 -0.9018  2.0211 -2.3566
19028TIP3   OH278574   4.241   1.424   0.626 -0.3753  0.6141  0.1512
19028TIP3    H178575   4.194   1.345   0.601 -1.7350  1.0253  1.2505
19028TIP3    H278576   4.182   1.496   0.599 -0.0457  1.1719  0.8865
19029TIP3   OH278577   0.568   5.456   4.612  0.4067 -0.2295  0.3995
19029TIP3    H178578   0.594   5.526   4.673  1.4220  0.4866 -0.8110
19029TIP3    H278579   0.507   5.402   4.663 -0.5195  1.6005  1.3447
19030TIP3   OH278580   6.525   1.982  16.256  0.1732  0.5102 -0.0469
19030TIP3    H178581   6.572   2.051  16.303 -1.3563  0.4836  1.6308
19030TIP3    H278582   6.464   2.029  16.199 -0.7265  0.5694  0.9448
19031TIP3   OH278583   5.514   5.211   2.015 -0.4804  0.5221 -0.0889
19031TIP3    H178584   5.552   5.194   2.102  1.0916 -1.0829 -1.0140
19031TIP3    H278585   5.500   5.305   2.013  2.2004  1.0318  0.8830
19032TIP3   OH278586   1.789   5.090   0.702  0.1957  0.3153  0.0112
19032TIP3    H178587   1.788   4.998   0.676  0.5278  0.1698  0.4907
19032TIP3    H278588   1.842   5.133   0.635  1.1865 -0.0837  0.5208
19033TIP3   OH278589   6.006   6.172  11.642  0.2394 -0.1321 -0.1623
19033TIP3    H178590   5.936   6.218  11.690 -0.3384  0.3920 -1.4715
19033TIP3    H278591   5.966   6.090  11.614  0.9340 -0.9865  1.1960
19034TIP3   OH278592   2.241   2.341   4.972 -0.3592 -0.1242  0.3538
19034TIP3    H178593   2.223   2.435   4.969 -0.6500 -0.1926 -0.6228
19034TIP3    H278594   2.266   2.323   5.062  0.2450  0.9973  0.4189
19035TIP3   OH278595   4.168   2.182   0.002 -0.6587 -0.1198 -0.3773
19035TIP3    H178596   4.117   2.246   0.051 -1.0949 -0.2706 -0.6304
19035TIP3    H278597   4.237   2.232  -0.041 -0.5722  0.0803 -0.0043
19036TIP3   OH278598   4.556   4.250   5.589 -0.0530 -0.3365 -0.2804
19036TIP3    H178599   4.563   4.192   5.513 -0.9034  0.2174 -0.7970
19036TIP3    H278600   4.542   4.191   5.663 -0.4725 -0.8209 -0.7335
19037TIP3   OH278601   5.225   2.513  13.699  0.8919 -0.1744 -0.1399
19037TIP3    H178602   5.185   2.563  13.627  2.4517  2.8699  0.9093
19037TIP3    H278603   5.311   2.487  13.665  1.2093  0.3557  0.2478
19038TIP3   OH278604   3.530   2.474   2.398  0.0959  0.5627  0.2258
19038TIP3    H178605   3.605   2.479   2.457 -0.3749 -1.6204  1.1390
19038TIP3    H278606   3.456   2.506   2.450  0.2967  2.4741 -0.5899
19039TIP3   OH278607   6.108   3.434   2.021 -0.5730 -0.2398  0.1085
19039TIP3    H178608   6.044   3.447   1.951 -1.4210 -0.2930  0.8679
19039TIP3    H278609   6.156   3.517   2.025 -0.3329 -0.3281 -0.7078
19040TIP3   OH278610   4.562   6.585  15.880  0.7320 -0.3104 -0.6053
19040TIP3    H178611   4.562   6.490  15.870 -1.0575 -0.3574 -0.5285
19040TIP3    H278612   4.498   6.601  15.949 -0.3420  1.0395 -1.8545
19041TIP3   OH278613   1.673   0.001   3.013  0.0317 -0.1563 -0.0763
19041TIP3    H178614   1.713  -0.006   2.926 -1.0038  0.1887 -0.6016
19041TIP3    H278615   1.672   0.095   3.031 -2.1210  0.0314 -0.8763
19042TIP3   OH278616   1.138   1.752  13.840  0.0487  0.6902 -0.0462
19042TIP3    H178617   1.166   1.682  13.898  1.6544  1.4667  0.1836
19042TIP3    H278618   1.044   1.738  13.827  0.1821 -0.9823  0.6638
19043TIP3   OH278619   6.215   6.624  14.468  0.3465 -0.7072 -0.2563
19043TIP3    H178620   6.245   6.654  14.554  1.1964 -0.2775 -0.6923
19043TIP3    H278621   6.287   6.571  14.435 -0.2404 -1.4095 -0.4394
19044TIP3   OH278622   2.437   5.098   1.466 -0.1194  0.4813 -1.0152
19044TIP3    H178623   2.427   5.047   1.386  1.3223 -0.0656 -0.8859
19044TIP3    H278624   2.479   5.038   1.528  0.9224  1.5778 -0.6212
19045TIP3   OH278625   0.137   4.183  16.887 -0.4415  0.1748 -0.0502
19045TIP3    H178626   0.045   4.173  16.912 -0.3483 -1.5912 -0.2831
19045TIP3    H278627   0.171   4.093  16.882  0.6383  0.6265 -2.4366
19046TIP3   OH278628   4.030   4.074   4.645 -0.6293 -0.4263  0.5903
19046TIP3    H178629   4.024   3.981   4.668 -0.2252 -0.1884  1.7057
19046TIP3    H278630   4.046   4.074   4.551  0.7919 -1.5420  0.7858
19047TIP3   OH278631   3.913   1.177  15.307  0.1052 -0.3419 -0.1388
19047TIP3    H178632   3.881   1.222  15.385 -1.4074  1.1221 -1.4959
19047TIP3    H278633   3.838   1.127  15.275  1.3540 -2.7479  0.5202
19048TIP3   OH278634   3.612   6.774  15.504 -0.1216 -0.2529 -0.4791
19048TIP3    H178635   3.577   6.756  15.591 -0.1016  0.7763 -0.2444
19048TIP3    H278636   3.603   6.869  15.494  3.0438  0.1797 -0.1825
19049TIP3   OH278637   5.264   2.955   6.553 -0.4474 -0.2669 -0.1786
19049TIP3    H178638   5.178   2.914   6.550 -1.1912  1.1903  0.2823
19049TIP3    H278639   5.308   2.913   6.627 -0.9563 -0.6587 -0.0983
19050TIP3   OH278640   0.839   4.402  16.072 -0.5456 -0.1318  0.1443
19050TIP3    H178641   0.763   4.411  16.014  0.0482 -0.6369 -0.7418
19050TIP3    H278642   0.819   4.324  16.125 -0.4392 -0.5575 -0.4294
19051TIP3   OH278643   5.692   4.435   5.602  0.0959  0.4378 -0.2648
19051TIP3    H178644   5.607   4.461   5.636 -1.2187 -3.5072 -0.0951
19051TIP3    H278645   5.695   4.472   5.514  0.0729  3.9657  1.0534
19052TIP3   OH278646   6.241   0.238   4.696 -0.1559 -0.1368 -0.1150
19052TIP3    H178647   6.283   0.168   4.646  0.7441 -0.5584  1.1674
19052TIP3    H278648   6.299   0.314   4.684 -0.3181 -0.0380 -0.2787
19053TIP3   OH278649   4.479   5.614  12.684 -0.7841 -0.2201 -0.3363
19053TIP3    H178650   4.485   5.708  12.665 -1.4862 -0.3081 -1.0546
19053TIP3    H278651   4.437   5.577  12.607 -0.6808 -1.1031  0.0246
19054TIP3   OH278652   5.135   4.029  15.866  0.2469 -0.2419  0.0412
19054TIP3    H178653   5.129   4.017  15.772 -0.3173 -3.3220  0.3400
19054TIP3    H278654   5.228   4.039  15.884  0.5214 -1.1572 -0.7619
19055TIP3   OH278655   1.006   0.753   3.055 -0.5672  0.3212 -0.2618
19055TIP3    H178656   0.920   0.710   3.053 -0.2768 -0.3146  0.5213
19055TIP3    H278657   1.024   0.767   3.148  0.7250 -0.6912 -0.3318
19056TIP3   OH278658   4.168   5.891   4.684  0.4387  0.4798  0.1598
19056TIP3    H178659   4.224   5.816   4.702  1.1878  0.4578 -1.9941
19056TIP3    H278660   4.203   5.960   4.741  1.2715 -0.1363  0.4297
19057TIP3   OH278661   0.240   0.859   3.869 -0.6870  0.0680 -0.0309
19057TIP3    H178662   0.270   0.932   3.815 -0.8658 -0.0051 -0.2289
19057TIP3    H278663   0.158   0.831   3.829 -0.5881 -0.2826  0.0078
19058TIP3   OH278664   5.363   1.175  12.841 -0.2986  0.2678 -0.6358
19058TIP3    H178665   5.455   1.160  12.819 -0.2979  0.8964 -1.0755
19058TIP3    H278666   5.315   1.152  12.762 -0.3194  2.2537 -1.2441
19059TIP3   OH278667   3.058   0.868  12.468  0.1773  0.1121 -0.0723
19059TIP3    H178668   3.039   0.869  12.562 -0.1067  1.9503 -0.0994
19059TIP3    H278669   2.994   0.808  12.431 -0.1219 -0.1518  0.8450
19060TIP3   OH278670   5.923   4.510  10.569  0.1208  0.0429 -0.2168
19060TIP3    H178671   5.884   4.580  10.621  0.1481 -0.2267  0.1732
19060TIP3    H278672   6.009   4.543  10.543 -0.3694  0.6600 -1.1126
19061TIP3   OH278673   4.955   6.091   5.156  0.2202  0.0370 -0.2042
19061TIP3    H178674   5.046   6.121   5.153 -0.1169  1.0705 -0.6243
19061TIP3    H278675   4.959   5.998   5.133  1.2105 -0.0468  0.2637
19062TIP3   OH278676   5.984   5.575  11.749  0.2909 -0.0108 -0.1618
19062TIP3    H178677   6.004   5.623  11.669  1.2711  0.1274  0.1564
19062TIP3    H278678   5.980   5.483  11.722  0.9164  0.0063 -0.3252
19063TIP3   OH278679   6.190   4.306   4.041 -0.1655  0.5179  0.5013
19063TIP3    H178680   6.175   4.273   4.130 -1.1882 -0.2529  0.0614
19063TIP3    H278681   6.154   4.394   4.041 -1.7968 -0.1213  0.3774
19064TIP3   OH278682   1.211   3.879   2.333  0.6357  0.0268  0.4029
19064TIP3    H178683   1.125   3.918   2.326  1.2844  1.8004  1.5020
19064TIP3    H278684   1.251   3.891   2.247  1.0844  2.5900  0.8954
19065TIP3   OH278685   3.761   4.004   6.793  0.1825  0.1075  0.0294
19065TIP3    H178686   3.701   4.076   6.773 -0.2235  0.3035  1.8192
19065TIP3    H278687   3.789   4.020   6.883  2.9026 -0.0236 -0.6801
19066TIP3   OH278688   1.915   2.588  11.608 -0.0197  0.0581  0.6878
19066TIP3    H178689   1.987   2.637  11.647 -0.5756  0.3321  1.3777
19066TIP3    H278690   1.927   2.499  11.640  0.0028  0.1081  0.8197
19067TIP3   OH278691   0.172   6.818  17.150  0.5661 -0.6627 -0.7447
19067TIP3    H178692   0.087   6.825  17.107 -0.1736 -2.2473  0.3553
19067TIP3    H278693   0.217   6.749  17.101  0.4936 -1.0854 -0.2278
19068TIP3   OH278694   4.273   5.046  13.939  0.2470 -0.2560  0.2368
19068TIP3    H178695   4.235   5.134  13.945  1.1676  0.3137 -1.3987
19068TIP3    H278696   4.366   5.062  13.921  0.4786 -1.5645  0.1747
19069TIP3   OH278697   5.664   3.840  10.873 -0.1304 -0.1234  0.4079
19069TIP3    H178698   5.739   3.812  10.924  0.4728  0.7384  0.0088
19069TIP3    H278699   5.605   3.880  10.936  0.1246 -0.0375  0.5908
19070TIP3   OH278700   5.706   6.753  12.910  0.0175 -0.1561 -0.2471
19070TIP3    H178701   5.726   6.665  12.876  1.0900 -0.7331  1.7244
19070TIP3    H278702   5.640   6.738  12.978  0.3110  0.5324  0.2036
19071TIP3   OH278703   2.448   6.330  13.529  0.5835  0.1052  0.0149
19071TIP3    H178704   2.412   6.264  13.469  0.5355 -0.5797  0.7719
19071TIP3    H278705   2.371   6.376  13.563  0.6126  0.5154 -0.4660
19072TIP3   OH278706   3.155   4.765   2.087 -0.4040 -0.1955  0.0943
19072TIP3    H178707   3.126   4.750   1.997 -1.6345  1.2457  0.2053
19072TIP3    H278708   3.138   4.682   2.132  0.5413 -1.0431 -1.0546
19073TIP3   OH278709   3.209   2.400  10.828  0.4872  0.0152 -0.0147
19073TIP3    H178710   3.274   2.463  10.860  0.6646 -0.1756  0.0052
19073TIP3    H278711   3.175   2.358  10.907  1.2106 -0.7370 -0.0866
19074TIP3   OH278712   1.649   4.543   4.973 -0.0352 -0.7826 -0.1071
19074TIP3    H178713   1.728   4.557   5.024 -0.1804  0.5736 -0.2121
19074TIP3    H278714   1.678   4.494   4.896  0.8683  0.3840 -0.5399
19075TIP3   OH278715   6.701   0.331   2.743  0.2715  0.0330 -0.0258
19075TIP3    H178716   6.775   0.272   2.759 -0.8442 -1.5509 -0.4548
19075TIP3    H278717   6.665   0.301   2.659 -0.5420  1.1252 -0.0835
19076TIP3   OH278718   0.311   5.269  12.332  0.2831 -0.6051 -0.5394
19076TIP3    H178719   0.286   5.360  12.345  1.5805 -0.2166 -0.6135
19076TIP3    H278720   0.279   5.248  12.244  2.1189  0.5718 -1.5420
19077TIP3   OH278721   1.447   2.953   5.530 -0.4557 -0.0067 -0.1383
19077TIP3    H178722   1.393   2.930   5.605  0.2306 -1.2591 -0.0007
19077TIP3    H278723   1.509   2.880   5.522 -0.9416 -0.2547 -2.3184
19078TIP3   OH278724   3.267   0.501  13.129 -0.6265  0.4048 -0.2500
19078TIP3    H178725   3.348   0.471  13.169  0.6569  3.2373 -0.4921
19078TIP3    H278726   3.279   0.485  13.035  0.8690  3.0867 -0.6196
19079TIP3   OH278727   1.831   3.778  14.038  0.1902  0.2948 -0.0367
19079TIP3    H178728   1.753   3.808  14.084 -0.1789 -2.1684  1.1210
19079TIP3    H278729   1.904   3.807  14.092 -0.0107  0.9738 -0.1208
19080TIP3   OH278730   0.040   0.501  16.123 -0.0949  0.3896 -0.3118
19080TIP3    H178731   0.002   0.456  16.048 -0.5226  2.2860 -1.3055
19080TIP3    H278732   0.131   0.517  16.098  0.3601 -0.8401  0.4919
19081TIP3   OH278733   0.436   4.513   3.457  0.0791  0.2584 -0.0085
19081TIP3    H178734   0.418   4.431   3.411 -0.9773  1.1818 -1.3316
19081TIP3    H278735   0.478   4.486   3.538  0.4990 -1.5447 -0.7642
19082TIP3   OH278736   4.441   1.505  13.165 -0.3733  0.3608  0.0103
19082TIP3    H178737   4.453   1.600  13.170  3.1407  0.1077 -0.9068
19082TIP3    H278738   4.471   1.473  13.249 -0.1709 -0.0257 -0.2090
19083TIP3   OH278739   4.000   3.688   2.978 -0.1582 -0.0090  0.1738
19083TIP3    H178740   3.988   3.653   2.890 -1.0023 -0.9894  0.6617
19083TIP3    H278741   3.920   3.738   2.996 -0.0437  0.0840  0.4398
19084TIP3   OH278742   1.015   0.064   2.762 -0.2125  0.5562 -0.0145
19084TIP3    H178743   1.027   0.141   2.706 -0.2793  0.6979  0.1637
19084TIP3    H278744   0.921   0.052   2.767 -0.1703 -0.5398 -1.3846
19085TIP3   OH278745   4.159   4.417  16.754 -0.7474 -0.0080  0.4265
19085TIP3    H178746   4.064   4.416  16.751 -0.7477  0.2725  0.3025
19085TIP3    H278747   4.183   4.505  16.725 -0.4442 -0.1370  0.2815
19086TIP3   OH278748   0.807   2.387  12.551  0.2865 -0.3486  0.4801
19086TIP3    H178749   0.795   2.463  12.608  1.4735  0.7222 -0.6314
19086TIP3    H278750   0.786   2.312  12.606  1.0974  0.6551  2.2226
19087TIP3   OH278751   5.411   4.672  11.537  0.2362  0.0425 -0.1971
19087TIP3    H178752   5.468   4.748  11.524  1.3128 -0.6748  0.1357
19087TIP3    H278753   5.351   4.674  11.463  0.6998  0.8170 -0.5673
19088TIP3   OH278754   0.870   4.641   2.961 -0.4732 -0.1810  0.4703
19088TIP3    H178755   0.780   4.617   2.984 -0.7420 -0.2068 -0.5877
19088TIP3    H278756   0.920   4.560   2.974 -0.5620 -0.1260  1.2109
19089TIP3   OH278757   1.702   1.630  11.547  0.3179 -0.5981 -0.0410
19089TIP3    H178758   1.762   1.616  11.474  0.8981  0.5198  0.1980
19089TIP3    H278759   1.710   1.723  11.568 -0.0602 -0.8267  1.2554
19090TIP3   OH278760   4.471   3.228   4.098  0.7616  0.3918 -0.0100
19090TIP3    H178761   4.389   3.263   4.133  1.9988  1.7027  1.6928
19090TIP3    H278762   4.451   3.136   4.078 -1.0571  0.6403  0.5167
19091TIP3   OH278763   6.815   0.759   3.727  0.1572  0.2102 -0.0246
19091TIP3    H178764   6.723   0.758   3.753 -0.0074  1.8128 -0.4310
19091TIP3    H278765   6.836   0.667   3.708 -1.3864 -0.1646 -0.0298
19092TIP3   OH278766   4.551   0.030  16.869  0.1191 -0.2274 -0.9571
19092TIP3    H178767   4.564   0.107  16.925 -0.8240 -0.1532 -0.8152
19092TIP3    H278768   4.456   0.027  16.854  0.3161 -0.3615 -2.3884
19093TIP3   OH278769   4.297   1.792   3.989  0.1419  0.0129 -0.1495
19093TIP3    H178770   4.203   1.796   3.967  0.0640  1.0976  0.3191
19093TIP3    H278771   4.314   1.874   4.035  1.1223 -0.5977  0.6065
19094TIP3   OH278772   1.339   0.253   5.875 -0.0857 -0.1231  0.5573
19094TIP3    H178773   1.340   0.178   5.935 -0.8603 -0.2855  0.3819
19094TIP3    H278774   1.360   0.216   5.790  0.2043 -0.0224  0.5815
19095TIP3   OH278775   4.365   4.218  12.137 -0.1330 -0.1723 -0.3853
19095TIP3    H178776   4.364   4.122  12.134  1.2665 -0.1904 -1.1012
19095TIP3    H278777   4.323   4.240  12.220 -2.1279 -1.3339 -1.0256
19096TIP3   OH278778   5.468   2.696  15.093 -0.6899  0.0794  0.1557
19096TIP3    H178779   5.530   2.768  15.086  0.3104 -0.7716 -0.0923
19096TIP3    H278780   5.401   2.715  15.027 -0.0128  0.3756 -0.4562
19097TIP3   OH278781   3.470   6.580  11.063 -0.3298  0.1713  0.1846
19097TIP3    H178782   3.562   6.577  11.039 -0.4130  0.0727 -0.1231
19097TIP3    H278783   3.448   6.490  11.087  0.0076  0.4478  1.6009
19098TIP3   OH278784   3.952   1.787   6.403 -0.2595 -0.6005  0.0455
19098TIP3    H178785   3.955   1.844   6.480 -0.0797 -0.6398  0.0662
19098TIP3    H278786   3.904   1.709   6.433 -0.9479 -0.2538 -0.1180
19099TIP3   OH278787   0.254   6.315   4.919  0.7230  0.4741  0.1850
19099TIP3    H178788   0.309   6.269   4.856 -0.6745  0.4876 -1.1074
19099TIP3    H278789   0.177   6.258   4.930  0.6962  0.7206  1.4948
19100TIP3   OH278790   1.900   5.026  10.702  0.0416 -0.2284  0.1743
19100TIP3    H178791   1.814   5.025  10.744  0.3442 -1.8963  0.8101
19100TIP3    H278792   1.882   5.006  10.610 -0.4688  2.0009 -0.2774
19101TIP3   OH278793   1.567   5.790  11.157 -0.0219 -0.5201 -0.1055
19101TIP3    H178794   1.496   5.751  11.105 -0.7849  0.2144  0.3636
19101TIP3    H278795   1.636   5.723  11.157  0.1795 -0.4185 -2.3697
19102TIP3   OH278796   4.335   1.656  12.787  0.1498  0.6163 -0.1647
19102TIP3    H178797   4.298   1.589  12.844 -0.2539  0.2601 -0.8396
19102TIP3    H278798   4.412   1.688  12.834  0.6649 -0.6972 -0.0840
19103TIP3   OH278799   0.948   0.101   0.753 -0.0713  0.3802  1.7784
19103TIP3    H178800   0.876   0.103   0.689  1.3605 -3.4195 -0.2623
19103TIP3    H278801   1.006   0.171   0.726 -0.6105  0.2825  0.2821
19104TIP3   OH278802   2.499   6.723  12.109  0.4232 -0.2974  0.0634
19104TIP3    H178803   2.448   6.771  12.043  0.9129 -1.4708 -1.2257
19104TIP3    H278804   2.450   6.734  12.190 -0.3854  0.9158 -0.5600
19105TIP3   OH278805   2.195   6.094  12.762  0.5458  0.2569  0.0903
19105TIP3    H178806   2.291   6.101  12.757  0.8000 -2.3452 -0.1311
19105TIP3    H278807   2.176   6.102  12.855  1.2717 -1.4875  0.4282
19106TIP3   OH278808   0.724   2.658  13.822 -0.3694 -0.6457 -0.6817
19106TIP3    H178809   0.707   2.580  13.770 -1.3236 -0.6419 -0.3956
19106TIP3    H278810   0.698   2.731  13.764 -0.2048 -0.5794 -0.6723
19107TIP3   OH278811   0.116   5.532  12.769 -0.3931 -0.2492 -0.1238
19107TIP3    H178812   0.138   5.618  12.804  0.2190 -1.2052  2.0567
19107TIP3    H278813   0.025   5.517  12.797 -0.6990 -0.0666 -1.0181
19108TIP3   OH278814   1.226   4.635   1.923  0.1890 -0.3474  0.0076
19108TIP3    H178815   1.176   4.575   1.867 -1.0087 -1.2835  1.9922
19108TIP3    H278816   1.178   4.718   1.919  0.0288 -0.4505 -0.2070
19109TIP3   OH278817   0.335   4.206  12.458 -0.6922  0.0156 -0.5924
19109TIP3    H178818   0.279   4.185  12.533 -0.2734  2.2513  0.4323
19109TIP3    H278819   0.279   4.256  12.399 -0.5582 -0.2811 -0.9723
19110TIP3   OH278820   1.893   1.692  14.862  0.6141 -0.2997 -0.3373
19110TIP3    H178821   1.984   1.670  14.842  0.9855 -0.4535  1.4311
19110TIP3    H278822   1.885   1.679  14.956 -1.2706 -0.3638 -0.4761
19111TIP3   OH278823   0.306   2.716  13.966 -0.4753  0.2384  0.1167
19111TIP3    H178824   0.361   2.784  13.928 -1.9629  0.4004 -1.9324
19111TIP3    H278825   0.231   2.710  13.906 -2.2261 -0.6058  2.2610
19112TIP3   OH278826   4.637   1.503   5.689 -0.5412  0.4870 -0.3566
19112TIP3    H178827   4.555   1.455   5.700  0.6154 -1.2448  1.1882
19112TIP3    H278828   4.667   1.520   5.778  0.6202  1.4136 -0.9012
19113TIP3   OH278829   4.002   3.817  14.412 -0.2601 -0.0123 -0.2005
19113TIP3    H178830   3.966   3.889  14.361  0.2738  0.6684  0.3774
19113TIP3    H278831   3.991   3.740  14.355  0.9132  0.8332 -1.6241
19114TIP3   OH278832   5.651   4.797  16.757 -0.3771  0.0428 -0.0986
19114TIP3    H178833   5.739   4.828  16.774 -0.0243 -0.3572 -1.1323
19114TIP3    H278834   5.639   4.724  16.817  0.2659 -0.3513 -0.4366
19115TIP3   OH278835   4.762   1.440   2.308  0.1581 -0.4443  0.2971
19115TIP3    H178836   4.736   1.531   2.294  2.9876  0.6317  1.2286
19115TIP3    H278837   4.712   1.390   2.244 -2.1463  1.6171  0.3642
19116TIP3   OH278838   1.393   3.936   1.833  0.1193 -0.1353 -0.0355
19116TIP3    H178839   1.438   4.020   1.847  0.7304 -0.5816  0.7592
19116TIP3    H278840   1.462   3.877   1.802  0.2920 -1.0331  1.9073
19117TIP3   OH278841   3.900   5.085  16.437 -0.3711 -0.2976  0.3917
19117TIP3    H178842   3.899   5.090  16.532  0.2342  0.1138  0.3845
19117TIP3    H278843   3.993   5.075  16.414 -0.4754 -0.0588 -0.1647
19118TIP3   OH278844   4.746   4.255   3.119 -0.2084  0.0755  0.1697
19118TIP3    H178845   4.784   4.214   3.041  1.4602  0.9278  0.4814
19118TIP3    H278846   4.821   4.295   3.164 -1.2707  0.4466  1.7017
19119TIP3   OH278847   4.071   5.710  16.984  0.0048  0.2024 -0.2725
19119TIP3    H178848   4.138   5.739  17.046  0.3362  0.5620 -0.7792
19119TIP3    H278849   4.018   5.788  16.967 -0.6776 -0.1304  0.2788
19120TIP3   OH278850   5.084   3.114   3.740 -0.2656  0.0008 -0.0603
19120TIP3    H178851   5.053   3.188   3.687 -2.2996  0.0075  1.0281
19120TIP3    H278852   5.028   3.041   3.713  0.8490 -0.8249 -0.1890
19121TIP3   OH278853   4.620   5.429   1.324  0.1234 -0.0259  0.3403
19121TIP3    H178854   4.600   5.358   1.262  0.0910  0.9796 -0.8365
19121TIP3    H278855   4.589   5.508   1.281 -0.0696  0.6994  1.7435
19122TIP3   OH278856   3.032   1.683  14.240 -0.2874  0.2173 -0.3274
19122TIP3    H178857   3.072   1.640  14.165  1.7178  0.0251  0.7793
19122TIP3    H278858   2.974   1.617  14.278  0.8138 -0.6686 -0.1311
19123TIP3   OH278859   0.595   5.496   0.401 -0.1593 -0.1384  0.0897
19123TIP3    H178860   0.537   5.564   0.370  0.9156  0.5954 -0.3822
19123TIP3    H278861   0.631   5.456   0.322  1.0983  0.4323  0.3334
19124TIP3   OH278862   5.693   6.707  14.317  0.2820  0.2555  0.1523
19124TIP3    H178863   5.691   6.799  14.290  1.1491 -0.2578 -1.9164
19124TIP3    H278864   5.781   6.694  14.352  0.1913  0.1928  0.3559
19125TIP3   OH278865   2.109   3.355  13.483  0.0783  0.3145  0.5628
19125TIP3    H178866   2.019   3.352  13.514 -0.4577 -0.0777 -0.9675
19125TIP3    H278867   2.137   3.445  13.500 -0.3843  0.2808  1.5764
19126TIP3   OH278868   5.418   2.225  15.504 -0.0673  0.5141  0.7048
19126TIP3    H178869   5.481   2.296  15.515 -0.2910  0.7207  0.6682
19126TIP3    H278870   5.469   2.152  15.471  0.1894  0.6173  0.8686
19127TIP3   OH278871   3.871   5.729   1.906  0.0610 -0.4213  0.1211
19127TIP3    H178872   3.788   5.699   1.943 -1.1669  3.1091  0.6642
19127TIP3    H278873   3.934   5.718   1.977 -0.4284 -1.1802  0.4528
19128TIP3   OH278874   2.131   0.864   6.071  0.2560 -0.2120  0.0104
19128TIP3    H178875   2.182   0.841   5.993  0.4576  1.0681 -0.2625
19128TIP3    H278876   2.196   0.899   6.132 -0.1077  0.1396  0.1951
19129TIP3   OH278877   4.426   4.895   0.393 -0.2482 -0.1313  0.2608
19129TIP3    H178878   4.396   4.805   0.407 -0.3493  0.0378  1.2151
19129TIP3    H278879   4.382   4.945   0.462  1.1014  0.3685  0.7721
19130TIP3   OH278880   3.713   1.437  14.998 -0.1107  0.4577 -0.1656
19130TIP3    H178881   3.687   1.499  15.066 -0.4964 -1.2116  1.2830
19130TIP3    H278882   3.633   1.419  14.949 -0.7513 -1.1262  1.3430
19131TIP3   OH278883   2.182   3.518   3.406  0.2609 -0.6547  0.3592
19131TIP3    H178884   2.201   3.579   3.477  0.4488 -2.9294  2.3760
19131TIP3    H278885   2.242   3.445   3.420  0.4396 -1.1166 -2.3081
19132TIP3   OH278886   1.434   4.560  14.178  0.1916  0.7465  0.3571
19132TIP3    H178887   1.371   4.597  14.116  2.1153  0.2452 -2.0972
19132TIP3    H278888   1.447   4.470  14.146  3.1761  1.2887 -0.2019
19133TIP3   OH278889   3.379   1.031  13.716  0.0303 -0.1975  0.1439
19133TIP3    H178890   3.284   1.033  13.704 -0.0951 -0.8773  0.9173
19133TIP3    H278891   3.395   1.092  13.788  0.1534 -0.2298  0.1436
19134TIP3   OH278892   5.536   2.711  16.508  0.2313  0.6889 -0.3006
19134TIP3    H178893   5.603   2.780  16.508  0.4219  0.5080 -0.1381
19134TIP3    H278894   5.547   2.666  16.425 -0.6264  1.5478 -0.8962
19135TIP3   OH278895   0.719   3.902  15.427 -0.3610 -0.2369 -0.0310
19135TIP3    H178896   0.751   3.851  15.502 -2.4154 -2.3489 -0.5009
19135TIP3    H278897   0.713   3.991  15.461 -1.2901 -1.1233  2.4053
19136TIP3   OH278898   2.984   0.277  11.469  0.2736  0.7275  0.3216
19136TIP3    H178899   2.944   0.268  11.556  0.2568 -0.3711  0.2162
19136TIP3    H278900   2.910   0.293  11.411  0.0379 -0.6232  0.2244
19137TIP3   OH278901   5.390   5.418  12.866 -0.7268  0.7575 -0.3774
19137TIP3    H178902   5.462   5.474  12.894 -1.9815  1.7897  0.9643
19137TIP3    H278903   5.416   5.388  12.779  1.4543  0.7918  0.2051
19138TIP3   OH278904   0.671   4.826   0.863  0.2818  0.1642  0.2901
19138TIP3    H178905   0.729   4.751   0.850 -2.3997 -1.9503 -0.3811
19138TIP3    H278906   0.639   4.817   0.953 -1.2274 -0.4504 -0.2787
19139TIP3   OH278907   2.283   3.533  14.900 -0.1829  0.1512  0.0538
19139TIP3    H178908   2.218   3.596  14.931 -1.0505 -1.0190  0.6874
19139TIP3    H278909   2.244   3.493  14.822  0.9979  1.4145 -1.2385
19140TIP3   OH278910   2.609   1.890  13.702 -0.1952  0.3272  0.8021
19140TIP3    H178911   2.597   1.977  13.666  2.0653 -0.4273 -2.2775
19140TIP3    H278912   2.704   1.883  13.716 -0.1658 -1.8948 -0.0216
19141TIP3   OH278913   3.433   3.509  13.988  0.5874 -0.3609  0.1346
19141TIP3    H178914   3.480   3.572  13.933  0.9184  2.1363  2.9806
19141TIP3    H278915   3.495   3.439  14.004  1.8123  0.7245  0.2835
19142TIP3   OH278916   4.965   5.703  15.255  0.3420 -0.2910  0.1634
19142TIP3    H178917   4.911   5.627  15.278  2.7663 -2.0040  0.5549
19142TIP3    H278918   5.005   5.679  15.171  1.6706  0.2691  0.6238
19143TIP3   OH278919   5.537   5.079   6.389  0.2978 -0.0816 -1.0387
19143TIP3    H178920   5.529   5.085   6.294 -1.2817  0.5071 -0.9023
19143TIP3    H278921   5.447   5.080   6.421  0.8009 -0.2134  0.4775
19144TIP3   OH278922   6.724   6.718  13.661  0.2786 -0.4505 -0.2656
19144TIP3    H178923   6.699   6.783  13.727  1.3237 -0.0536 -0.2426
19144TIP3    H278924   6.795   6.669  13.702  1.8015  0.6167 -1.5301
19145TIP3   OH278925   0.960   0.670  16.712  0.0047  0.2885  0.4608
19145TIP3    H178926   1.007   0.599  16.756 -0.0449 -1.1692 -1.6852
19145TIP3    H278927   1.028   0.735  16.693 -0.0211  1.1088  2.8191
19146TIP3   OH278928   2.879   1.331   2.930 -0.0961  0.6176  0.3590
19146TIP3    H178929   2.890   1.372   2.843 -2.6607  0.3575 -0.1454
19146TIP3    H278930   2.895   1.238   2.914 -0.9403  0.5157  0.0623
19147TIP3   OH278931   4.869   4.187  15.184 -0.2090  0.7042 -0.3295
19147TIP3    H178932   4.960   4.205  15.207 -0.2464  0.8119 -0.2641
19147TIP3    H278933   4.874   4.116  15.119 -0.0827  0.6634 -0.2762
19148TIP3   OH278934   0.814   5.807  12.840 -0.8263 -0.1577 -0.3278
19148TIP3    H178935   0.860   5.809  12.924 -0.3877  1.2469 -0.5775
19148TIP3    H278936   0.740   5.747  12.854 -1.6051  1.1417  1.5077
19149TIP3   OH278937   3.354   0.658   4.332  1.1465  0.1789 -0.6929
19149TIP3    H178938   3.389   0.629   4.248  0.6200 -1.6656 -0.3186
19149TIP3    H278939   3.259   0.652   4.322  1.0088  1.5802 -0.4882
19150TIP3   OH278940   6.334   0.005   6.098 -0.3828  0.1602 -0.1097
19150TIP3    H178941   6.301  -0.009   6.009  2.7399  1.3728 -1.6010
19150TIP3    H278942   6.412  -0.051   6.104 -0.9082 -0.4483  2.1737
19151TIP3   OH278943   4.380   0.615   4.527  0.1025 -0.2746  0.6541
19151TIP3    H178944   4.460   0.662   4.549  1.6240 -1.3846 -2.1134
19151TIP3    H278945   4.367   0.631   4.434 -1.4478 -2.2201  0.4737
19152TIP3   OH278946   2.965   4.614  13.300  0.1245 -0.2781  0.3213
19152TIP3    H178947   2.958   4.525  13.335 -0.0211 -0.6606 -0.6568
19152TIP3    H278948   2.874   4.642  13.289  0.1646 -0.3910 -0.3154
19153TIP3   OH278949   2.489   2.190  11.537 -0.2555 -0.2196  0.2006
19153TIP3    H178950   2.543   2.125  11.493  0.8040  0.3286  0.6442
19153TIP3    H278951   2.502   2.271  11.487  0.3095  0.2099  1.0220
19154TIP3   OH278952   2.268   6.705   3.685  0.5277 -0.6913 -0.1172
19154TIP3    H178953   2.175   6.687   3.673  0.0062  0.9084  1.1738
19154TIP3    H278954   2.311   6.663   3.611 -1.2614 -1.1021 -0.9587
19155TIP3   OH278955   3.961   3.154  15.998  0.2670  0.0026  0.2840
19155TIP3    H178956   4.000   3.174  15.913  1.1376  2.1151  1.1192
19155TIP3    H278957   3.869   3.135  15.979 -0.1677  2.8608 -0.9507
19156TIP3   OH278958   5.375   4.134   4.248 -0.6296  0.1095 -0.1726
19156TIP3    H178959   5.453   4.188   4.236 -0.1311 -0.5953 -0.1933
19156TIP3    H278960   5.409   4.050   4.278 -1.5148  0.3819  1.7341
19157TIP3   OH278961   3.478   1.962  16.780 -0.5600 -0.2706  0.5555
19157TIP3    H178962   3.410   1.899  16.757 -1.4511  1.1109 -0.7895
19157TIP3    H278963   3.433   2.046  16.784  1.0401  0.6928 -0.4032
19158TIP3   OH278964   0.587   1.027  13.126 -0.6560  0.5797  0.0252
19158TIP3    H178965   0.518   1.076  13.081  1.1673  0.7152 -2.8774
19158TIP3    H278966   0.631   1.093  13.181 -0.6250  1.3153 -0.8618
19159TIP3   OH278967   5.992   0.298  17.015  0.0279  0.0131  0.0492
19159TIP3    H178968   5.904   0.299  17.052 -0.1698 -0.1542 -0.4096
19159TIP3    H278969   6.019   0.207  17.018 -0.2550 -0.1081 -0.8257
19160TIP3   OH278970   5.952   3.327   2.205  0.5890 -0.1154  0.1641
19160TIP3    H178971   6.014   3.350   2.136  0.8651 -0.2874  0.3567
19160TIP3    H278972   5.902   3.408   2.220 -1.0208 -0.6432 -1.8154
19161TIP3   OH278973   2.584   1.212   5.783  0.3206 -0.2933  0.3279
19161TIP3    H178974   2.497   1.210   5.823  0.1336 -1.3622 -0.1022
19161TIP3    H278975   2.630   1.282   5.829 -1.1558  1.1370 -0.2749
19162TIP3   OH278976   0.610   1.159   2.996 -0.5657  0.6070 -0.4561
19162TIP3    H178977   0.704   1.177   2.996 -0.4225  0.2327  2.1263
19162TIP3    H278978   0.603   1.064   2.995 -0.9731  0.6307 -1.3275
19163TIP3   OH278979   0.582   5.080   4.515 -0.1845  0.0772  0.1371
19163TIP3    H178980   0.591   5.114   4.426 -4.2179 -0.0577 -0.5309
19163TIP3    H278981   0.586   4.985   4.505 -0.2518  0.0737  0.1409
19164TIP3   OH278982   6.497   5.539   3.751  0.4446  0.1189  0.3539
19164TIP3    H178983   6.403   5.523   3.763  0.1807  1.7389  0.6741
19164TIP3    H278984   6.531   5.551   3.840  1.1931 -1.5111  0.3249
19165TIP3   OH278985   4.885   2.304   1.268  0.1933  0.6194 -0.4471
19165TIP3    H178986   4.862   2.217   1.300 -0.9395  0.8957 -0.4614
19165TIP3    H278987   4.895   2.292   1.173 -2.1170  0.8801 -0.7920
19166TIP3   OH278988   0.396   4.764  13.452 -0.2365 -0.0156 -0.3995
19166TIP3    H178989   0.477   4.714  13.454  0.1548  0.6196  0.7186
19166TIP3    H278990   0.424   4.854  13.470 -1.1593  0.2549 -0.2915
19167TIP3   OH278991   0.126   3.486   1.125 -0.2995 -0.0514  0.2857
19167TIP3    H178992   0.182   3.532   1.063 -1.6768  0.9886 -0.2128
19167TIP3    H278993   0.154   3.519   1.211  1.0353 -0.8757  0.2077
19168TIP3   OH278994   5.209   1.890   4.005 -0.1430  0.5259 -0.2790
19168TIP3    H178995   5.193   1.922   4.094 -2.3362  0.4952 -0.6198
19168TIP3    H278996   5.250   1.963   3.960  0.8742  0.5862  0.6980
19169TIP3   OH278997   1.280   0.600   1.938  0.2120  0.8073  0.0249
19169TIP3    H178998   1.226   0.534   1.981  1.8648 -0.1070  0.8245
19169TIP3    H278999   1.293   0.668   2.005  1.8167 -0.0507  0.6485
19170TIP3   OH279000   6.361   6.566  15.157 -0.8103 -0.2030  0.6794
19170TIP3    H179001   6.392   6.530  15.073  0.1229  2.5668 -0.2932
19170TIP3    H279002   6.331   6.654  15.135  0.2006  0.9104  3.3709
19171TIP3   OH279003   6.402   3.560   5.570 -0.0394 -0.0468  0.5083
19171TIP3    H179004   6.319   3.538   5.614  0.0921  0.0225  0.7956
19171TIP3    H279005   6.387   3.537   5.479 -0.3078 -0.2244  0.5934
19172TIP3   OH279006   3.244   5.468  16.655  0.2494  0.4078  0.3198
19172TIP3    H179007   3.177   5.443  16.719 -0.0897 -0.0369 -0.1962
19172TIP3    H279008   3.245   5.395  16.593  2.4986 -0.4973  1.2984
19173TIP3   OH279009   2.481   4.790  14.241 -1.1618  0.1447 -0.3679
19173TIP3    H179010   2.541   4.750  14.177  0.0538  1.3346 -0.0180
19173TIP3    H279011   2.436   4.858  14.191 -1.1855  0.1930 -0.2800
19174TIP3   OH279012   5.399   1.019   3.439 -0.3414 -0.3176 -0.0142
19174TIP3    H179013   5.427   0.931   3.414  0.2972 -0.2163  0.3503
19174TIP3    H279014   5.306   1.021   3.416 -0.5266 -1.3080  0.5745
19175TIP3   OH279015   4.687   0.999  15.833 -0.1335  0.9668 -0.9758
19175TIP3    H179016   4.748   1.032  15.899  0.4089 -1.5897 -0.0895
19175TIP3    H279017   4.732   1.013  15.749  0.9986  0.5703 -0.4513
19176TIP3   OH279018   5.446   5.150   3.728  0.2932  0.5696  0.5399
19176TIP3    H179019   5.522   5.137   3.785  1.2347 -1.9445 -1.1152
19176TIP3    H279020   5.398   5.068   3.734  0.5010  0.1720 -2.3116
19177TIP3   OH279021   3.620   0.277   1.647  0.0430 -0.2100 -0.4101
19177TIP3    H179022   3.572   0.313   1.572  0.9417 -2.0628 -1.9569
19177TIP3    H279023   3.629   0.184   1.627  1.4156 -0.5190  1.4127
19178TIP3   OH279024   0.350   6.610   1.214  0.7742  0.0174  0.1414
19178TIP3    H179025   0.296   6.548   1.164  0.9886  0.7511 -1.0273
19178TIP3    H279026   0.337   6.584   1.306 -1.9626  0.4556 -0.0298
19179TIP3   OH279027   6.558   5.685  11.242  0.3815  0.0869  0.4932
19179TIP3    H179028   6.520   5.651  11.161 -0.2122 -0.2780  0.9177
19179TIP3    H279029   6.508   5.642  11.312  1.0764  0.1724  1.0575
19180TIP3   OH279030   5.038   1.366   2.897  0.6465 -0.2216 -0.2179
19180TIP3    H179031   4.955   1.360   2.849  0.0470  1.0061  0.6133
19180TIP3    H279032   5.075   1.450   2.871  2.1148 -1.1418 -1.2741
19181TIP3   OH279033   0.081   4.755   2.506 -0.1209  0.2733  0.7007
19181TIP3    H179034  -0.002   4.732   2.465  0.5200 -0.4050 -0.2680
19181TIP3    H279035   0.147   4.726   2.443  0.8163  2.4351  0.6032
19182TIP3   OH279036   2.961   4.672  11.461 -0.4160 -0.3788 -0.2330
19182TIP3    H179037   3.051   4.651  11.436 -0.0377  0.8651  0.0608
19182TIP3    H279038   2.954   4.642  11.552  0.0452  0.4991  0.1013
19183TIP3   OH279039   4.916   5.887   2.484 -0.3289  0.4995 -0.2265
19183TIP3    H179040   4.972   5.965   2.490  1.3296 -0.6901  0.5220
19183TIP3    H279041   4.874   5.894   2.399  2.5270  0.4797 -1.7747
19184TIP3   OH279042   4.864   6.075  15.370  0.1295 -0.0820  0.4197
19184TIP3    H179043   4.879   5.991  15.413  1.6900  0.8558  1.8027
19184TIP3    H279044   4.875   6.057  15.277  4.1332 -0.7967  0.8619
19185TIP3   OH279045   1.724   4.222   6.060 -0.0712  0.5408 -0.2085
19185TIP3    H179046   1.655   4.160   6.081  0.5713  0.1173  0.7303
19185TIP3    H279047   1.724   4.285   6.132 -0.6455  1.5929 -1.0933
19186TIP3   OH279048   4.161   4.503   1.472  0.4460  0.3147  0.3444
19186TIP3    H179049   4.129   4.590   1.448  1.1079  0.7769  1.0996
19186TIP3    H279050   4.146   4.496   1.566  0.3070 -0.4334  0.2785
19187TIP3   OH279051   2.961   5.175   4.889 -0.6262  0.1004 -0.0740
19187TIP3    H179052   2.969   5.265   4.921  1.4559 -0.1627  0.2942
19187TIP3    H279053   2.991   5.121   4.962 -0.7716 -0.8259 -0.6850
19188TIP3   OH279054   0.695   6.129   4.003  0.7833  0.0239  0.0210
19188TIP3    H179055   0.662   6.045   4.035  0.0940  0.3111  0.0948
19188TIP3    H279056   0.696   6.185   4.080  1.4817  0.0126  0.0216
19189TIP3   OH279057   0.261   2.585  17.054  0.2915 -0.1649  0.2876
19189TIP3    H179058   0.191   2.553  17.111  1.4788  0.6514  2.3133
19189TIP3    H279059   0.227   2.666  17.017 -0.2703 -0.3708  0.3467
19190TIP3   OH279060   4.572   2.788  13.310  0.5879  0.0565 -0.3923
19190TIP3    H179061   4.486   2.830  13.321  1.8319  2.6678  0.2288
19190TIP3    H279062   4.610   2.789  13.398  0.7043 -2.4887 -0.3589
19191TIP3   OH279063   6.474   0.025  10.816 -0.6205  0.0429 -0.3100
19191TIP3    H179064   6.559   0.063  10.792 -0.7995  1.0647  0.5699
19191TIP3    H279065   6.495  -0.052  10.868 -0.1276  1.5849  1.9725
19192TIP3   OH279066   1.246   2.287   1.186 -0.0547  0.5518  0.1925
19192TIP3    H179067   1.284   2.228   1.252  0.0053  0.8492  0.4232
19192TIP3    H279068   1.218   2.364   1.236 -1.0442  0.3056  0.0466
19193TIP3   OH279069   5.304   4.556  16.651 -0.7395 -0.2518  0.2310
19193TIP3    H179070   5.276   4.472  16.687  1.8736 -0.1747  2.7959
19193TIP3    H279071   5.261   4.622  16.707 -1.0880  0.0979 -0.4286
19194TIP3   OH279072   0.117   3.396   3.864 -0.1391  0.1049  0.1157
19194TIP3    H179073   0.209   3.408   3.885 -0.7095  1.8321  1.8781
19194TIP3    H279074   0.098   3.464   3.799 -0.1733 -0.2927 -0.2983
19195TIP3   OH279075   4.112   0.707   1.496 -0.0986  0.3157  0.0463
19195TIP3    H179076   4.057   0.768   1.446 -0.7284 -1.3574 -1.4248
19195TIP3    H279077   4.051   0.662   1.553 -0.3707 -1.6399 -1.6815
19196TIP3   OH279078   4.595   3.215  10.412 -0.4564  0.0030 -1.0865
19196TIP3    H179079   4.536   3.178  10.478 -0.0137  0.4530 -0.4294
19196TIP3    H279080   4.537   3.237  10.338 -0.9501 -0.5223 -0.8610
19197TIP3   OH279081   4.060   5.415  12.791  0.1288 -0.5618  0.1778
19197TIP3    H179082   4.017   5.453  12.715 -0.0334 -1.5621 -0.2463
19197TIP3    H279083   4.138   5.469  12.804 -0.1727 -0.0022 -0.3140
19198TIP3   OH279084   2.305   3.931  11.945 -0.0170  0.2129 -0.4414
19198TIP3    H179085   2.382   3.876  11.956 -0.1730  0.0354 -0.2381
19198TIP3    H279086   2.231   3.874  11.967 -0.4367 -0.4641 -3.1848
19199TIP3   OH279087   5.791   5.354   3.834  0.0960  0.0424  0.5115
19199TIP3    H179088   5.775   5.288   3.902  0.5664 -1.1572 -0.5115
19199TIP3    H279089   5.709   5.404   3.830 -0.3040 -0.5307  1.2384
19200TIP3   OH279090   0.420   2.193   5.711  0.1253 -0.1042 -0.1172
19200TIP3    H179091   0.411   2.275   5.760 -1.4203 -0.1374 -0.2935
19200TIP3    H279092   0.441   2.127   5.778 -0.7151  0.0785  0.3421
19201TIP3   OH279093   3.254   0.486   5.197 -0.1351 -0.3521  0.3919
19201TIP3    H179094   3.343   0.486   5.231 -0.7055 -0.4376  2.0159
19201TIP3    H279095   3.233   0.393   5.185  0.2853 -0.2956 -0.8546
19202TIP3   OH279096   2.530   0.398   2.646  0.5397  0.3347  0.4166
19202TIP3    H179097   2.474   0.369   2.719  1.6094  2.2188  2.1021
19202TIP3    H279098   2.549   0.318   2.597 -0.5814 -0.9427  1.9501
19203TIP3   OH279099   3.604   2.633  15.334 -0.4276  0.0330  0.1651
19203TIP3    H179100   3.532   2.591  15.288  1.0512 -0.7136 -1.5728
19203TIP3    H279101   3.648   2.687  15.268  1.3619 -0.5481  0.7972
19204TIP3   OH279102   1.803   2.182   5.349  0.4764 -0.2823 -0.3428
19204TIP3    H179103   1.794   2.087   5.357  1.0194 -0.2643  0.6076
19204TIP3    H279104   1.883   2.194   5.298  0.0750 -0.3341 -0.9957
19205TIP3   OH279105   2.085   4.354   4.983  0.0150  0.0848 -0.4808
19205TIP3    H179106   2.049   4.279   4.935  0.2793  0.3938 -1.1807
19205TIP3    H279107   2.055   4.342   5.073  0.0390 -0.8523 -0.5847
19206TIP3   OH279108   4.715   4.098   4.646 -0.0029  0.1100 -0.1948
19206TIP3    H179109   4.673   4.052   4.719  0.4046 -0.2615 -0.1899
19206TIP3    H279110   4.642   4.137   4.597 -0.5061 -1.6190 -0.9338
19207TIP3   OH279111   3.244   1.331   1.420  0.1277 -0.1176  0.4794
19207TIP3    H179112   3.318   1.360   1.368  0.6559  0.1425  1.3482
19207TIP3    H279113   3.283   1.282   1.493 -0.5102  0.4146  1.2065
19208TIP3   OH279114   2.206   0.628  13.112  0.3297 -0.0246 -0.0174
19208TIP3    H179115   2.288   0.637  13.064  1.0384 -4.2821 -0.0701
19208TIP3    H279116   2.142   0.604  13.044 -0.7925  2.2853  0.1559
19209TIP3   OH279117   5.743   2.609  12.348  0.3424 -0.1576  0.0896
19209TIP3    H179118   5.747   2.579  12.257  0.7473 -2.5131  0.8415
19209TIP3    H279119   5.664   2.663  12.351 -0.9046 -1.7965 -1.1792
19210TIP3   OH279120   0.808   4.017   0.346 -0.0314  0.7561  0.6338
19210TIP3    H179121   0.821   3.972   0.263  1.3580  0.8005  0.8001
19210TIP3    H279122   0.876   4.084   0.348 -1.0766  1.8406  1.0867
19211TIP3   OH279123   3.998   6.278  16.674  0.1891  0.2852  0.3031
19211TIP3    H179124   3.964   6.309  16.758  0.8629 -0.5351  0.8876
19211TIP3    H279125   3.970   6.345  16.611 -3.7324 -0.9300  0.4567
19212TIP3   OH279126   2.123   0.473  13.761 -0.5461 -0.5648 -0.3011
19212TIP3    H179127   2.186   0.542  13.736  0.0561 -0.5697  1.1236
19212TIP3    H279128   2.169   0.422  13.828 -1.0438 -2.2872 -1.2124
19213TIP3   OH279129   5.708   3.610  16.910 -0.3485  0.1837 -0.3915
19213TIP3    H179130   5.772   3.592  16.841  0.6399 -1.0077  0.7630
19213TIP3    H279131   5.637   3.548  16.894 -0.3818  0.2858 -0.6458
19214TIP3   OH279132   0.683   6.362  11.106  0.2170 -0.6904 -0.0832
19214TIP3    H179133   0.707   6.284  11.156  1.1421 -0.3407  0.0548
19214TIP3    H279134   0.634   6.329  11.031 -0.4724 -1.2917  0.6205
19215TIP3   OH279135   1.753   1.806  15.450  0.0960 -0.7530  0.1566
19215TIP3    H179136   1.665   1.840  15.434 -0.3778 -1.3625  1.3621
19215TIP3    H279137   1.796   1.809  15.364 -0.5167  1.1369 -0.1422
19216TIP3   OH279138   5.728   0.749  12.778 -0.6491  0.0103 -0.0542
19216TIP3    H179139   5.758   0.796  12.856 -0.9126  0.3203 -0.1413
19216TIP3    H279140   5.730   0.814  12.708  1.5467 -0.7482 -0.7835
19217TIP3   OH279141   3.530   2.494  11.969 -0.2807  0.2679 -0.8320
19217TIP3    H179142   3.533   2.518  11.876 -0.8672  0.4237 -0.8157
19217TIP3    H279143   3.617   2.515  12.002  0.1506 -0.4095 -1.4965
19218TIP3   OH279144   1.956   3.890  16.049 -0.0988 -0.8454 -0.4662
19218TIP3    H179145   2.036   3.844  16.074  0.2100 -0.4770 -0.7464
19218TIP3    H279146   1.937   3.947  16.123  0.8920  0.3461 -1.0831
19219TIP3   OH279147   5.436   3.899  15.576 -0.1524  0.3565  0.2583
19219TIP3    H179148   5.478   3.823  15.618  0.4246  1.0503  0.9677
19219TIP3    H279149   5.459   3.891  15.484  1.1363  0.4369  0.5537
19220TIP3   OH279150   6.323   4.084  16.950  0.1649 -0.1529  0.3684
19220TIP3    H179151   6.268   4.017  16.991  0.5894 -0.0316  1.1633
19220TIP3    H279152   6.375   4.120  17.022  0.7286  0.2744 -0.2340
19221TIP3   OH279153   4.277   1.311  13.537  0.1565 -0.2184  0.2280
19221TIP3    H179154   4.198   1.262  13.516 -0.4939  1.0381 -0.3331
19221TIP3    H279155   4.270   1.392  13.486  0.9683  0.6674  1.4620
19222TIP3   OH279156   5.143   6.765   3.235 -0.0377 -0.1169 -0.4282
19222TIP3    H179157   5.049   6.751   3.241 -0.0201 -0.4104 -0.8347
19222TIP3    H279158   5.152   6.847   3.187 -0.0833 -0.1530 -0.4982
19223TIP3   OH279159   3.843   3.003  15.679  0.3771  0.0505  0.1466
19223TIP3    H179160   3.912   3.034  15.619  1.7409  0.2193  1.7343
19223TIP3    H279161   3.795   3.082  15.703 -0.4310 -0.0706 -0.9882
19224TIP3   OH279162   0.972   1.730   0.636 -0.5962 -0.4954  0.0775
19224TIP3    H179163   1.040   1.695   0.695  0.0283 -0.3610 -0.5483
19224TIP3    H279164   0.944   1.811   0.679 -2.1716 -1.7794  1.6212
19225TIP3   OH279165   0.226   5.456  14.315 -0.1929  0.7897 -0.2345
19225TIP3    H179166   0.204   5.517  14.244  0.8311  0.5775 -0.7529
19225TIP3    H279167   0.275   5.510  14.378  1.0150  0.4396 -0.8589
19226TIP3   OH279168   0.045   2.736  17.235  0.4282  0.8712 -0.5949
19226TIP3    H179169   0.118   2.693  17.279  0.3705  0.0821 -1.2524
19226TIP3    H279170   0.072   2.742  17.143  1.1149  3.7072 -0.2840
19227TIP3   OH279171   5.862   5.647   5.925 -0.0342  0.2391 -0.0742
19227TIP3    H179172   5.916   5.690   5.859  0.0351  0.7305  0.2958
19227TIP3    H279173   5.774   5.683   5.911  0.1384  0.9659  0.6143
19228TIP3   OH279174   5.408   0.522  11.674  0.3517  0.1845 -0.1787
19228TIP3    H179175   5.398   0.615  11.655 -1.8910  0.3247  1.3381
19228TIP3    H279176   5.449   0.486  11.595  0.6886  2.3233 -1.0532
19229TIP3   OH279177   6.098   4.561  11.373  0.1367  0.0397  0.6833
19229TIP3    H179178   6.179   4.600  11.405 -0.4555  0.4055  1.8028
19229TIP3    H279179   6.062   4.516  11.449 -2.0466  2.1234  0.9803
19230TIP3   OH279180   3.442   1.274   5.654  0.2130 -0.5283  0.0447
19230TIP3    H179181   3.385   1.211   5.698  0.4640  0.1475  1.3857
19230TIP3    H279182   3.528   1.230   5.651  0.2786 -0.4368  0.5594
19231TIP3   OH279183   5.017   3.470  10.386  0.5103  0.3798  0.3918
19231TIP3    H179184   4.955   3.412  10.344 -0.1371  0.7456  0.8247
19231TIP3    H279185   5.086   3.412  10.418  0.4007 -0.0268 -0.0945
19232TIP3   OH279186   1.603   1.900  13.003  0.0777 -0.0547  0.1720
19232TIP3    H179187   1.669   1.870  12.940 -0.3084 -0.8687  0.1551
19232TIP3    H279188   1.585   1.991  12.977 -0.1109 -0.3953 -0.9205
19233TIP3   OH279189   3.060   5.018  14.777 -0.6149  0.4962 -0.6471
19233TIP3    H179190   3.124   4.948  14.766 -1.3358 -0.7544  2.2292
19233TIP3    H279191   3.112   5.098  14.777  1.2388 -0.5251  2.4314
19234TIP3   OH279192   4.871   0.610   1.959  0.1468  0.6768 -0.4447
19234TIP3    H179193   4.914   0.672   2.018  0.9310  0.8180 -1.1383
19234TIP3    H279194   4.936   0.594   1.891  0.0312 -1.0549 -0.1907
19235TIP3   OH279195   4.868   4.370   1.811 -0.5428 -0.1703 -0.4112
19235TIP3    H179196   4.791   4.395   1.862 -0.0672 -1.2452  0.9068
19235TIP3    H279197   4.938   4.361   1.876  0.7478  0.9088 -1.5918
19236TIP3   OH279198   3.182   1.760  10.858  0.2136  0.1905 -0.3846
19236TIP3    H179199   3.266   1.751  10.904  0.8919  0.7684 -1.4622
19236TIP3    H279200   3.198   1.828  10.793 -1.3533  0.8817 -0.0726
19237TIP3   OH279201   5.244   5.544   1.982 -0.2875 -0.0857 -0.7769
19237TIP3    H179202   5.284   5.514   2.063 -0.5010 -0.2059 -0.7141
19237TIP3    H279203   5.259   5.473   1.920  1.1553  0.6104 -1.2670
19238TIP3   OH279204   1.534   1.191  16.187 -1.0160  0.1358 -0.2071
19238TIP3    H179205   1.603   1.253  16.210 -0.8915 -0.4895  1.2061
19238TIP3    H279206   1.457   1.245  16.171 -0.0221  0.9392 -2.8395
19239TIP3   OH279207   5.765   0.969  11.169 -0.1994  0.0646  0.9428
19239TIP3    H179208   5.712   1.034  11.216  0.4118  0.7499  0.7025
19239TIP3    H279209   5.816   0.927  11.238  0.8664  1.2297  0.8884
19240TIP3   OH279210   1.791   6.336   0.528 -0.1248 -0.2564  0.2732
19240TIP3    H179211   1.776   6.390   0.450 -1.2690 -1.3525 -0.2862
19240TIP3    H279212   1.846   6.264   0.496 -0.0684 -0.3703  0.6303
19241TIP3   OH279213   0.871   0.759   1.028  0.4466  0.0314 -0.2856
19241TIP3    H179214   0.810   0.811   1.079 -0.8951 -1.0629 -0.7292
19241TIP3    H279215   0.899   0.689   1.087 -1.3022 -1.3849 -1.0469
19242TIP3   OH279216   5.184   5.848  11.867 -0.5467  0.1585  0.1452
19242TIP3    H179217   5.277   5.838  11.883 -0.3437 -0.3892 -1.2533
19242TIP3    H279218   5.143   5.780  11.921 -0.1310  0.2408  0.5742
19243TIP3   OH279219   6.564   3.190  16.010 -0.3843  0.6485  0.6013
19243TIP3    H179220   6.657   3.207  16.024 -1.0454  2.9116  2.8817
19243TIP3    H279221   6.550   3.210  15.917  1.0425  2.1440  0.6731
19244TIP3   OH279222   4.798   1.574  16.943  0.4518  0.3942  0.0194
19244TIP3    H179223   4.729   1.510  16.926  0.6523  0.1961 -0.0660
19244TIP3    H279224   4.787   1.598  17.035  1.1113 -0.6682  0.3980
19245TIP3   OH279225   0.382   4.269   4.803  0.1810  0.6206 -0.1338
19245TIP3    H179226   0.454   4.309   4.755  0.8648 -0.8649 -0.3690
19245TIP3    H279227   0.388   4.307   4.891  0.7984  1.0392 -0.3499
19246TIP3   OH279228   1.922   3.561   3.862  0.4621  0.1103  0.2678
19246TIP3    H179229   1.897   3.547   3.953 -0.8075 -0.8115 -0.1846
19246TIP3    H279230   1.854   3.618   3.826  0.9921  0.5269 -0.0935
19247TIP3   OH279231   2.239   3.106   3.115 -0.8522 -0.5865  0.3563
19247TIP3    H179232   2.333   3.090   3.127 -0.2829  0.6552 -1.8459
19247TIP3    H279233   2.200   3.084   3.200  1.3996 -1.2445  1.3054
19248TIP3   OH279234   3.292   2.012   3.196 -0.2092 -0.1862 -0.1987
19248TIP3    H179235   3.282   1.920   3.169 -1.1756  0.3837 -1.9324
19248TIP3    H279236   3.206   2.050   3.182 -0.0051  0.8482  1.1910
19249TIP3   OH279237   6.385   2.049   0.445  0.3785  0.1872  0.3002
19249TIP3    H179238   6.440   1.974   0.421  0.3221 -0.9575  3.2419
19249TIP3    H279239   6.447   2.120   0.460  0.9692 -0.6239  1.9639
19250TIP3   OH279240   4.181   4.669  12.380  0.4215  0.5234  0.8192
19250TIP3    H179241   4.275   4.656  12.373  0.3831  1.0202 -1.2540
19250TIP3    H279242   4.146   4.582  12.399  1.0316 -0.4955 -2.1803
19251TIP3   OH279243   0.274   2.871   2.662 -0.2825 -0.1883  0.3245
19251TIP3    H179244   0.260   2.795   2.605 -0.3354 -0.4859  0.7217
19251TIP3    H279245   0.354   2.911   2.629 -1.3849  0.8322 -1.2214
19252TIP3   OH279246   2.953   0.988  14.749  0.2670 -0.2987 -0.5483
19252TIP3    H179247   2.894   1.062  14.732 -2.8727 -2.1421  1.3542
19252TIP3    H279248   2.989   1.006  14.835 -1.7970 -1.5903  0.6774
19253TIP3   OH279249   2.237   4.822  11.313 -0.3439  0.1390  0.4144
19253TIP3    H179250   2.225   4.903  11.263 -1.2053 -1.0179 -1.3627
19253TIP3    H279251   2.189   4.837  11.394  0.5855  1.8544  0.7007
19254TIP3   OH279252   4.374   5.420  12.418  0.6791 -0.1754  0.2125
19254TIP3    H179253   4.310   5.491  12.426  1.4215  0.6482 -0.9384
19254TIP3    H279254   4.341   5.351  12.477 -1.0263  0.3872 -0.0375
19255TIP3   OH279255   5.193   0.586  15.617 -0.5641  0.2871  0.0474
19255TIP3    H179256   5.242   0.668  15.613 -0.9378  0.5091 -0.0786
19255TIP3    H279257   5.112   0.609  15.661 -0.0052 -0.3604  1.4599
19256TIP3   OH279258   6.443   2.575   2.320 -0.1313 -0.4959 -0.7028
19256TIP3    H179259   6.420   2.492   2.361  0.4234 -0.9355 -1.2685
19256TIP3    H279260   6.516   2.554   2.262  0.5096  0.5209 -0.2991
19257TIP3   OH279261   2.146   1.331  11.607  0.3561 -0.4402 -0.2730
19257TIP3    H179262   2.077   1.307  11.545  0.1879 -0.9400  0.1000
19257TIP3    H279263   2.141   1.264  11.675  1.0419 -0.3294 -0.1084
19258TIP3   OH279264   5.897   1.882   2.228 -0.6266  0.1398 -0.1404
19258TIP3    H179265   5.851   1.826   2.165 -1.1557  0.1571  0.2260
19258TIP3    H279266   5.828   1.927   2.275 -0.4481 -2.4741  2.9334
19259TIP3   OH279267   5.484   4.712   2.631 -0.5118  0.0701  0.1841
19259TIP3    H179268   5.408   4.737   2.684 -0.0835  1.5567  0.1385
19259TIP3    H279269   5.452   4.716   2.540 -0.5094  0.2599  0.1903
19260TIP3   OH279270   6.404   0.230   6.436  0.5281  0.1411  0.9240
19260TIP3    H179271   6.366   0.313   6.465 -0.3865 -0.1130  0.4977
19260TIP3    H279272   6.413   0.179   6.516  0.6456  0.4756  1.1269
19261TIP3   OH279273   3.825   0.060   5.046  0.4299 -0.2026  0.1972
19261TIP3    H179274   3.746   0.083   5.094  0.2696 -0.7573  0.2066
19261TIP3    H279275   3.850   0.140   5.001 -0.3218 -0.1116 -0.0649
19262TIP3   OH279276   5.324   4.852   4.375 -0.2671  0.0097 -0.0382
19262TIP3    H179277   5.393   4.917   4.390  0.9835 -1.1904 -0.4022
19262TIP3    H279278   5.318   4.845   4.280 -0.7230 -0.0807 -0.0034
19263TIP3   OH279279   5.948   3.843  12.144  0.0948  0.1805 -0.3661
19263TIP3    H179280   6.013   3.795  12.093  0.3752  3.0635 -3.0142
19263TIP3    H279281   5.865   3.801  12.122  0.7341 -2.5172  1.8083
19264TIP3   OH279282   1.227   3.272  10.757 -0.1991 -0.0306 -0.3661
19264TIP3    H179283   1.194   3.193  10.799 -0.9227  1.2780  1.6429
19264TIP3    H279284   1.290   3.240  10.692  0.9368 -2.2023  1.6432
19265TIP3   OH279285   0.615   2.833   3.470  0.2632  0.3685  0.0416
19265TIP3    H179286   0.537   2.777   3.478  1.5167 -1.4975 -0.1787
19265TIP3    H279287   0.685   2.783   3.512  1.3217  2.1272  0.4821
19266TIP3   OH279288   0.360   2.518   4.796  0.1353  0.3925  0.0521
19266TIP3    H179289   0.322   2.606   4.801 -2.5782 -0.6924  0.4523
19266TIP3    H279290   0.317   2.470   4.867 -2.1309 -2.4722 -2.9819
19267TIP3   OH279291   4.691   1.235  13.638 -0.1089 -0.0901  0.2401
19267TIP3    H179292   4.696   1.204  13.728 -0.2646 -0.6919  0.0464
19267TIP3    H279293   4.781   1.231  13.606 -0.2803 -1.4734 -0.1447
19268TIP3   OH279294   4.486   0.372   5.823 -0.2618  0.8658  0.2121
19268TIP3    H179295   4.468   0.452   5.772 -0.2925  0.7535  0.0428
19268TIP3    H279296   4.506   0.306   5.756  2.4959  1.3739  0.4358
19269TIP3   OH279297   2.699   3.556  13.227  0.0379 -0.4948 -0.9953
19269TIP3    H179298   2.651   3.494  13.283  0.4120  0.4347  0.4094
19269TIP3    H279299   2.783   3.514  13.212  0.0824 -0.5793 -0.5255
19270TIP3   OH279300   0.653   6.376  13.651 -0.0662 -0.6236  0.2268
19270TIP3    H179301   0.655   6.286  13.616  0.6914 -0.4763 -0.1173
19270TIP3    H279302   0.564   6.407  13.631 -0.6521 -1.6140  1.1803
19271TIP3   OH279303   4.462   6.139  17.244  0.5116  0.0676 -0.2870
19271TIP3    H179304   4.371   6.144  17.273  1.2425  0.4805  2.1487
19271TIP3    H279305   4.475   6.216  17.189 -0.2059  0.9024  0.6857
19272TIP3   OH279306   0.283   5.223  12.063 -0.3676  0.1497 -0.6725
19272TIP3    H179307   0.207   5.163  12.063 -0.9175  0.7914  1.1272
19272TIP3    H279308   0.317   5.217  11.974 -1.7985 -1.0898 -1.1931
19273TIP3   OH279309   4.781   1.373  12.260 -0.1574 -0.1813  0.7029
19273TIP3    H179310   4.771   1.463  12.292  1.0727  0.5676 -0.9106
19273TIP3    H279311   4.691   1.339  12.258 -0.8337  1.5224 -0.0833
19274TIP3   OH279312   3.577   1.818  11.217  0.2519 -0.1041  0.2616
19274TIP3    H179313   3.635   1.747  11.190 -1.7844 -1.2115 -1.4873
19274TIP3    H279314   3.594   1.888  11.154  0.2324 -0.1261  0.2318
19275TIP3   OH279315   3.980   6.385   0.198 -0.2473  0.6561 -0.7539
19275TIP3    H179316   4.026   6.404   0.281 -1.6372  1.6855 -0.1778
19275TIP3    H279317   4.050   6.375   0.134  1.0552 -2.8317  0.9705
19276TIP3   OH279318   4.548   6.155  14.231 -0.1332 -0.3989 -0.5282
19276TIP3    H179319   4.508   6.155  14.319  0.3638 -2.5509 -0.2481
19276TIP3    H279320   4.476   6.130  14.173 -0.0761 -0.6242 -0.5037
19277TIP3   OH279321   0.306   2.168   0.133 -0.0592  0.1543 -0.4667
19277TIP3    H179322   0.333   2.237   0.192 -1.1429 -0.6469  1.0488
19277TIP3    H279323   0.365   2.095   0.152  0.3763  0.2798 -1.2758
19278TIP3   OH279324   5.300   6.274  12.213  0.0461 -0.7232  0.2320
19278TIP3    H179325   5.234   6.344  12.218  1.2479  0.5444 -0.7904
19278TIP3    H279326   5.329   6.263  12.304  0.3989  0.7045  0.3232
19279TIP3   OH279327   5.142   2.965   1.369  0.4247 -0.4098 -0.0621
19279TIP3    H179328   5.134   3.023   1.445  0.0607  2.0125 -1.8306
19279TIP3    H279329   5.228   2.986   1.333 -0.1818 -0.1449 -1.3765
19280TIP3   OH279330   6.754   5.251  17.038 -0.5327 -0.1193  0.1371
19280TIP3    H179331   6.698   5.178  17.011 -1.0448  1.3163 -3.0584
19280TIP3    H279332   6.694   5.325  17.048  0.3627  0.6133  0.1759
19281TIP3   OH279333   0.551   1.211   4.063  0.6087 -0.0712 -0.0874
19281TIP3    H179334   0.607   1.246   4.132  0.7157 -1.5980  0.6393
19281TIP3    H279335   0.605   1.212   3.985  1.8395 -1.8664  0.6740
19282TIP3   OH279336   5.327   3.169   3.630  0.0694 -0.0661  0.1405
19282TIP3    H179337   5.415   3.141   3.654 -0.3898 -0.6763  1.1773
19282TIP3    H279338   5.274   3.152   3.708 -0.7078  1.5794  0.0110
19283TIP3   OH279339   1.173   4.176   2.825  0.2939  0.3012  0.9792
19283TIP3    H179340   1.200   4.084   2.829 -0.9077 -0.3090 -1.8861
19283TIP3    H279341   1.254   4.225   2.814  0.7883 -0.7063 -0.0364
19284TIP3   OH279342   4.175   1.688   3.361 -0.5462 -0.4384 -0.0994
19284TIP3    H179343   4.193   1.617   3.300  2.5994  0.4037 -0.3176
19284TIP3    H279344   4.179   1.647   3.448  2.2608 -0.5008 -0.1632
19285TIP3   OH279345   3.580   2.175  11.895 -0.2932 -0.1828 -0.1365
19285TIP3    H179346   3.493   2.205  11.871  0.0259 -1.5342 -3.5248
19285TIP3    H279347   3.603   2.226  11.973 -2.4729  3.1290 -1.4697
19286TIP3   OH279348   2.523   2.614   3.365 -0.0342  0.3945 -0.2723
19286TIP3    H179349   2.575   2.536   3.346  0.0721  0.6913 -1.2149
19286TIP3    H279350   2.516   2.615   3.461  4.0074  1.8370  0.1922
19287TIP3   OH279351   1.229   2.159  13.633  0.2471 -0.0357 -0.0108
19287TIP3    H179352   1.204   2.214  13.707 -2.1073 -0.2888 -0.5469
19287TIP3    H279353   1.320   2.135  13.652  0.2961  1.3377  1.8789
19288TIP3   OH279354   2.046   4.079   3.405  0.0319  0.1773 -0.4927
19288TIP3    H179355   2.050   4.011   3.337 -0.3294  0.3397 -0.6812
19288TIP3    H279356   2.063   4.033   3.487 -0.9758 -0.2803 -0.5261
19289TIP3   OH279357   4.363   1.123  10.863  0.3331  0.0689  0.0091
19289TIP3    H179358   4.441   1.178  10.870 -0.0750  0.6714 -0.1263
19289TIP3    H279359   4.299   1.176  10.816 -0.7698  0.2729  1.6533
19290TIP3   OH279360   6.609   3.941  14.033  0.1462 -0.2220  0.2608
19290TIP3    H179361   6.630   3.997  13.957 -1.0668  0.4489  0.4045
19290TIP3    H279362   6.658   3.860  14.016  1.4654  0.6404 -0.2510
19291TIP3   OH279363   6.298   3.677   5.127  0.1692  0.4554 -0.3070
19291TIP3    H179364   6.276   3.616   5.197 -2.2861 -0.6697 -1.9133
19291TIP3    H279365   6.359   3.739   5.167 -1.8224  0.4762  3.1079
19292TIP3   OH279366   2.103   5.486   3.776  0.4437 -0.7633  0.1633
19292TIP3    H179367   2.138   5.416   3.720  0.8307 -1.6891  1.5125
19292TIP3    H279368   2.039   5.530   3.721  1.3836 -1.1118 -1.2827
19293TIP3   OH279369   4.593   1.127  14.175  0.7058 -0.2745 -0.5575
19293TIP3    H179370   4.564   1.217  14.162 -0.0092 -0.4420 -0.1849
19293TIP3    H279371   4.641   1.129  14.258 -0.7539 -0.5410  0.3263
19294TIP3   OH279372   4.540   6.303  15.860  0.0688  0.7186  0.3054
19294TIP3    H179373   4.540   6.274  15.769  2.4201  1.8603 -0.1574
19294TIP3    H279374   4.616   6.260  15.898 -0.8622  0.2944  1.7495
19295TIP3   OH279375   0.187   4.831   3.303  0.8108 -0.4694  0.0856
19295TIP3    H179376   0.191   4.750   3.253 -3.3875 -0.8503 -0.0284
19295TIP3    H279377   0.164   4.898   3.238  3.8491  0.8754  0.2388
19296TIP3   OH279378   5.376   1.872  13.676  0.0542  0.3764  0.2856
19296TIP3    H179379   5.427   1.907  13.603 -1.3899  2.1542  0.0345
19296TIP3    H279380   5.333   1.795  13.640 -3.5593  3.1679 -2.1596
19297TIP3   OH279381   0.409   5.847  14.052 -0.4992  0.3599  0.5899
19297TIP3    H179382   0.375   5.814  13.969 -0.9544  0.5521  0.6967
19297TIP3    H279383   0.475   5.783  14.078  2.1287  1.9671 -1.5880
19298TIP3   OH279384   3.665   4.040   4.706 -0.4807  0.1634 -0.1715
19298TIP3    H179385   3.583   4.047   4.658  0.8785  0.5062 -2.6361
19298TIP3    H279386   3.718   3.979   4.654  1.0604  0.4447  0.9782
19299TIP3   OH279387   6.268   2.057   1.148  0.4608  0.7123 -0.5647
19299TIP3    H179388   6.280   2.117   1.222 -1.0177  0.6847 -0.2691
19299TIP3    H279389   6.249   1.972   1.189 -1.5007  0.9323 -0.9306
19300TIP3   OH279390   0.433   2.009  14.553 -0.0816  0.8737 -0.2482
19300TIP3    H179391   0.508   2.001  14.612  0.6089  0.7081 -1.1226
19300TIP3    H279392   0.359   2.030  14.610  0.5817  0.7926  0.6576
19301TIP3   OH279393   0.451   3.619   4.732  0.3994  0.4467 -0.4269
19301TIP3    H179394   0.452   3.702   4.685 -0.3341  0.4906 -0.3787
19301TIP3    H279395   0.363   3.585   4.719  0.0617  0.6205  1.1898
19302TIP3   OH279396   0.617   3.016  11.326 -0.4527  0.2744 -0.3473
19302TIP3    H179397   0.661   2.966  11.257 -2.1789  0.6109 -1.7925
19302TIP3    H279398   0.569   3.084  11.278 -1.0673  1.0286  1.2769
19303TIP3   OH279399   2.582   6.778   4.442 -0.1299 -0.5232 -0.1172
19303TIP3    H179400   2.576   6.739   4.529  1.1908 -0.3143  0.0968
19303TIP3    H279401   2.538   6.863   4.450  1.4097  0.2398  0.8513
19304TIP3   OH279402   4.084   4.355   5.545  0.7850  0.0301 -0.1085
19304TIP3    H179403   4.061   4.262   5.551  0.5686  0.1219  0.5128
19304TIP3    H279404   4.168   4.355   5.498  0.0228 -0.3716 -1.5292
19305TIP3   OH279405   2.454   4.726  16.053  0.5646  0.3499  0.2535
19305TIP3    H179406   2.396   4.800  16.069  1.0056  0.4086  1.6890
19305TIP3    H279407   2.414   4.653  16.100  0.7143 -0.0513 -0.2333
19306TIP3   OH279408   0.971   0.661   1.948 -0.3647 -0.2280 -0.4217
19306TIP3    H179409   1.045   0.704   1.990  0.3602 -0.0969 -1.7740
19306TIP3    H279410   0.999   0.648   1.857 -0.1848 -4.2374  0.0008
19307TIP3   OH279411   2.175   1.037   0.463 -0.1337 -0.3263 -0.7636
19307TIP3    H179412   2.242   1.069   0.524 -0.7378  0.2313 -0.3859
19307TIP3    H279413   2.186   1.091   0.385 -0.7720  0.4241 -0.3420
19308TIP3   OH279414   5.942   6.190   3.012  0.2378  0.2023 -0.7522
19308TIP3    H179415   6.016   6.132   2.992  1.5510  1.9833 -1.2304
19308TIP3    H279416   5.982   6.270   3.045 -1.5432  0.8121  0.0219
19309TIP3   OH279417   6.813   6.334   6.406 -0.2074  0.6764 -0.4018
19309TIP3    H179418   6.852   6.255   6.370 -1.7234  0.5004 -1.7566
19309TIP3    H279419   6.845   6.405   6.349 -0.2861  0.8020 -0.2907
19310TIP3   OH279420   0.153   3.896   5.340  0.1136 -0.2556 -0.5629
19310TIP3    H179421   0.148   3.902   5.244  2.0130 -0.9050 -0.7544
19310TIP3    H279422   0.233   3.944   5.362  0.1549 -0.8367  0.6063
19311TIP3   OH279423   6.635   2.159  11.511  0.8492 -1.0527  0.7714
19311TIP3    H179424   6.597   2.239  11.547  1.3389 -1.2232  1.6986
19311TIP3    H279425   6.575   2.090  11.540  0.7048 -1.0821  0.4066
19312TIP3   OH279426   4.362   4.199  15.487  0.4043  0.1908  0.4497
19312TIP3    H179427   4.310   4.278  15.474 -0.6853 -0.6451 -0.4721
19312TIP3    H279428   4.342   4.144  15.412  1.0235 -1.0260  1.1411
19313TIP3   OH279429   3.023   1.394   2.368 -0.2747 -0.1697  0.1697
19313TIP3    H179430   3.004   1.478   2.409 -0.9901  0.1204 -0.7270
19313TIP3    H279431   2.998   1.405   2.276 -0.4342 -1.3704  0.0425
19314TIP3   OH279432   0.554   1.198   5.706  0.7708 -0.3891  0.0913
19314TIP3    H179433   0.487   1.261   5.682  1.3313  0.6361  1.1418
19314TIP3    H279434   0.536   1.122   5.650 -1.1391 -0.0858  0.2301
19315TIP3   OH279435   4.819   1.304   2.715  0.1256 -0.1519  0.0585
19315TIP3    H179436   4.877   1.232   2.693  0.6264  0.3456 -0.2790
19315TIP3    H279437   4.731   1.268   2.705  0.3743 -0.8839  0.4823
19316TIP3   OH279438   6.100   2.766  11.747 -0.1059 -0.5154  0.0351
19316TIP3    H179439   6.177   2.710  11.739  0.6046  0.6719 -2.0261
19316TIP3    H279440   6.052   2.754  11.665 -2.0768 -1.0898  1.2021
19317TIP3   OH279441   2.552   1.735  14.755  0.5553 -0.8008 -0.3895
19317TIP3    H179442   2.487   1.715  14.688 -0.7363  1.2891  0.1375
19317TIP3    H279443   2.541   1.829  14.771  2.2227 -0.8421  1.2867
19318TIP3   OH279444   2.920   5.778   4.159 -0.7005  0.1645  0.3145
19318TIP3    H179445   3.002   5.804   4.117 -0.2927 -1.5232 -0.0193
19318TIP3    H279446   2.929   5.810   4.249  0.9507 -1.1198  0.6691
19319TIP3   OH279447   4.513   4.004  15.322 -0.0150 -0.1556 -0.2962
19319TIP3    H179448   4.469   3.949  15.386 -0.2923  0.3366 -0.0580
19319TIP3    H279449   4.553   3.943  15.261  1.9587 -0.7333  1.4489
19320TIP3   OH279450   4.835   0.380  15.994  0.3066  0.5283  0.2714
19320TIP3    H179451   4.883   0.330  16.060 -2.5745 -1.1013  1.3279
19320TIP3    H279452   4.815   0.464  16.037  1.4173  0.8754  0.1335
19321TIP3   OH279453   4.701   3.723   1.068  0.1338 -0.0359 -0.1623
19321TIP3    H179454   4.766   3.653   1.070 -0.3257 -0.4576  0.3624
19321TIP3    H279455   4.742   3.792   1.016  0.7224 -0.5656 -0.4223
19322TIP3   OH279456   3.048   4.849   0.848  0.4777  0.2228 -0.2225
19322TIP3    H179457   3.008   4.770   0.884  0.0370  0.7773  0.5459
19322TIP3    H279458   3.133   4.855   0.893  0.4902  0.2106 -0.2449
19323TIP3   OH279459   3.177   6.320   5.096 -0.4828 -0.2942  0.5190
19323TIP3    H179460   3.188   6.226   5.082  1.8847 -0.0068  0.1851
19323TIP3    H279461   3.188   6.358   5.009 -0.8112  0.3570  0.7579
19324TIP3   OH279462   0.294   1.433   2.592 -0.1895  0.5583 -0.0636
19324TIP3    H179463   0.236   1.358   2.603 -0.0287  0.6594  1.8446
19324TIP3    H279464   0.238   1.509   2.611  0.1613  0.7708  0.1261
19325TIP3   OH279465   1.223   5.256  12.467 -0.1180  0.0916  0.4276
19325TIP3    H179466   1.184   5.169  12.467 -1.8179  0.8191 -0.3000
19325TIP3    H279467   1.317   5.240  12.457 -0.5677 -1.6151 -1.8321
19326TIP3   OH279468   0.411   2.843  16.890  0.1118 -0.6913 -0.2361
19326TIP3    H179469   0.417   2.935  16.915  0.4575 -1.0265  0.9591
19326TIP3    H279470   0.326   2.815  16.925  0.2024 -0.9416 -0.2178
19327TIP3   OH279471   4.225   6.275  13.578 -0.0574 -0.0102  0.2332
19327TIP3    H179472   4.267   6.220  13.511  0.6177  1.1736 -0.3336
19327TIP3    H279473   4.258   6.363  13.561  0.5033  0.2458  2.4518
19328TIP3   OH279474   0.889   0.520   3.713 -0.3802 -0.0773  0.3777
19328TIP3    H179475   0.962   0.477   3.668  0.7146  1.1171  0.9370
19328TIP3    H279476   0.865   0.460   3.783 -1.9618 -1.8623 -1.5986
19329TIP3   OH279477   0.439   6.742  11.446  0.0222  0.2805 -0.4605
19329TIP3    H179478   0.379   6.669  11.460  1.7327 -1.7951 -3.0170
19329TIP3    H279479   0.467   6.766  11.535 -1.2100 -1.6221  0.5248
19330TIP3   OH279480   6.197   0.515  13.557 -0.5084 -0.1039  0.1443
19330TIP3    H179481   6.218   0.565  13.478  0.0495  0.2856  0.5275
19330TIP3    H279482   6.160   0.433  13.525 -0.3255  0.0698 -0.5220
19331TIP3   OH279483   6.598   1.159   2.433  0.1241 -0.3815 -0.1913
19331TIP3    H179484   6.535   1.193   2.497 -0.0178 -1.9543  0.5430
19331TIP3    H279485   6.679   1.148   2.483  0.2505 -0.8169 -0.4864
19332TIP3   OH279486   3.193   1.552  14.884  0.3447  0.3755 -0.0469
19332TIP3    H179487   3.100   1.573  14.889  0.6016  1.5185  0.2312
19332TIP3    H279488   3.206   1.484  14.951 -0.6601 -1.3125 -1.5016
19333TIP3   OH279489   4.209   0.395  15.887  0.2608 -0.3584 -0.0765
19333TIP3    H179490   4.290   0.347  15.868  1.3881  1.3993  0.0031
19333TIP3    H279491   4.142   0.352  15.833  0.5528 -3.6329  1.8977
19334TIP3   OH279492   3.518   0.632   4.880  0.6671  0.3725 -0.3105
19334TIP3    H179493   3.608   0.613   4.853 -0.1558 -3.1410 -1.1313
19334TIP3    H279494   3.465   0.568   4.832 -2.5082  3.2222 -1.0047
19335TIP3   OH279495   2.154   6.446   1.455  0.0787 -0.4182  0.0574
19335TIP3    H179496   2.198   6.375   1.502 -0.6564 -0.8866  0.0545
19335TIP3    H279497   2.147   6.415   1.365 -0.1094 -0.2765  0.0229
19336TIP3   OH279498   2.019   2.039   3.395  0.7106  0.2169 -0.1762
19336TIP3    H179499   2.018   2.034   3.491  0.0138  0.8012 -0.1436
19336TIP3    H279500   1.997   1.950   3.367  1.5592 -0.1147  0.1909
19337TIP3   OH279501   0.611   1.986   3.547 -0.2540  0.1347  0.0141
19337TIP3    H179502   0.558   1.978   3.468 -0.0104  0.9947 -0.2565
19337TIP3    H279503   0.663   2.066   3.533  0.0080  0.1388  0.9113
19338TIP3   OH279504   1.219   5.463  14.738  0.6839  0.2996  0.2995
19338TIP3    H179505   1.289   5.481  14.801  1.9836  2.3410 -1.5253
19338TIP3    H279506   1.265   5.460  14.653 -1.3035  0.4614 -0.8318
19339TIP3   OH279507   4.969   1.754  10.952 -1.4046 -0.6010  0.0210
19339TIP3    H179508   4.931   1.842  10.958  0.7230  0.4142 -0.2972
19339TIP3    H279509   4.987   1.742  10.859  2.9130  0.8728  0.4279
19340TIP3   OH279510   5.168   2.060   5.073 -0.4271 -0.0140 -0.0193
19340TIP3    H179511   5.126   1.979   5.103 -0.9943  0.5176  0.6423
19340TIP3    H279512   5.257   2.056   5.108 -0.1073 -0.8190 -0.8488
19341TIP3   OH279513   1.895   0.448  16.005 -0.2708  0.2439  0.3771
19341TIP3    H179514   1.897   0.480  16.095  0.6631  1.3165  0.0014
19341TIP3    H279515   1.811   0.403  15.997  0.7067 -2.2363  2.5422
19342TIP3   OH279516   1.976   6.320   3.781  0.0305  0.3561 -0.0262
19342TIP3    H179517   1.912   6.250   3.771  0.9210 -0.2814 -1.4992
19342TIP3    H279518   2.051   6.278   3.822 -0.0759  0.8676  0.7212
19343TIP3   OH279519   5.458   1.556   1.980  0.0092  0.2098 -0.1930
19343TIP3    H179520   5.476   1.618   2.050  0.2944  1.8701 -1.6764
19343TIP3    H279521   5.413   1.483   2.024  0.8123  0.8451  1.8052
19344TIP3   OH279522   1.100   0.006   5.395 -0.2071 -0.0367 -0.4757
19344TIP3    H179523   1.124   0.098   5.387  2.6886 -0.7289 -0.8567
19344TIP3    H279524   1.036  -0.008   5.325 -1.1374  1.7500 -0.0621
19345TIP3   OH279525   1.752   2.600   4.488 -0.4216 -0.1451  0.3103
19345TIP3    H179526   1.836   2.640   4.512 -0.3090 -0.5431  0.5795
19345TIP3    H279527   1.689   2.671   4.500 -0.0042  0.4317 -0.7912
19346TIP3   OH279528   2.065   3.696   4.624  0.0381  0.1499  0.0955
19346TIP3    H179529   2.100   3.745   4.550  0.2090  1.6693  1.1477
19346TIP3    H279530   1.988   3.744   4.651 -0.0115 -0.3775  0.9258
19347TIP3   OH279531   3.685   4.542   5.263  0.1892 -0.1241  0.1807
19347TIP3    H179532   3.622   4.470   5.253 -1.1207  0.5317  2.9085
19347TIP3    H279533   3.765   4.500   5.294 -0.4274 -0.5117  1.3084
19348TIP3   OH279534   1.912   4.414   1.782  0.6587 -0.1535 -0.5230
19348TIP3    H179535   1.983   4.470   1.750  0.3529 -0.5089 -1.8855
19348TIP3    H279536   1.949   4.370   1.859  1.6019  0.3334 -0.6802
19349TIP3   OH279537   0.305   1.867   2.683 -0.4853  0.0702  0.0730
19349TIP3    H179538   0.388   1.881   2.638 -0.5192  0.2600  0.0701
19349TIP3    H279539   0.327   1.814   2.760 -0.1041  1.5290  0.9975
19350TIP3   OH279540   5.212   3.207  13.144  0.2426 -0.3256  0.1784
19350TIP3    H179541   5.257   3.230  13.062 -2.2852  0.3425 -1.1248
19350TIP3    H279542   5.283   3.200  13.209  2.0831  2.1347 -1.3632
19351TIP3   OH279543   3.025   2.519   4.403  0.5071  0.2182 -0.3796
19351TIP3    H179544   2.956   2.584   4.416  0.3387  0.5763 -2.6376
19351TIP3    H279545   2.978   2.438   4.384  0.7195 -0.0569  0.2499
19352TIP3   OH279546   2.484   4.311   3.756  0.0940 -0.0523  0.2987
19352TIP3    H179547   2.452   4.398   3.782  0.6917  0.3751 -0.3662
19352TIP3    H279548   2.503   4.319   3.663  2.5563 -0.1112  0.7139
19353TIP3   OH279549   1.905   5.499   5.373 -0.1634 -0.1157 -0.2263
19353TIP3    H179550   1.928   5.582   5.330  2.0580 -0.4316  0.2519
19353TIP3    H279551   1.838   5.523   5.436 -0.0267  1.2060 -0.5494
19354TIP3   OH279552   4.328   0.248   5.405 -0.3808 -0.0501  0.1894
19354TIP3    H179553   4.327   0.333   5.449 -2.5636  0.5970 -0.9648
19354TIP3    H279554   4.323   0.269   5.312  1.3165 -1.4317 -0.2684
19355TIP3   OH279555   4.060   0.552  14.030  0.4137 -0.1351  0.0463
19355TIP3    H179556   4.020   0.466  14.018  2.3826 -0.8490 -2.1291
19355TIP3    H279557   4.126   0.539  14.098 -0.2208  0.0258  0.7031
19356TIP3   OH279558   3.936   2.747   5.151 -0.4736 -0.6106  0.0703
19356TIP3    H179559   3.973   2.701   5.076  0.6522 -0.2377  0.3802
19356TIP3    H279560   3.852   2.704   5.167 -0.3755 -1.1884 -0.9230
19357TIP3   OH279561   0.522   4.200  12.787  0.8821  0.3209  0.1407
19357TIP3    H179562   0.503   4.169  12.698  1.1723 -0.4037  0.3204
19357TIP3    H279563   0.597   4.259  12.776  1.8083 -0.8261  0.0488
19358TIP3   OH279564   0.301   1.716  14.699 -0.0968  0.2334  0.1695
19358TIP3    H179565   0.259   1.799  14.674  0.9464  0.2223 -1.8285
19358TIP3    H279566   0.391   1.740  14.718 -0.1061 -0.2729  0.8959
19359TIP3   OH279567   6.257   3.271   5.590  0.5746  0.2441  0.5034
19359TIP3    H179568   6.207   3.352   5.580  1.8712  0.9540 -0.6126
19359TIP3    H279569   6.256   3.231   5.503 -1.2218 -1.6989  1.3477
19360TIP3   OH279570   5.880   1.683  14.446  0.7976 -0.2859  0.3211
19360TIP3    H179571   5.863   1.632  14.368  0.2940  0.8855 -0.3682
19360TIP3    H279572   5.838   1.767  14.430 -0.9534 -0.6152  2.6289
19361TIP3   OH279573   0.567   3.899   4.435  0.1310 -0.2609  0.1595
19361TIP3    H179574   0.529   3.814   4.414  0.5357 -0.9294  1.9439
19361TIP3    H279575   0.492   3.960   4.431 -0.9564 -1.3279  2.3129
19362TIP3   OH279576   3.706   3.101   5.156  0.5744 -0.0064 -0.5231
19362TIP3    H179577   3.638   3.034   5.145  2.1328 -1.8793  0.6122
19362TIP3    H279578   3.740   3.115   5.068  0.0487 -0.5485 -0.8223
19363TIP3   OH279579   2.435   4.306   4.733 -0.2075 -0.6976  0.2049
19363TIP3    H179580   2.425   4.381   4.791 -3.2818 -1.1895  0.4999
19363TIP3    H279581   2.390   4.234   4.778  1.7387 -2.4941 -0.5338
19364TIP3   OH279582   4.942   6.230  13.161 -0.1382 -0.4125 -0.3536
19364TIP3    H179583   5.018   6.282  13.135  0.9339 -2.3324 -1.2909
19364TIP3    H279584   4.867   6.280  13.130  0.5067  2.5519  2.4041
19365TIP3   OH279585   4.673   4.183   4.086 -0.3753 -0.1827 -0.2211
19365TIP3    H179586   4.744   4.217   4.031  1.6517 -0.9416  1.7714
19365TIP3    H279587   4.637   4.260   4.129  1.7278 -0.0530  1.4678
19366TIP3   OH279588   1.061   4.483   1.225 -0.6331  0.4483  0.0808
19366TIP3    H179589   1.011   4.471   1.306 -0.8243  0.2039 -0.0712
19366TIP3    H279590   1.129   4.416   1.228  0.0062  1.1032  0.5252
19367TIP3   OH279591   0.610   1.200   3.492  0.3190 -0.4390 -0.1619
19367TIP3    H179592   0.602   1.264   3.421 -1.7397 -2.0004 -1.4306
19367TIP3    H279593   0.592   1.251   3.572 -0.9098  0.6525 -1.0919
19368TIP3   OH279594   1.673   0.078  13.570  0.9518  0.1367 -0.2736
19368TIP3    H179595   1.597   0.026  13.543  2.0597 -1.3258 -0.6770
19368TIP3    H279596   1.749   0.026  13.543  2.1117  1.2650  0.6930
19369TIP3   OH279597   0.704   4.681   2.545 -0.4296 -0.3746 -0.4212
19369TIP3    H179598   0.669   4.693   2.634 -3.2862  1.8178 -1.7007
19369TIP3    H279599   0.765   4.753   2.534 -1.5371  0.5098 -0.8658
19370TIP3   OH279600   3.581   4.967  17.181  0.0428 -0.4832  0.0816
19370TIP3    H179601   3.655   5.027  17.172  0.2424 -0.4295  1.8133
19370TIP3    H279602   3.589   4.908  17.105  0.6119  0.8126 -0.9108
19371TIP3   OH279603   3.181   5.194  10.459 -0.7516 -0.1318  0.4453
19371TIP3    H179604   3.091   5.178  10.488 -0.7020 -0.2336  0.5411
19371TIP3    H279605   3.234   5.180  10.537 -0.6344 -0.2459  0.3451
19372TIP3   OH279606   2.537   3.846  12.203 -0.0169 -0.0074 -0.1008
19372TIP3    H179607   2.569   3.802  12.125 -0.7078  1.4974 -1.2653
19372TIP3    H279608   2.456   3.800  12.225 -0.0034 -0.2103 -0.4708
19373TIP3   OH279609   3.678   4.440   2.496 -0.5481 -0.3169 -0.1151
19373TIP3    H179610   3.694   4.391   2.415 -0.3282 -0.7473  0.1850
19373TIP3    H279611   3.691   4.531   2.471 -3.8081 -0.0640 -1.4140
19374TIP3   OH279612   5.934   0.059   0.899  0.5601 -0.1508  0.0714
19374TIP3    H179613   5.902  -0.030   0.915  0.5450 -0.2211 -0.3482
19374TIP3    H279614   5.894   0.085   0.816  1.1573 -0.0301 -0.1791
19375TIP3   OH279615   3.554   2.297  16.960  0.1876 -0.2519  0.0151
19375TIP3    H179616   3.571   2.383  16.998 -0.7135 -0.3862  0.7579
19375TIP3    H279617   3.464   2.304  16.926 -0.3225 -1.2607  1.1355
19376TIP3   OH279618   2.505   3.899  13.806  0.4297 -0.2876 -0.1012
19376TIP3    H179619   2.528   3.949  13.728 -1.7279  5.0462  2.2022
19376TIP3    H279620   2.580   3.910  13.865  0.5833 -1.2315 -0.1034
19377TIP3   OH279621   5.471   2.758   2.020 -0.3133  0.3281  0.2359
19377TIP3    H179622   5.415   2.831   2.048  1.3403  2.3576 -1.3875
19377TIP3    H279623   5.422   2.716   1.950 -1.3453 -0.2633  1.2725
19378TIP3   OH279624   5.895   1.766  11.250  0.5027 -0.0089 -0.6174
19378TIP3    H179625   5.955   1.789  11.321  0.3897  0.2381 -0.6002
19378TIP3    H279626   5.812   1.748  11.295  0.1908  1.0047 -0.7534
19379TIP3   OH279627   2.138   3.314  14.159 -0.0903 -0.3299  0.6861
19379TIP3    H179628   2.203   3.370  14.116 -0.7389 -0.1544 -0.1068
19379TIP3    H279629   2.106   3.257  14.089 -1.2025 -0.0143  0.9122
19380TIP3   OH279630   2.987   6.149   1.804  0.0732  0.3000 -0.4693
19380TIP3    H179631   3.043   6.088   1.756 -0.7291 -0.4813 -0.4429
19380TIP3    H279632   3.018   6.236   1.778  0.5705 -0.1169 -1.3130
19381TIP3   OH279633   3.878   1.813  12.428  0.1251  0.1710  0.5881
19381TIP3    H179634   3.875   1.832  12.522 -1.8851  2.2343  0.2030
19381TIP3    H279635   3.823   1.735  12.418 -0.2251  0.3541  1.0430
19382TIP3   OH279636   4.765   4.577  16.003  0.0549  0.9550  0.3734
19382TIP3    H179637   4.820   4.633  16.059  0.6046 -0.3720  1.2268
19382TIP3    H279638   4.760   4.624  15.920 -0.1930  2.6533  1.2897
19383TIP3   OH279639   2.152   2.018   2.879 -0.5187  0.3800  0.5485
19383TIP3    H179640   2.178   2.038   2.969 -0.9280 -0.7241  0.9303
19383TIP3    H279641   2.131   1.925   2.881  1.6704 -0.2216 -1.2113
19384TIP3   OH279642   6.246   4.199   5.542 -0.5629 -0.3787  0.2769
19384TIP3    H179643   6.242   4.178   5.449 -1.9528  0.6227  0.0795
19384TIP3    H279644   6.264   4.293   5.544  0.1215 -0.5123  1.0542
19385TIP3   OH279645   1.217   6.298  10.337 -0.0200 -0.5528  0.0517
19385TIP3    H179646   1.311   6.297  10.323 -0.1385 -0.2253 -0.9311
19385TIP3    H279647   1.198   6.220  10.388  0.9299  0.0643  1.3930
19386TIP3   OH279648   4.684   5.030   1.384 -1.5765 -0.4156  0.2995
19386TIP3    H179649   4.629   5.103   1.356 -1.0042  0.1208  0.5334
19386TIP3    H279650   4.727   5.062   1.463 -0.1179 -0.3945 -0.4596
19387TIP3   OH279651   6.345   3.755   3.478  0.0096 -0.3373  0.1229
19387TIP3    H179652   6.436   3.782   3.488  0.7197 -2.1307 -1.0682
19387TIP3    H279653   6.343   3.705   3.397 -1.1204 -3.8894  2.1183
19388TIP3   OH279654   2.356   3.634   5.503  0.2294 -0.0785 -0.4670
19388TIP3    H179655   2.432   3.664   5.551  0.0424 -1.4231  0.7521
19388TIP3    H279656   2.293   3.607   5.571 -1.3462  1.0011 -1.4236
19389TIP3   OH279657   3.061   2.140  16.986 -0.2526  0.4922 -0.2720
19389TIP3    H179658   3.132   2.092  17.029 -0.9516  0.4543  0.8775
19389TIP3    H279659   2.982   2.091  17.009 -0.6561  0.5345 -1.5428
19390TIP3   OH279660   0.595   4.180  12.506 -0.1390 -0.3078 -0.4406
19390TIP3    H179661   0.502   4.166  12.487  0.1795 -1.4195 -1.2986
19390TIP3    H279662   0.619   4.256  12.453 -0.6409  0.2121  0.0699
19391TIP3   OH279663   3.294   2.003   6.164 -0.5909 -0.0428  0.0935
19391TIP3    H179664   3.278   1.920   6.118 -0.9756  0.6875 -1.1315
19391TIP3    H279665   3.233   2.065   6.125  1.4146  1.4580 -0.8604
19392TIP3   OH279666   1.628   6.679  11.019 -0.1617  0.4886 -0.1143
19392TIP3    H179667   1.690   6.619  10.976 -0.3183  0.3825 -0.1937
19392TIP3    H279668   1.672   6.763  11.018  0.2880  0.2636  0.4810
19393TIP3   OH279669   0.015   3.748  12.503 -1.2749  0.1321  0.2845
19393TIP3    H179670  -0.019   3.814  12.442 -1.2628  0.3279  0.4904
19393TIP3    H279671   0.101   3.725  12.468 -0.9985  0.7112  0.5838
19394TIP3   OH279672   2.756   0.212   2.819 -0.4223  0.0536  0.1753
19394TIP3    H179673   2.692   0.199   2.749  0.6680  0.4004 -0.9101
19394TIP3    H279674   2.835   0.242   2.775  0.0238  1.1906  1.6512
19395TIP3   OH279675   0.008   4.507  14.076  0.0805  0.8236  0.3022
19395TIP3    H179676  -0.032   4.594  14.072 -3.0563 -0.4902 -0.9861
19395TIP3    H279677  -0.051   4.457  14.133  0.8904 -0.8572 -0.2673
19396TIP3   OH279678   2.861   3.474   3.429  0.4319  0.5652 -0.1176
19396TIP3    H179679   2.828   3.562   3.408 -0.8258  0.5854  1.6859
19396TIP3    H279680   2.852   3.468   3.524  2.0827 -0.9188 -0.0074
19397TIP3   OH279681   5.873   0.742   4.999  0.4621  0.3854  0.3187
19397TIP3    H179682   5.821   0.816   5.028  0.8962  0.5876  0.5942
19397TIP3    H279683   5.924   0.716   5.076  0.6554  0.0944  0.0981
19398TIP3   OH279684   1.321   1.120   5.023 -1.0605 -0.5431 -0.2435
19398TIP3    H179685   1.273   1.191   4.982 -3.2283 -1.6098  0.2808
19398TIP3    H279686   1.403   1.114   4.974  0.2756  3.6742  1.0465
19399TIP3   OH279687   0.581   3.642   0.138 -0.2560  0.2820 -0.0605
19399TIP3    H179688   0.574   3.584   0.062  1.5414  1.8973 -1.5601
19399TIP3    H279689   0.665   3.617   0.179 -1.0914 -0.4113  1.3070
19400TIP3   OH279690   2.494   5.856   0.954 -0.1395 -0.0643 -0.0951
19400TIP3    H179691   2.429   5.906   1.004 -1.7349 -2.1964  0.1187
19400TIP3    H279692   2.446   5.778   0.925  1.6246 -0.4250 -2.2676
19401TIP3   OH279693   1.291   1.694   5.139  0.2351 -0.1410 -0.1598
19401TIP3    H179694   1.234   1.740   5.076 -0.1783  0.7900  0.8576
19401TIP3    H279695   1.291   1.603   5.109 -1.6478 -0.1357 -0.3182
19402TIP3   OH279696   5.376   3.301   1.680 -0.1637 -0.4762 -0.0508
19402TIP3    H179697   5.372   3.338   1.768 -0.5421 -3.5116  1.3509
19402TIP3    H279698   5.469   3.283   1.666 -0.1690 -0.5590  0.0158
19403TIP3   OH279699   1.385   0.583  15.466 -0.1583  0.1789 -0.7494
19403TIP3    H179700   1.398   0.502  15.515  0.4696  0.0919 -1.0596
19403TIP3    H279701   1.326   0.559  15.395  1.0706 -0.3347 -1.6362
19404TIP3   OH279702   2.022   3.324  15.162  0.3991 -0.2943  0.3633
19404TIP3    H179703   2.090   3.260  15.140 -1.6045 -2.0322 -1.1630
19404TIP3    H279704   2.022   3.385  15.088 -1.2249 -1.7055 -0.8790
19405TIP3   OH279705   1.924   5.512   3.110 -0.2711 -0.7479 -0.5511
19405TIP3    H179706   1.894   5.576   3.174 -0.2164 -0.4272 -0.8395
19405TIP3    H279707   2.011   5.542   3.084 -0.2424 -0.9397 -0.6860
19406TIP3   OH279708   0.798   6.225  14.219 -0.2425  0.5333  0.2177
19406TIP3    H179709   0.749   6.150  14.254 -0.0948  0.9244  1.3240
19406TIP3    H279710   0.785   6.294  14.285 -0.0201  1.3423 -0.5680
19407TIP3   OH279711   3.935   2.738   1.919  0.5365  0.2161 -0.3085
19407TIP3    H179712   4.023   2.701   1.920  0.7996  0.7430 -1.5060
19407TIP3    H279713   3.937   2.801   1.847 -1.0896 -0.4483 -0.9801
19408TIP3   OH279714   3.987   5.134   1.910  0.1581  0.2171  0.1327
19408TIP3    H179715   3.940   5.084   1.844  1.4614 -0.8770 -0.0121
19408TIP3    H279716   4.068   5.160   1.867 -0.8221  3.2704 -0.0884
19409TIP3   OH279717   4.026   2.315   0.706  0.1936  0.5040  0.4134
19409TIP3    H179718   4.109   2.350   0.739  1.9637  0.0359 -3.0376
19409TIP3    H279719   4.043   2.297   0.613 -3.2783 -1.3128 -0.0380
19410TIP3   OH279720   1.354   1.040  16.547 -0.0578 -0.7319 -0.5527
19410TIP3    H179721   1.391   1.012  16.463 -1.2962 -4.6473 -0.0020
19410TIP3    H279722   1.281   1.097  16.523 -0.2118 -1.5438 -2.1579
19411TIP3   OH279723   2.665   0.359  17.203  0.5081 -0.3959  0.5110
19411TIP3    H179724   2.598   0.382  17.138  1.3585 -2.6075 -1.2800
19411TIP3    H279725   2.616   0.321  17.276 -0.3631  0.7864  0.5778
19412TIP3   OH279726   6.259   5.945   6.091 -0.2593 -0.5309  0.2949
19412TIP3    H179727   6.209   5.996   6.028 -0.4268 -1.7525 -0.6119
19412TIP3    H279728   6.348   5.978   6.084 -0.8139  1.3487  1.5857
19413TIP3   OH279729   4.944   2.980   3.341 -0.0748  0.2847 -0.2288
19413TIP3    H179730   5.028   3.025   3.347  1.0914 -1.8532  0.4540
19413TIP3    H279731   4.956   2.914   3.273 -2.4464  2.2485 -2.7927
19414TIP3   OH279732   6.184   1.222   2.362  0.1167 -0.5524 -0.5993
19414TIP3    H179733   6.156   1.208   2.271  0.4859  0.3825 -0.8682
19414TIP3    H279734   6.127   1.292   2.393 -0.9712 -1.8055  0.3703
19415TIP3   OH279735   2.310   2.745   0.208 -0.0841  0.5642 -0.2502
19415TIP3    H179736   2.231   2.732   0.261  0.1068  2.0238  0.4190
19415TIP3    H279737   2.324   2.660   0.165 -0.1791 -0.7241  2.1053
19416TIP3   OH279738   1.729   3.763   4.845  0.1760 -0.3677  0.2487
19416TIP3    H179739   1.769   3.678   4.860 -0.1983 -0.5026  0.5001
19416TIP3    H279740   1.785   3.825   4.892  1.1963 -0.2959 -1.0148
19417TIP3   OH279741   3.932   2.898  12.976 -0.3423 -0.1483  0.2593
19417TIP3    H179742   3.963   2.810  12.996 -0.0494 -0.3810 -1.1080
19417TIP3    H279743   3.945   2.907  12.882  0.7143  1.7830  0.5370
19418TIP3   OH279744   3.191   2.548   1.532 -0.0270  0.6235 -0.4374
19418TIP3    H179745   3.200   2.458   1.501 -0.8807  1.2706 -2.7405
19418TIP3    H279746   3.096   2.561   1.540  0.1222  0.7480  1.8416
19419TIP3   OH279747   5.166   0.138   4.177 -0.1821  0.2673 -0.5278
19419TIP3    H179748   5.221   0.157   4.253  0.4684 -0.1274 -0.8810
19419TIP3    H279749   5.183   0.210   4.116  3.0242 -1.6983 -2.2669
19420TIP3   OH279750   6.456   3.682   4.157 -0.1685 -0.4703 -0.2774
19420TIP3    H179751   6.411   3.654   4.077 -1.6737  0.4533  0.2093
19420TIP3    H279752   6.397   3.657   4.228  0.4224  0.1383  0.4423
19421TIP3   OH279753   1.065   0.405   4.269 -0.0458 -0.0568  0.1147
19421TIP3    H179754   1.159   0.390   4.278 -0.1464  0.6603  3.7569
19421TIP3    H279755   1.025   0.330   4.313 -1.2068 -0.2068 -1.1533
19422TIP3   OH279756   2.294   2.496   5.320 -0.3591 -0.0399  0.4682
19422TIP3    H179757   2.307   2.408   5.286 -1.0090 -0.8510  2.1672
19422TIP3    H279758   2.199   2.504   5.329 -0.2635  0.5550  1.0024
19423TIP3   OH279759   1.637   5.521  16.244 -0.2412  0.0610 -0.5742
19423TIP3    H179760   1.691   5.530  16.322 -1.5576  1.5284  0.2176
19423TIP3    H279761   1.573   5.591  16.251 -2.0456 -1.3976 -1.6578
19424TIP3   OH279762   5.370   5.449   3.410  0.2919  0.1963  0.2225
19424TIP3    H179763   5.294   5.507   3.405  0.1242  0.5321  3.7439
19424TIP3    H279764   5.420   5.483   3.485  1.8325 -2.3746  0.4667
19425TIP3   OH279765   2.523   4.088  15.247  0.2722 -0.0450 -0.1773
19425TIP3    H179766   2.440   4.045  15.229 -0.6826  1.0253  1.4850
19425TIP3    H279767   2.542   4.068  15.338  0.5741  1.7379  0.1881
19426TIP3   OH279768   6.371   4.174   0.337 -0.5160 -0.6162  0.6887
19426TIP3    H179769   6.315   4.144   0.266  1.0422  0.3107 -1.0108
19426TIP3    H279770   6.460   4.162   0.304  0.2468  0.1377  2.3593
19427TIP3   OH279771   2.717   5.823  16.197 -0.0668 -0.2921 -0.1236
19427TIP3    H179772   2.682   5.734  16.193  0.7653 -0.6047 -3.9224
19427TIP3    H279773   2.643   5.880  16.180 -0.0037 -0.5137 -1.1896
19428TIP3   OH279774   3.105   4.180   5.402  0.5841  0.1133 -0.1841
19428TIP3    H179775   3.103   4.086   5.388 -1.2314  0.0748  0.0988
19428TIP3    H279776   3.058   4.194   5.484  1.5942  1.2021  0.2362
19429TIP3   OH279777   3.526   4.721  11.760 -0.0110  0.4793 -0.4200
19429TIP3    H179778   3.500   4.651  11.820 -1.6138  1.3395 -0.0361
19429TIP3    H279779   3.582   4.679  11.695  1.1388 -0.6395  1.2125
19430TIP3   OH279780   3.773   5.873   5.115 -0.2599  0.0471  0.2802
19430TIP3    H179781   3.760   5.817   5.038  1.1659 -0.9321  0.7141
19430TIP3    H279782   3.684   5.887   5.149 -0.9112  0.4643 -1.4955
19431TIP3   OH279783   1.261   2.822  12.257  0.7886 -0.1079  0.6387
19431TIP3    H179784   1.181   2.795  12.212  0.5056  2.0613 -0.2978
19431TIP3    H279785   1.301   2.740  12.287 -0.8036 -1.3715 -0.5202
19432TIP3   OH279786   4.109   3.499  11.896 -0.3934  0.2551 -0.0449
19432TIP3    H179787   4.036   3.446  11.927 -0.2530  0.1814  0.1650
19432TIP3    H279788   4.128   3.464  11.809 -1.2450  0.9300 -0.5121
19433TIP3   OH279789   5.211   1.809   5.764 -0.2115 -0.5747 -0.2510
19433TIP3    H179790   5.300   1.791   5.733 -0.0476 -2.2490  1.0245
19433TIP3    H279791   5.224   1.845   5.852 -0.7741 -0.0979 -0.3600
19434TIP3   OH279792   5.022   0.341   4.408 -0.5639 -0.5184 -0.5364
19434TIP3    H179793   5.006   0.427   4.447  1.8043 -0.2666  0.0726
19434TIP3    H279794   5.061   0.361   4.322  1.9602 -0.8596  0.4502
19435TIP3   OH279795   2.788   3.377  11.892 -0.1312  0.8517  0.6385
19435TIP3    H179796   2.769   3.391  11.799  3.0499  2.4491  0.1068
19435TIP3    H279797   2.829   3.290  11.895  0.4223  1.1032  0.4250
19436TIP3   OH279798   0.977   5.392  14.892 -0.2541 -0.4150  0.3385
19436TIP3    H179799   1.040   5.419  14.825  0.3260 -0.1338  0.9781
19436TIP3    H279800   1.012   5.309  14.925 -1.0391 -1.0234 -0.3476
19437TIP3   OH279801   2.933   6.214   0.988  0.2108  0.5216  0.4838
19437TIP3    H179802   2.857   6.164   0.957  0.1814 -0.6579  2.2778
19437TIP3    H279803   2.988   6.226   0.910 -0.1195 -1.7591 -0.1802
19438TIP3   OH279804   6.240   3.466  16.051 -0.1389  0.5418  1.0181
19438TIP3    H179805   6.180   3.454  16.125 -0.0809 -1.2761  0.8173
19438TIP3    H279806   6.323   3.431  16.083  0.3286  1.3058  0.6502
19439TIP3   OH279807   5.348   1.785  16.501  0.0585  0.5244  0.7077
19439TIP3    H179808   5.368   1.723  16.432  0.0045  2.1168 -0.8099
19439TIP3    H279809   5.263   1.756  16.536 -1.0543  0.9408 -1.4793
19440TIP3   OH279810   3.662   0.421   1.219 -0.4618 -0.1725 -0.7694
19440TIP3    H179811   3.739   0.475   1.235 -1.4432  1.2042 -0.5029
19440TIP3    H279812   3.657   0.414   1.124 -0.0748 -0.1723 -0.7920
19441TIP3   OH279813   2.036   6.812   2.208 -0.0261  0.5793  0.0938
19441TIP3    H179814   2.084   6.741   2.166 -1.5120  0.4455 -1.5133
19441TIP3    H279815   1.954   6.772   2.238 -0.3485  1.3492  0.2822
19442TIP3   OH279816   4.843   6.707   3.288 -0.4915 -0.3440  0.3565
19442TIP3    H179817   4.766   6.700   3.233  0.5789 -0.7394 -1.1568
19442TIP3    H279818   4.829   6.787   3.339 -3.0052 -1.7036  1.9875
19443TIP3   OH279819   5.602   3.352  14.542  0.1867 -0.4714 -0.0703
19443TIP3    H179820   5.656   3.350  14.621 -1.8884  0.5776  1.4638
19443TIP3    H279821   5.579   3.445  14.532 -1.2615 -0.8819 -0.7237
19444TIP3   OH279822   2.118   6.241   5.149  0.0280  0.0323 -0.3726
19444TIP3    H179823   2.095   6.206   5.236 -0.0684 -0.0489 -0.4312
19444TIP3    H279824   2.174   6.317   5.168  2.4648 -1.6579 -0.2260
19445TIP3   OH279825   1.722   3.877   1.194 -0.2404 -0.3093  0.1949
19445TIP3    H179826   1.748   3.944   1.257 -0.0585  0.1932 -0.4041
19445TIP3    H279827   1.804   3.844   1.159 -0.3424 -0.4731  0.1103
19446TIP3   OH279828   4.943   0.528  13.653 -0.0320  0.4149 -0.0655
19446TIP3    H179829   4.969   0.611  13.694  1.3849 -0.0423  0.0289
19446TIP3    H279830   4.868   0.551  13.598 -0.4209  1.5130  0.8929
19447TIP3   OH279831   4.065   0.260  11.214  0.0707 -0.2586  0.1203
19447TIP3    H179832   4.019   0.176  11.213  1.1431 -0.8873  0.9880
19447TIP3    H279833   4.097   0.271  11.124  0.0381 -0.8444  0.0333
19448TIP3   OH279834   2.365   6.007  10.324  0.1451  0.0301 -0.3826
19448TIP3    H179835   2.388   6.091  10.286 -0.4069 -0.1439 -1.1112
19448TIP3    H279836   2.319   5.960  10.255 -1.6695  0.0467  0.7391
19449TIP3   OH279837   6.511   1.983  13.490 -0.1698  0.2375 -0.1238
19449TIP3    H179838   6.515   2.060  13.547 -0.9845 -0.7847  1.3857
19449TIP3    H279839   6.523   1.909  13.550 -0.4361 -0.8506 -1.3866
19450TIP3   OH279840   1.735   3.343   2.549  0.4103 -0.3988  0.3012
19450TIP3    H179841   1.709   3.265   2.599 -0.8914  0.3647  0.8787
19450TIP3    H279842   1.758   3.407   2.616 -0.4495  0.3380 -0.0905
19451TIP3   OH279843   3.270   6.285   3.752 -0.6870  0.3663 -0.4818
19451TIP3    H179844   3.241   6.224   3.684  0.8450 -0.5802 -0.3500
19451TIP3    H279845   3.216   6.363   3.740 -0.8981 -0.0302 -2.3709
19452TIP3   OH279846   2.990   2.018  11.754 -0.5862 -0.3344  0.3535
19452TIP3    H179847   2.956   1.989  11.839 -0.7345 -0.7394  0.1612
19452TIP3    H279848   2.971   2.112  11.751 -1.5367 -0.5117  0.3326
19453TIP3   OH279849   6.681   4.057   1.146 -0.1409  0.3548 -0.1534
19453TIP3    H179850   6.736   3.989   1.107  1.3672  1.5010 -0.1507
19453TIP3    H279851   6.621   4.083   1.077  0.9952  0.7997 -0.9878
19454TIP3   OH279852   3.754   5.300   2.027 -0.1498  0.4968 -0.0257
19454TIP3    H179853   3.804   5.375   1.994  1.9903 -0.1027  1.6018
19454TIP3    H279854   3.785   5.226   1.976 -1.0357  0.4335 -0.4918
19455TIP3   OH279855   6.340   2.499   3.694  0.2446 -0.3563  0.1738
19455TIP3    H179856   6.399   2.492   3.619 -1.1251  1.7566 -1.2275
19455TIP3    H279857   6.352   2.588   3.727 -0.2972 -0.7427  1.4830
19456TIP3   OH279858   1.378   6.188   5.003 -0.0586  0.4638 -0.4972
19456TIP3    H179859   1.427   6.236   5.070 -0.5588 -1.2929  1.2246
19456TIP3    H279860   1.441   6.126   4.967 -0.6098 -1.0562  0.9659
19457TIP3   OH279861   6.642   6.703   5.068  0.4968 -0.4751  0.2697
19457TIP3    H179862   6.597   6.753   5.136  0.7615 -1.3217  1.0838
19457TIP3    H279863   6.657   6.767   4.998 -0.2615  0.2796  0.7733
19458TIP3   OH279864   2.495   5.156   1.790 -0.0040  0.2285  0.3466
19458TIP3    H179865   2.530   5.174   1.877  0.2282 -2.0047  0.7824
19458TIP3    H279866   2.571   5.163   1.732  0.2125 -0.0174  0.5980
19459TIP3   OH279867   3.128   2.720   3.861 -0.8083  0.0226  0.0364
19459TIP3    H179868   3.113   2.626   3.877 -2.0855  0.1450 -0.3483
19459TIP3    H279869   3.158   2.754   3.945 -3.6127 -0.1130  1.2288
19460TIP3   OH279870   5.634   1.293  14.893  0.4442  0.0603 -0.4424
19460TIP3    H179871   5.652   1.267  14.983 -0.6992  0.4232 -0.0929
19460TIP3    H279872   5.539   1.285  14.884  0.4007  1.2265 -1.2255
19461TIP3   OH279873   0.824   5.211  13.690 -0.7642  0.0345 -0.3858
19461TIP3    H179874   0.879   5.178  13.618 -0.3073 -1.1097  0.4536
19461TIP3    H279875   0.884   5.218  13.764 -0.9625  2.3122 -0.3612
19462TIP3   OH279876   6.471   2.557  12.374 -0.1657  0.1270  0.0156
19462TIP3    H179877   6.432   2.644  12.366  0.1821  0.3101  0.2900
19462TIP3    H279878   6.407   2.507  12.425  0.2075  0.5996  0.9866
19463TIP3   OH279879   2.873   0.086  14.034 -0.2259 -0.2722 -0.2997
19463TIP3    H179880   2.828   0.002  14.032 -0.6146 -0.0552 -1.0256
19463TIP3    H279881   2.885   0.109  13.942 -1.2955  1.0823 -0.1365
19464TIP3   OH279882   1.325   6.233  11.245 -0.1741  0.1472 -0.0109
19464TIP3    H179883   1.413   6.253  11.214 -0.4761 -1.3848 -2.0671
19464TIP3    H279884   1.327   6.139  11.265 -1.2659  0.1325  0.1319
19465TIP3   OH279885   1.867   2.840   2.374  0.3816  0.3334 -0.2254
19465TIP3    H179886   1.800   2.907   2.384 -0.0441  0.1033 -1.3123
19465TIP3    H279887   1.882   2.807   2.462 -1.5998 -0.2355 -0.0465
19466TIP3   OH279888   6.712   1.491  11.891  0.0200  0.2386 -0.0022
19466TIP3    H179889   6.807   1.486  11.883  0.0627 -1.9318  0.9738
19466TIP3    H279890   6.686   1.402  11.916 -2.2759  0.7677 -0.3001
19467TIP3   OH279891   1.565   3.561  15.248 -0.2570 -0.0469 -0.1227
19467TIP3    H179892   1.579   3.622  15.320 -1.1069  0.5849 -0.4735
19467TIP3    H279893   1.587   3.611  15.169 -2.7291  0.4759 -0.5669
19468TIP3   OH279894   6.587   2.287   5.380  0.2699 -0.1277 -0.0259
19468TIP3    H179895   6.589   2.310   5.287 -0.5005 -1.8507 -0.5000
19468TIP3    H279896   6.675   2.253   5.398 -0.0204 -1.1779 -0.5193
19469TIP3   OH279897   0.810   6.446   4.236 -0.1781  0.1429  0.0607
19469TIP3    H179898   0.894   6.489   4.254  0.3708 -1.3005  1.1748
19469TIP3    H279899   0.776   6.490   4.158  2.0633  0.1324 -0.9870
19470TIP3   OH279900   0.208   5.428   1.111  0.2203  0.4711  0.2263
19470TIP3    H179901   0.139   5.381   1.157 -0.2240  0.5047 -0.3999
19470TIP3    H279902   0.289   5.392   1.147 -0.0888  1.5713  2.1376
19471TIP3   OH279903   0.395   2.335   0.702  0.3956  0.4337  0.4425
19471TIP3    H179904   0.491   2.334   0.712  0.6007  0.3041 -1.1830
19471TIP3    H279905   0.377   2.263   0.642 -0.5712  1.2771 -0.3258
19472TIP3   OH279906   4.361   3.071  16.763  0.3179  0.3994  0.3544
19472TIP3    H179907   4.450   3.093  16.790  0.6570 -0.5399  0.0328
19472TIP3    H279908   4.362   3.078  16.667  0.4318 -0.9246  0.2366
19473TIP3   OH279909   0.516   4.096   5.949  0.2578 -0.1943 -0.0404
19473TIP3    H179910   0.578   4.067   5.883 -1.1284 -0.0584 -1.4544
19473TIP3    H279911   0.470   4.170   5.909 -0.6349 -0.1142  1.0680
19474TIP3   OH279912   3.565   4.061   0.373 -1.3013  0.1448  0.2438
19474TIP3    H179913   3.589   3.994   0.309 -0.1246  1.1351 -0.3701
19474TIP3    H279914   3.504   4.118   0.327 -1.2083  0.3030  0.3162
19475TIP3   OH279915   1.666   1.467   1.208 -0.0537  0.6877 -0.5479
19475TIP3    H179916   1.616   1.391   1.177 -0.6135  1.1131 -0.7194
19475TIP3    H279917   1.739   1.475   1.147 -0.4409  0.7587 -1.0124
19476TIP3   OH279918   4.539   2.885  16.158  0.2679  0.1374 -0.1032
19476TIP3    H179919   4.570   2.818  16.219 -1.3941  0.3434  1.0354
19476TIP3    H279920   4.460   2.920  16.199 -0.6478  0.6225 -2.1756
19477TIP3   OH279921   1.346   4.356  13.312 -0.2696 -0.2677  0.6963
19477TIP3    H179922   1.418   4.298  13.288 -0.4454 -0.1400 -0.1501
19477TIP3    H279923   1.286   4.301  13.361 -1.3340 -1.2965 -1.6428
19478TIP3   OH279924   1.114   4.957   0.035  0.1928  1.1151  0.5995
19478TIP3    H179925   1.120   5.046  -0.001 -1.6046  0.6885 -0.9555
19478TIP3    H279926   1.164   4.903  -0.026 -1.1383  0.6820 -0.1565
19479TIP3   OH279927   6.122   3.529   4.833 -0.0708 -0.1167 -0.2417
19479TIP3    H179928   6.123   3.625   4.840 -0.5414 -0.2255  2.2466
19479TIP3    H279929   6.081   3.512   4.748 -1.9697  1.9074  0.1640
19480TIP3   OH279930   1.175   0.556  13.627 -0.0155 -0.6332  0.3463
19480TIP3    H179931   1.216   0.591  13.706 -0.9331  1.1730  0.0711
19480TIP3    H279932   1.235   0.580  13.556  0.1638 -1.0955  0.3396
19481TIP3   OH279933   0.804   6.631   0.331  0.2695 -0.8767  0.2898
19481TIP3    H179934   0.886   6.617   0.284  0.3037 -1.5998  0.5480
19481TIP3    H279935   0.791   6.726   0.329  1.1530 -0.7468  0.3253
19482TIP3   OH279936   0.078   1.675  15.113 -0.2849 -0.2406  0.1503
19482TIP3    H179937   0.070   1.626  15.031 -0.2257  0.6264 -0.3850
19482TIP3    H279938   0.081   1.607  15.180  1.0995 -1.0491 -0.6572
19483TIP3   OH279939   5.954   3.622   3.737  0.9804 -1.3564 -0.6134
19483TIP3    H179940   5.903   3.606   3.657  0.4027 -1.6470 -0.1993
19483TIP3    H279941   5.919   3.559   3.800  0.5317 -0.2657  0.2532
19484TIP3   OH279942   4.766   0.595  12.584  0.0962 -0.0254 -0.7795
19484TIP3    H179943   4.732   0.518  12.538  1.9759 -1.3088 -0.1354
19484TIP3    H279944   4.774   0.567  12.675  1.6010  0.6026 -0.6876
19485TIP3   OH279945   3.215   4.162   5.736  0.3321  0.2674  0.1770
19485TIP3    H179946   3.226   4.109   5.814  0.9259  1.0164  0.6247
19485TIP3    H279947   3.124   4.149   5.710  0.1294  0.0021  0.9897
19486TIP3   OH279948   3.875   5.892   0.868  0.7708  0.0610  0.4980
19486TIP3    H179949   3.902   5.956   0.802  2.0661 -0.2361  0.7185
19486TIP3    H279950   3.873   5.808   0.821  1.3596 -0.0962  0.7469
19487TIP3   OH279951   0.726   4.146  15.570 -0.0420  0.0765 -0.0339
19487TIP3    H179952   0.740   4.240  15.559  0.4158  0.3231  2.1150
19487TIP3    H279953   0.753   4.129  15.661 -0.4067 -2.0746 -0.2850
19488TIP3   OH279954   1.375   4.019   2.561  0.3316  0.3634  0.2869
19488TIP3    H179955   1.318   3.995   2.488 -1.5265  1.2474  1.3689
19488TIP3    H279956   1.331   3.984   2.638  2.2076 -0.4704  1.0164
19489TIP3   OH279957   1.912   2.052   0.820 -0.5195  0.0639 -0.0222
19489TIP3    H179958   1.948   1.972   0.781  0.1069 -0.4355  1.4812
19489TIP3    H279959   1.823   2.056   0.787  0.1712  0.0569 -2.0046
19490TIP3   OH279960   0.542   6.036   3.061  0.1652 -0.1659  0.5230
19490TIP3    H179961   0.461   5.985   3.052  0.0953  0.0617 -0.1889
19490TIP3    H279962   0.513   6.127   3.064  0.3742 -0.0988  0.5423
19491TIP3   OH279963   2.350   1.076   2.282 -0.1693 -0.1304  0.1003
19491TIP3    H179964   2.264   1.116   2.293  0.2901  0.4605  2.0191
19491TIP3    H279965   2.341   1.020   2.205 -1.5208  1.8332 -1.2793
19492TIP3   OH279966   2.598   3.020  11.701  0.3667 -0.1809 -0.3921
19492TIP3    H179967   2.624   2.950  11.642 -1.5108 -0.9074 -0.4401
19492TIP3    H279968   2.654   3.010  11.777 -0.0229 -1.9273 -0.2919
19493TIP3   OH279969   6.020   0.795   5.267  0.3442  0.1367  0.5186
19493TIP3    H179970   6.077   0.753   5.202 -0.0369 -0.0432  0.2949
19493TIP3    H279971   6.067   0.874   5.293  1.6765 -1.0509  1.8859
19494TIP3   OH279972   4.666   1.550   5.951  0.9016 -0.2449  0.0508
19494TIP3    H179973   4.591   1.500   5.983  0.8974 -0.3448 -0.1156
19494TIP3    H279974   4.729   1.546   6.023  0.0957  1.2769  0.8862
19495TIP3   OH279975   4.857   6.002  12.507 -0.5008 -0.2510 -0.6346
19495TIP3    H179976   4.785   5.973  12.451 -0.8828 -3.3653  1.1833
19495TIP3    H279977   4.917   5.927  12.510  0.4417  0.4913  1.5348
19496TIP3   OH279978   1.614   3.429   3.148  0.4651 -0.3698  0.1071
19496TIP3    H179979   1.600   3.419   3.054  2.4007 -0.5896 -0.1884
19496TIP3    H279980   1.639   3.342   3.178  2.5986  0.2326  0.2703
19497TIP3   OH279981   4.649   4.963   0.888 -0.0013 -0.1255  0.4316
19497TIP3    H179982   4.607   4.930   0.808 -0.6850  0.2617  0.6276
19497TIP3    H279983   4.582   4.955   0.956  0.2459  0.4860  0.7506
19498TIP3   OH279984   5.862   4.442   3.923  0.1228 -0.0929 -0.0780
19498TIP3    H179985   5.878   4.419   4.014  1.2042  1.8437  0.2708
19498TIP3    H279986   5.949   4.438   3.882 -0.1218  0.4286 -0.6620
19499TIP3   OH279987   4.992   5.196  13.332  0.3478  0.0905  0.0518
19499TIP3    H179988   5.006   5.251  13.255  2.5222  0.8667  0.9154
19499TIP3    H279989   4.927   5.243  13.384  0.1114  0.4251 -0.5441
19500TIP3   OH279990   0.933   6.358  11.575  0.0649 -0.7902 -0.5785
19500TIP3    H179991   1.001   6.310  11.622  0.5584 -0.5319 -1.0231
19500TIP3    H279992   0.956   6.348  11.483 -0.0131  0.0158 -0.6943
19501TIP3   OH279993   0.639   2.835   4.012 -0.1109 -0.1013 -0.0178
19501TIP3    H179994   0.578   2.772   4.050  1.8759 -0.9748  1.9545
19501TIP3    H279995   0.624   2.915   4.061 -0.7655  0.1845 -0.6658
19502TIP3   OH279996   5.248   3.476   5.578 -0.5759 -0.0004 -0.4484
19502TIP3    H179997   5.206   3.534   5.515  1.3567  2.5590  0.4341
19502TIP3    H279998   5.324   3.440   5.531 -0.4352  0.0684 -0.2745
19503TIP3   OH279999   4.631   0.088  12.618 -0.2037 -0.2905  0.2205
19503TIP3    H180000   4.554   0.050  12.576  0.6469 -0.2658 -1.4373
19503TIP3    H280001   4.698   0.021  12.610  0.2905  0.1614  0.5462
19504TIP3   OH280002   5.955   2.499  16.203  0.1061  0.4589 -0.1558
19504TIP3    H180003   5.968   2.475  16.295  1.2310 -0.1613 -0.4703
19504TIP3    H280004   5.970   2.419  16.154 -2.4602  0.2712 -0.7918
19505TIP3   OH280005   2.744   0.068   1.268 -0.8573 -0.0330  0.1639
19505TIP3    H180006   2.774   0.148   1.310 -0.9488  0.3640 -0.5020
19505TIP3    H280007   2.711   0.013   1.339 -0.0404  0.1864  0.7174
19506TIP3   OH280008   0.410   1.240  16.243  0.2982  0.2334  0.1601
19506TIP3    H180009   0.471   1.227  16.171  1.4671 -1.1781  1.3280
19506TIP3    H280010   0.389   1.151  16.273 -1.9558  0.6937  0.1440
19507TIP3   OH280011   3.532   0.137   4.822 -0.7486 -0.2846 -0.3965
19507TIP3    H180012   3.602   0.079   4.792  0.1932  0.3341  0.5123
19507TIP3    H280013   3.507   0.103   4.908 -0.6053  0.3010 -0.1198
19508TIP3   OH280014   5.677   1.914   2.593 -0.7485  0.0510 -0.4767
19508TIP3    H180015   5.641   1.928   2.506 -1.0728 -0.4515 -0.4279
19508TIP3    H280016   5.600   1.913   2.651 -0.6112 -0.4877 -0.2983
19509TIP3   OH280017   3.014   4.142  11.683 -0.1275  0.7496  0.1577
19509TIP3    H180018   3.077   4.176  11.619  1.8974  0.7069  1.9910
19509TIP3    H280019   2.986   4.058  11.647 -0.7062  1.6889 -1.6550
19510TIP3   OH280020   2.747   1.375  12.612 -0.2748  0.3062 -0.3696
19510TIP3    H180021   2.815   1.385  12.678  0.4396  0.1196 -1.0543
19510TIP3    H280022   2.715   1.286  12.623  0.2541  0.0794 -0.6539
19511TIP3   OH280023   1.199   2.293   1.472  0.1334 -0.0072 -0.4332
19511TIP3    H180024   1.147   2.370   1.491 -1.9385 -0.6535 -2.9194
19511TIP3    H280025   1.223   2.258   1.558 -1.5816  1.6169  0.7823
19512TIP3   OH280026   4.163   4.484   5.271 -0.0766  0.1483  0.1689
19512TIP3    H180027   4.140   4.473   5.178 -0.1765  1.1094  0.0629
19512TIP3    H280028   4.160   4.579   5.284  2.2066  0.2120  0.5677
19513TIP3   OH280029   4.865   1.349  12.660  0.5230  0.2965 -0.3801
19513TIP3    H180030   4.852   1.292  12.736  2.3994 -0.0214 -0.2541
19513TIP3    H280031   4.904   1.293  12.593  0.7656  1.0356 -0.8756
19514TIP3   OH280032   0.892   2.743   0.311  0.1507 -0.1909  0.5465
19514TIP3    H180033   0.958   2.799   0.352  2.1017 -1.4811 -0.6222
19514TIP3    H280034   0.886   2.668   0.370  1.5843 -1.1804 -0.4795
19515TIP3   OH280035   0.266   2.814   0.766  0.2997  0.4036  0.5124
19515TIP3    H180036   0.216   2.873   0.710  1.9797  0.5102 -0.9577
19515TIP3    H280037   0.305   2.871   0.832 -1.4386  0.3162  1.6953
19516TIP3   OH280038   6.138   6.508  11.986 -0.2510 -0.1846 -0.0988
19516TIP3    H180039   6.225   6.547  11.973 -0.2987  0.6485  1.7531
19516TIP3    H280040   6.156   6.421  12.022 -0.2031 -0.5912 -1.0518
19517TIP3   OH280041   1.462   5.581  14.816 -0.1130 -0.5410  0.0692
19517TIP3    H180042   1.554   5.575  14.793 -0.5348  1.1187 -2.5461
19517TIP3    H280043   1.419   5.608  14.735 -2.8233 -0.6346  1.3528
19518TIP3   OH280044   4.643   3.629  17.072  0.1908 -0.3967 -0.0491
19518TIP3    H180045   4.712   3.681  17.031 -0.0001 -0.6059 -0.6517
19518TIP3    H280046   4.601   3.584  16.999 -0.7060 -0.1205  0.2830
19519TIP3   OH280047   0.473   3.133  12.624 -0.3367  0.0144 -0.2338
19519TIP3    H180048   0.397   3.129  12.565 -0.2827  0.9618 -0.3892
19519TIP3    H280049   0.522   3.210  12.594 -0.6523  0.9170  1.4461
19520TIP3   OH280050   0.010   3.504  11.768 -0.4155  0.5400 -0.2966
19520TIP3    H180051   0.039   3.534  11.853 -3.0331  1.6888  0.2899
19520TIP3    H280052  -0.084   3.523  11.766 -1.4347 -3.5309 -1.6739
19521TIP3   OH280053   4.171   2.982  16.304  0.9144 -0.2019 -0.1306
19521TIP3    H180054   4.114   2.915  16.342  0.5385  0.4530  0.5047
19521TIP3    H280055   4.184   2.955  16.214 -0.2531 -0.4733 -0.2301
19522TIP3   OH280056   0.673   6.058   1.253  0.3739 -0.3676  0.1139
19522TIP3    H180057   0.602   6.048   1.189 -0.7421 -0.4086  1.3078
19522TIP3    H280058   0.751   6.025   1.208 -0.7784 -2.4634 -0.4864
19523TIP3   OH280059   2.743   3.731   3.381 -0.3460  0.1233  0.1233
19523TIP3    H180060   2.699   3.809   3.416 -3.2241 -2.4317  2.7310
19523TIP3    H280061   2.692   3.707   3.304  0.3082  0.5433 -0.4539
19524TIP3   OH280062   4.488   2.928   2.459  0.5952 -0.2224 -0.0922
19524TIP3    H180063   4.583   2.933   2.458  0.7358 -1.3668  1.6417
19524TIP3    H280064   4.465   2.874   2.384  1.3882 -0.5569 -0.1011
19525TIP3   OH280065   1.868   4.231   3.268 -0.2266  0.1687  0.1705
19525TIP3    H180066   1.913   4.299   3.218 -0.6919  0.1762 -0.2477
19525TIP3    H280067   1.937   4.190   3.321  0.6954 -1.2204 -1.9795
19526TIP3   OH280068   3.154   5.976  11.827 -0.5138  0.2804 -0.5571
19526TIP3    H180069   3.186   5.888  11.806 -0.9140 -0.1857  0.6826
19526TIP3    H280070   3.233   6.028  11.839 -0.2708  0.0100 -0.9471
19527TIP3   OH280071   0.957   2.210  13.088 -0.4049 -0.1703  0.0293
19527TIP3    H180072   0.959   2.259  13.169  0.5646  1.1257 -0.7473
19527TIP3    H280073   0.896   2.137  13.105 -1.2140  0.8065  1.4757
19528TIP3   OH280074   5.118   4.446  14.743  0.4987  0.3926  0.1255
19528TIP3    H180075   5.074   4.503  14.679 -1.1889 -1.1119 -0.1676
19528TIP3    H280076   5.068   4.458  14.824  0.2711 -0.4756  0.1207
19529TIP3   OH280077   5.641   1.403   3.132 -0.5345 -0.8673 -0.3782
19529TIP3    H180078   5.629   1.392   3.227  0.8999 -0.1525 -0.0759
19529TIP3    H280079   5.642   1.498   3.119 -1.3120 -0.9657 -1.2061
19530TIP3   OH280080   2.960   2.858  11.866 -0.1438 -0.7874  0.1980
19530TIP3    H180081   3.001   2.941  11.890 -0.4047  0.1450 -2.2984
19530TIP3    H280082   2.901   2.838  11.939  0.3965  0.8769  1.1444
19531TIP3   OH280083   1.288   5.717   6.201 -0.3010 -0.1545  0.0881
19531TIP3    H180084   1.324   5.701   6.113 -0.8952  0.0999 -0.2006
19531TIP3    H280085   1.321   5.804   6.224  0.3124 -0.4486  0.3531
19532TIP3   OH280086   3.682   0.488   2.792  0.0586 -0.7788  0.3738
19532TIP3    H180087   3.649   0.464   2.705 -0.3249 -1.2349  0.6387
19532TIP3    H280088   3.738   0.415   2.817  1.0375 -0.1534  0.0628
19533TIP3   OH280089   3.099   1.340   4.257  0.1681  0.5360 -0.9572
19533TIP3    H180090   3.181   1.387   4.249 -0.2815  1.2714 -1.3327
19533TIP3    H280091   3.073   1.320   4.167  0.8789 -1.4100 -0.7921
19534TIP3   OH280092   1.956   2.374  16.649 -0.0087 -0.3405 -0.0106
19534TIP3    H180093   2.048   2.386  16.673 -0.7010  1.5475  1.9951
19534TIP3    H280094   1.941   2.439  16.580 -0.3903  1.2098  1.4443
19535TIP3   OH280095   6.536   3.841   1.306  0.1049 -0.2670 -0.4794
19535TIP3    H180096   6.468   3.856   1.241 -0.4624 -0.2958  0.1030
19535TIP3    H280097   6.614   3.884   1.270 -0.7202  1.5233 -0.2213
19536TIP3   OH280098   1.948   0.639   0.513 -0.0405  0.4790 -0.0018
19536TIP3    H180099   1.939   0.727   0.550  0.8964  0.1110  1.1741
19536TIP3    H280100   2.039   0.615   0.532 -0.5551 -1.1218  0.5633
19537TIP3   OH280101   1.098   1.819   4.958  0.0974  0.2472 -0.2780
19537TIP3    H180102   1.159   1.893   4.958  0.6543 -0.2069  0.1167
19537TIP3    H280103   1.018   1.854   4.917  1.3089  0.2871 -2.7811
19538TIP3   OH280104   0.265   1.222  13.461 -0.9710  0.3412 -0.0627
19538TIP3    H180105   0.263   1.182  13.547  1.4487 -0.8665 -0.4728
19538TIP3    H280106   0.303   1.155  13.404  3.4596  3.0592 -0.7684
19539TIP3   OH280107   5.149   5.147   4.905  0.1294 -0.2753  0.2378
19539TIP3    H180108   5.131   5.125   4.814  2.4985 -1.6691  0.0238
19539TIP3    H280109   5.063   5.150   4.947 -1.0049  0.2457 -1.9796
19540TIP3   OH280110   4.447   5.388   5.578  0.0569  0.1491  0.4803
19540TIP3    H180111   4.519   5.351   5.528 -0.2871  0.2841 -0.1258
19540TIP3    H280112   4.368   5.353   5.537 -0.2717  1.2859  0.0872
19541TIP3   OH280113   0.316   4.943  16.020 -0.0316  0.5099  0.0700
19541TIP3    H180114   0.222   4.936  16.001 -0.4226 -0.0624  1.9659
19541TIP3    H280115   0.323   5.023  16.073  0.7464  1.1449 -0.9504
19542TIP3   OH280116   4.941   0.748  10.971  0.4743  0.1374 -0.8555
19542TIP3    H180117   4.965   0.702  10.892  1.5707  0.4084 -0.6955
19542TIP3    H280118   4.931   0.680  11.037 -0.1355 -0.0582 -1.1409
19543TIP3   OH280119   0.195   4.236   5.371  0.3417  0.6204  0.2791
19543TIP3    H180120   0.109   4.201   5.391 -0.2195  0.2597 -2.3443
19543TIP3    H280121   0.257   4.173   5.408 -0.5758 -0.4385  0.0329
19544TIP3   OH280122   2.307   4.207  12.530 -0.0491  0.3918  0.5055
19544TIP3    H180123   2.379   4.251  12.576  1.3603 -0.8688 -0.3971
19544TIP3    H280124   2.262   4.278  12.483  0.6924  1.1943  0.9687
19545TIP3   OH280125   1.675   6.656  16.247 -0.2256 -0.0913  0.0291
19545TIP3    H180126   1.748   6.718  16.243 -1.6208  1.6537  0.0105
19545TIP3    H280127   1.667   6.622  16.158 -0.8818  1.5292 -0.5708
19546TIP3   OH280128   0.037   2.032  13.478  0.0156  0.4517  0.2270
19546TIP3    H180129   0.061   2.091  13.550  2.1095 -0.0506 -0.0004
19546TIP3    H280130   0.090   2.061  13.404  2.4572 -2.6518  0.5648
19547TIP3   OH280131   2.397   2.096  15.958 -0.4609  0.0692  0.2975
19547TIP3    H180132   2.483   2.123  15.927 -0.2034  0.0417  0.9657
19547TIP3    H280133   2.365   2.035  15.892  1.4944 -2.6253  1.6542
19548TIP3   OH280134   4.280   5.850  15.944 -0.0433 -0.1231  0.9819
19548TIP3    H180135   4.268   5.915  15.876 -0.0525 -0.6397  0.4820
19548TIP3    H280136   4.370   5.819  15.932 -0.0130 -0.1508  1.2632
19549TIP3   OH280137   4.924   3.817   5.668 -0.7415  0.4596  0.0935
19549TIP3    H180138   4.898   3.822   5.576  0.9974  0.0295 -0.4506
19549TIP3    H280139   4.996   3.879   5.677  0.1335 -0.6140  0.7704
19550TIP3   OH280140   2.070   0.684   5.708  0.8302  0.1432  0.7561
19550TIP3    H180141   2.143   0.729   5.751  1.5213  0.0339 -0.2681
19550TIP3    H280142   2.095   0.680   5.616  0.3279 -1.4618  0.6623
19551TIP3   OH280143   6.553   6.614  11.428  0.0686  0.0607  0.1079
19551TIP3    H180144   6.464   6.645  11.412 -0.9929 -2.6982  0.1116
19551TIP3    H280145   6.609   6.688  11.402 -2.1581  1.6422 -0.5230
19552TIP3   OH280146   3.695   5.072   1.508 -0.4092 -0.5966  0.5801
19552TIP3    H180147   3.643   5.152   1.510  0.7660  0.3731 -2.4072
19552TIP3    H280148   3.683   5.037   1.419  2.6981 -1.1819  0.2591
19553TIP3   OH280149   6.001   4.155   6.249  0.2110  0.1510  0.2794
19553TIP3    H180150   6.055   4.087   6.207 -0.5417  0.0534 -0.5675
19553TIP3    H280151   6.039   4.237   6.220 -0.1398  0.0827 -0.3885
19554TIP3   OH280152   4.276   2.242  12.991  0.1005 -0.0493  0.5383
19554TIP3    H180153   4.252   2.327  12.954 -0.6085 -0.6281 -0.3914
19554TIP3    H280154   4.370   2.233  12.973  0.3826  0.9147  1.4550
19555TIP3   OH280155   0.912   3.688  17.194 -0.1538 -0.7840 -0.8227
19555TIP3    H180156   0.999   3.726  17.182 -0.6127  0.6628  0.1299
19555TIP3    H280157   0.928   3.597  17.219  1.0591 -0.6679 -1.1198
19556TIP3   OH280158   3.730   3.299   3.317 -0.1353 -0.1949  0.1311
19556TIP3    H180159   3.762   3.381   3.279  0.1174 -0.9925 -1.4837
19556TIP3    H280160   3.671   3.264   3.250 -2.5460  0.0491  2.0012
19557TIP3   OH280161   5.730   3.653  16.543 -0.6813 -0.0322 -0.0248
19557TIP3    H180162   5.761   3.739  16.571 -0.5071 -0.5067  1.2927
19557TIP3    H280163   5.787   3.591  16.587 -2.3709 -0.8910  1.0878
19558TIP3   OH280164   1.928   3.260   4.557 -0.4578  0.0864  0.1688
19558TIP3    H180165   1.944   3.217   4.641 -0.7980  0.2733  0.3332
19558TIP3    H280166   1.951   3.352   4.572  0.0076  0.0166 -0.1018
19559TIP3   OH280167   0.025   3.707   4.604 -0.6677 -0.4360  0.2793
19559TIP3    H180168  -0.056   3.662   4.581 -0.2289 -0.0307 -2.3914
19559TIP3    H280169  -0.004   3.790   4.641 -1.5133 -0.1368 -0.9744
19560TIP3   OH280170   6.536   2.985  16.686 -0.3437  0.0338 -0.1149
19560TIP3    H180171   6.577   3.021  16.607  2.0080  0.8984  1.3994
19560TIP3    H280172   6.445   3.014  16.681  0.0731  1.2195 -1.8305
19561TIP3   OH280173   2.564   6.655  12.428  0.3109  0.2206 -0.3362
19561TIP3    H180174   2.533   6.579  12.378  0.8534 -0.5630  0.4813
19561TIP3    H280175   2.560   6.626  12.519  2.0537  0.5922 -0.1071
19562TIP3   OH280176   4.065   4.081   5.127 -0.3721 -0.4614  0.6177
19562TIP3    H180177   3.969   4.090   5.131 -0.2305  0.8138  1.6888
19562TIP3    H280178   4.096   4.125   5.206  1.2634  1.6426 -1.0745
19563TIP3   OH280179   5.804   2.910  12.739  0.4575  0.3775 -0.2473
19563TIP3    H180180   5.716   2.940  12.764  0.5437 -1.0293  2.0272
19563TIP3    H280181   5.863   2.978  12.772  0.5309 -1.2294  3.3519
19564TIP3   OH280182   4.807   1.831  13.378  0.1476  0.3221 -0.3924
19564TIP3    H180183   4.885   1.784  13.405  0.7056  1.5526  0.2277
19564TIP3    H280184   4.839   1.900  13.319 -0.8130 -0.9634 -2.5603
19565TIP3   OH280185   2.632   2.742  10.741  0.2196 -0.0710  0.5678
19565TIP3    H180186   2.705   2.785  10.787 -0.9253  1.0790  1.3840
19565TIP3    H280187   2.674   2.675  10.687  1.9066  0.7327  0.8096
19566TIP3   OH280188   1.249   4.132  11.475  0.5181 -0.3412 -0.0803
19566TIP3    H180189   1.265   4.139  11.381 -0.1690  0.7261 -0.1311
19566TIP3    H280190   1.196   4.053  11.484  0.1893 -0.1912 -0.6471
19567TIP3   OH280191   5.298   1.491   1.615  0.9970  0.2566  0.5389
19567TIP3    H180192   5.222   1.457   1.567  2.7008 -1.7510 -0.9436
19567TIP3    H280193   5.281   1.584   1.624 -1.3817 -0.0380 -0.2135
19568TIP3   OH280194   2.049   6.694   1.420 -0.2543  0.6829  0.0845
19568TIP3    H180195   2.018   6.720   1.507 -0.2401 -0.3112  0.3934
19568TIP3    H280196   2.058   6.599   1.424  1.7497  0.8039 -0.3444
19569TIP3   OH280197   6.822   0.138   3.289  0.3431 -1.0210 -0.3597
19569TIP3    H180198   6.906   0.100   3.316 -0.4610 -1.5636  1.4895
19569TIP3    H280199   6.792   0.081   3.218  0.5800 -2.0511  0.3538
19570TIP3   OH280200   5.338   5.671   6.110  0.5049  0.4474  0.3214
19570TIP3    H180201   5.296   5.675   6.196  0.1666  0.1843  0.1691
19570TIP3    H280202   5.268   5.645   6.050  1.0321 -0.6973  0.1721
19571TIP3   OH280203   0.992   4.071  15.239  0.0422 -0.3066  0.5140
19571TIP3    H180204   0.944   4.006  15.291  0.8969 -1.6026 -0.2746
19571TIP3    H280205   0.969   4.051  15.149 -0.4588  1.1438  0.3014
19572TIP3   OH280206   1.244   3.240  13.479 -0.4722  0.1762 -0.3309
19572TIP3    H180207   1.338   3.225  13.465 -0.6059 -0.4403 -0.5424
19572TIP3    H280208   1.224   3.317  13.425  0.3290  1.5295  1.2038
19573TIP3   OH280209   5.733   1.082  15.413  0.4854  0.7503  0.7407
19573TIP3    H180210   5.661   1.077  15.476  1.2951 -1.3315  1.5640
19573TIP3    H280211   5.766   1.172  15.422  0.1030  0.7333  2.7405
19574TIP3   OH280212   2.630   5.805  15.623  0.0539  0.1506  0.0342
19574TIP3    H180213   2.679   5.886  15.610  2.3693 -0.8941  1.5553
19574TIP3    H280214   2.675   5.741  15.567  0.0166 -0.6666  0.9117
19575TIP3   OH280215   2.152   3.306  15.559  0.9596 -0.0717 -0.0731
19575TIP3    H180216   2.191   3.375  15.506 -0.3876 -0.6114 -1.8697
19575TIP3    H280217   2.193   3.226  15.528 -0.1053 -0.4328 -0.5958
19576TIP3   OH280218   6.191   1.638   1.292  0.6215  0.0181  0.2828
19576TIP3    H180219   6.169   1.587   1.214  2.6284 -0.5660  0.0608
19576TIP3    H280220   6.169   1.579   1.365  2.8401 -1.2138  0.0277
19577TIP3   OH280221   3.296   3.417  13.579 -0.2142  0.1204 -0.1735
19577TIP3    H180222   3.389   3.403  13.593 -0.0557  1.2982  0.0446
19577TIP3    H280223   3.260   3.329  13.569  1.0088 -0.3225 -0.8978
19578TIP3   OH280224   4.438   3.098   2.109 -0.2341  0.6009 -0.3533
19578TIP3    H180225   4.352   3.058   2.117 -1.3636  2.8868 -0.2753
19578TIP3    H280226   4.459   3.091   2.016 -1.0905  1.1281 -0.5968
19579TIP3   OH280227   6.304   1.565   2.484 -0.3837  0.5062  0.1001
19579TIP3    H180228   6.212   1.548   2.468 -0.4010  0.6437  0.0500
19579TIP3    H280229   6.333   1.613   2.406 -0.5979  1.6664  0.7073
19580TIP3   OH280230   6.653   4.304  15.250 -0.0682  0.0135 -0.5061
19580TIP3    H180231   6.609   4.286  15.167  0.7668 -0.3317 -0.8832
19580TIP3    H280232   6.712   4.230  15.262 -2.1217 -1.4468  1.7700
19581TIP3   OH280233   0.670   2.185  15.858  0.1179  0.2510  0.7293
19581TIP3    H180234   0.686   2.152  15.946  1.0230  0.9286  0.8464
19581TIP3    H280235   0.693   2.113  15.800  0.4180  0.1065  1.0276
19582TIP3   OH280236   3.295   2.568  12.097  0.2666 -0.2709 -0.3519
19582TIP3    H180237   3.332   2.518  12.170  0.1268 -1.4591 -1.0628
19582TIP3    H280238   3.354   2.551  12.024  1.1428  1.9633 -0.2297
19583TIP3   OH280239   1.216   0.140   6.717 -0.7723 -0.2544  0.3269
19583TIP3    H180240   1.205   0.231   6.742  0.6817  0.0110  0.0844
19583TIP3    H280241   1.284   0.107   6.776 -0.6843 -0.9458 -0.1499
19584TIP3   OH280242   3.097   0.387  16.519  0.5267  0.2943  0.6205
19584TIP3    H180243   3.066   0.476  16.502 -0.6517  0.2777  2.4318
19584TIP3    H280244   3.065   0.366  16.606  2.2796 -1.2793  0.9637
19585TIP3   OH280245   0.634   0.649  10.512  0.1081 -0.3587 -0.3095
19585TIP3    H180246   0.641   0.705  10.590 -0.5989 -2.2921  1.2357
19585TIP3    H280247   0.719   0.606  10.507 -0.5118 -1.7667  0.6809
19586TIP3   OH280248   1.415   1.357   4.270 -0.2192 -0.0021  0.5905
19586TIP3    H180249   1.390   1.274   4.230  1.0329  0.1843 -0.7015
19586TIP3    H280250   1.396   1.422   4.202 -0.0059  0.6026  1.1041
19587TIP3   OH280251   3.199   1.047  12.801 -0.8112 -0.1055  0.1492
19587TIP3    H180252   3.117   1.096  12.809 -1.1185 -0.7832  1.2644
19587TIP3    H280253   3.267   1.111  12.822 -1.1791 -0.0188  1.1103
19588TIP3   OH280254   3.294   2.588   4.829 -0.1342  0.8988  0.2625
19588TIP3    H180255   3.352   2.557   4.760 -1.9415  0.0238 -0.9281
19588TIP3    H280256   3.226   2.521   4.836 -1.4898  2.2831  0.9888
19589TIP3   OH280257   5.071   3.393  13.342  0.2175 -0.8601  0.4577
19589TIP3    H180258   4.988   3.432  13.316  1.1352  0.3596 -0.7549
19589TIP3    H280259   5.089   3.327  13.275  2.4966  2.1648 -2.1952
19590TIP3   OH280260   4.780   6.405   5.203  0.0829 -0.0331 -0.1415
19590TIP3    H180261   4.769   6.469   5.274  0.0594 -0.8760  0.6353
19590TIP3    H280262   4.874   6.386   5.202 -0.1577 -1.4432  0.9674
19591TIP3   OH280263   5.514   3.774  13.142 -0.4278 -0.1943 -0.1748
19591TIP3    H180264   5.473   3.800  13.060 -0.2082 -0.4674 -0.3743
19591TIP3    H280265   5.446   3.725  13.189 -1.0827  1.3491  0.5319
19592TIP3   OH280266   3.898   1.330   0.175 -0.2824  0.3033 -0.5191
19592TIP3    H180267   3.820   1.376   0.144  0.0938  0.2945 -1.5333
19592TIP3    H280268   3.880   1.237   0.158  1.0805  0.4613 -3.6660
19593TIP3   OH280269   3.556   4.672   4.233 -0.7726  0.3390 -0.1230
19593TIP3    H180270   3.649   4.652   4.242 -0.5924  1.5438  0.7669
19593TIP3    H280271   3.547   4.763   4.259 -2.3371  0.0032  0.6681
19594TIP3   OH280272   3.758   5.697  14.423  0.0603 -0.0163 -0.5788
19594TIP3    H180273   3.725   5.731  14.506 -0.6094  0.8890 -1.2039
19594TIP3    H280274   3.779   5.605  14.442 -1.2312 -0.1659  0.2870
19595TIP3   OH280275   1.546   1.244   0.247  0.2954  0.5399  0.7098
19595TIP3    H180276   1.452   1.250   0.227  0.2540  3.3800  1.2481
19595TIP3    H280277   1.586   1.215   0.166 -1.0522 -1.1300  0.5826
19596TIP3   OH280278   6.469   1.955  15.568  0.1184 -0.4373 -0.6105
19596TIP3    H180279   6.522   1.888  15.524  0.2608 -1.2122  0.6795
19596TIP3    H280280   6.512   2.038  15.546 -1.4132 -0.4184 -4.1806
19597TIP3   OH280281   1.916   4.722   4.546 -0.4757  0.0906  0.3377
19597TIP3    H180282   1.825   4.740   4.523 -0.4516 -1.3017 -1.0011
19597TIP3    H280283   1.919   4.628   4.558  0.4410  0.3150  2.1228
19598TIP3   OH280284   1.066   1.210   0.010 -0.8204  0.2689 -0.1747
19598TIP3    H180285   1.049   1.117  -0.006  0.3282  0.2052 -1.1268
19598TIP3    H280286   1.003   1.256  -0.044 -1.2060  0.0491  0.0835
19599TIP3   OH280287   2.431   4.047   3.322  0.4719 -0.5995  0.7580
19599TIP3    H180288   2.473   4.072   3.240  0.6790  0.0496  1.0500
19599TIP3    H280289   2.350   4.004   3.296 -0.7074  1.7876  0.1987
19600TIP3   OH280290   4.437   4.030   5.407  0.5606  0.1334  0.3436
19600TIP3    H180291   4.386   4.097   5.363  1.6566  1.0391  0.3869
19600TIP3    H280292   4.373   3.978   5.455 -0.5367 -0.1712 -1.3833
19601TIP3   OH280293   4.196   4.607  15.836  0.1953  0.0968  0.6054
19601TIP3    H180294   4.115   4.637  15.795  0.2608 -1.0668 -0.4435
19601TIP3    H280295   4.262   4.669  15.805  0.1126 -0.3463 -0.4978
19602TIP3   OH280296   4.484   5.868  17.050  0.3357 -0.2782  0.2082
19602TIP3    H180297   4.540   5.842  17.124 -0.3700 -1.5509  0.3193
19602TIP3    H280298   4.522   5.822  16.975  0.4309  0.1889 -0.0309
19603TIP3   OH280299   2.394   6.001   0.178 -0.4421 -0.1834  0.5393
19603TIP3    H180300   2.333   5.996   0.252  0.4118 -0.4960  1.2359
19603TIP3    H280301   2.341   6.037   0.107 -0.9844  1.3378  1.6455
19604TIP3   OH280302   3.207   4.573   5.571  0.4999 -0.2142 -0.0597
19604TIP3    H180303   3.122   4.532   5.556  0.4580 -0.2555  0.2790
19604TIP3    H280304   3.240   4.532   5.651  0.3774  0.5326  0.3870
19605TIP3   OH280305   4.058   4.033  11.386  0.0676  0.4937  0.5518
19605TIP3    H180306   4.042   3.969  11.456  1.0470 -1.0863 -0.6031
19605TIP3    H280307   4.154   4.040  11.381  0.1249 -0.9875 -1.9182
19606TIP3   OH280308   1.466   3.405   0.917  0.4204 -0.4755 -0.3922
19606TIP3    H180309   1.523   3.482   0.924  0.3202 -0.4561  0.2936
19606TIP3    H280310   1.480   3.358   0.999 -1.4208  0.1511  0.3328
19607TIP3   OH280311   6.357   5.885  13.261  1.0708  0.2025 -0.1596
19607TIP3    H180312   6.303   5.813  13.229  0.4377  0.4143  0.4094
19607TIP3    H280313   6.444   5.846  13.271  0.5133 -0.8061  1.1790
19608TIP3   OH280314   6.447   6.823   5.748  0.1221 -0.0718 -0.2138
19608TIP3    H180315   6.541   6.829   5.760  0.0586  0.1904  0.1709
19608TIP3    H280316   6.413   6.910   5.770  0.1216  1.0362 -3.9352
19609TIP3   OH280317   4.654   0.890  16.846  0.3080 -0.9544  0.0275
19609TIP3    H180318   4.667   0.882  16.941  0.0217 -1.4834  0.0236
19609TIP3    H280319   4.563   0.917  16.837  1.1214  2.1466  0.0232
19610TIP3   OH280320   2.430   0.851   0.246  0.6797  0.0373 -0.1962
19610TIP3    H180321   2.458   0.883   0.160 -0.4536  1.4524 -0.0728
19610TIP3    H280322   2.454   0.921   0.307 -0.9178  0.2555  0.2346
19611TIP3   OH280323   6.507   6.284  11.723  0.2850  0.3090 -0.1083
19611TIP3    H180324   6.452   6.221  11.676  0.9386  1.3397 -2.4234
19611TIP3    H280325   6.458   6.366  11.719  1.1955  0.8376 -0.6502
19612TIP3   OH280326   5.642   6.364   2.069 -0.0249 -0.2770  0.1628
19612TIP3    H180327   5.616   6.272   2.068 -0.1505 -0.2398  0.0543
19612TIP3    H280328   5.738   6.362   2.078  0.1971 -0.4715 -1.7988
19613TIP3   OH280329   1.284   6.668   4.659 -0.2804 -0.3024  0.1630
19613TIP3    H180330   1.267   6.639   4.749  0.1501  0.2218  0.4175
19613TIP3    H280331   1.374   6.698   4.660 -0.6156  0.7438 -0.1797
19614TIP3   OH280332   6.157   6.422   3.586  0.3086 -0.0148  0.3037
19614TIP3    H180333   6.130   6.468   3.665 -0.4771  0.2282 -0.0888
19614TIP3    H280334   6.076   6.381   3.554  0.5229  0.2666 -0.6173
19615TIP3   OH280335   1.986   5.646   4.953 -0.3009  0.4217  0.1483
19615TIP3    H180336   1.973   5.741   4.961 -1.2632  0.2042  1.4281
19615TIP3    H280337   1.943   5.623   4.871 -0.8819  0.9576  0.2932
19616TIP3   OH280338   2.363   2.935  11.120  0.4594 -0.6846  0.0258
19616TIP3    H180339   2.451   2.927  11.085 -0.7452 -2.2033 -3.0191
19616TIP3    H280340   2.365   2.887  11.202  2.0960 -2.1149 -0.7905
19617TIP3   OH280341   6.701   2.966  13.642 -0.1895 -0.0292 -0.0031
19617TIP3    H180342   6.716   2.982  13.735  0.2437 -0.4886  0.0083
19617TIP3    H280343   6.621   2.913  13.639 -0.6349  0.6311  0.0582
19618TIP3   OH280344   6.338   2.987   4.438  0.3433  0.4993 -0.2548
19618TIP3    H180345   6.289   2.919   4.391  0.8565  1.1694 -1.8370
19618TIP3    H280346   6.410   2.940   4.480 -0.8145 -0.2951  0.9331
19619TIP3   OH280347   5.737   0.905  14.138 -0.3251 -0.3243  0.2239
19619TIP3    H180348   5.780   0.987  14.162 -1.2788  0.2797 -0.0937
19619TIP3    H280349   5.755   0.894  14.045  0.0623 -0.6469  0.3314
19620TIP3   OH280350   4.007   5.263   6.772 -0.0224 -0.1744  0.2096
19620TIP3    H180351   4.035   5.340   6.722 -1.5410  1.2555  1.4418
19620TIP3    H280352   3.912   5.264   6.766 -0.1112 -1.4213  1.0484
19621TIP3   OH280353   4.161   3.066  11.854  0.6425  0.0502 -0.3754
19621TIP3    H180354   4.151   3.025  11.768  0.4251  3.2209 -2.0231
19621TIP3    H280355   4.109   3.147  11.848  1.2167  0.7468  2.5031
19622TIP3   OH280356   6.118   4.507   3.174 -0.2368  0.4682 -0.1518
19622TIP3    H180357   6.047   4.499   3.110 -1.1361  0.3456  0.8262
19622TIP3    H280358   6.131   4.418   3.207 -0.9943  0.7780  1.0673
19623TIP3   OH280359   1.579   5.830   0.717 -0.3444  0.8068  0.2127
19623TIP3    H180360   1.663   5.843   0.672  0.4896 -0.8471  1.1879
19623TIP3    H280361   1.550   5.744   0.688 -0.2932  0.1527  2.0075
19624TIP3   OH280362   1.397   2.348  14.979 -0.2888  0.0856  0.2154
19624TIP3    H180363   1.371   2.407  15.049 -0.9430  0.4671 -0.3366
19624TIP3    H280364   1.487   2.373  14.958 -0.6699  1.1412 -0.2495
19625TIP3   OH280365   2.726   5.341   4.139  0.7011  0.3973 -0.1583
19625TIP3    H180366   2.715   5.317   4.230  0.9081 -0.2383 -0.2955
19625TIP3    H280367   2.781   5.420   4.141 -1.0611  1.6609  0.3525
19626TIP3   OH280368   4.710   0.199  11.588 -0.2729 -0.4479  0.3061
19626TIP3    H180369   4.621   0.206  11.554 -0.6401  1.8614  1.5096
19626TIP3    H280370   4.744   0.288  11.584  2.7548 -1.5629 -1.9025
19627TIP3   OH280371   6.392   2.905   4.027 -0.1895 -0.1935 -0.2664
19627TIP3    H180372   6.459   2.887   4.093 -0.2302  0.9484  0.1126
19627TIP3    H280373   6.424   2.984   3.982 -0.6021 -0.4441 -1.0142
19628TIP3   OH280374   6.656   5.798  17.163 -0.0777  0.6035  0.4308
19628TIP3    H180375   6.738   5.776  17.120 -0.8786  2.2327 -2.1507
19628TIP3    H280376   6.628   5.717  17.205  0.8914 -1.0815 -1.9800
19629TIP3   OH280377   6.299   1.929   3.963 -0.2631 -0.1733 -0.0889
19629TIP3    H180378   6.358   1.885   3.902  1.2075 -1.9273  2.3952
19629TIP3    H280379   6.355   1.993   4.008 -1.6494  2.1114 -1.4517
19630TIP3   OH280380   2.343   6.191   4.116  0.4513  0.0038 -0.1316
19630TIP3    H180381   2.281   6.120   4.132 -0.0230  0.5514  0.4672
19630TIP3    H280382   2.425   6.160   4.156  0.2368 -0.1863  0.1638
19631TIP3   OH280383   4.229   3.675  17.249  0.3264 -0.6262 -0.3515
19631TIP3    H180384   4.198   3.586  17.232  1.2558 -0.9900 -0.1874
19631TIP3    H280385   4.323   3.666  17.260  0.7418  0.6610 -2.3313
19632TIP3   OH280386   0.116   1.965   6.219  0.1486 -0.6014 -0.4823
19632TIP3    H180387   0.078   1.900   6.279 -1.5746  1.2506  0.5229
19632TIP3    H280388   0.207   1.936   6.208 -0.2645 -2.5819  0.7688
19633TIP3   OH280389   0.170   6.133  16.987  0.3564  0.4019 -0.5868
19633TIP3    H180390   0.118   6.175  16.918  0.8782  0.3336 -1.0306
19633TIP3    H280391   0.211   6.058  16.944 -0.3294 -0.4095  0.1275
19634TIP3   OH280392   4.235   2.721   1.919  0.3534  0.3659 -0.2760
19634TIP3    H180393   4.202   2.632   1.909  0.6241 -0.1040  2.4695
19634TIP3    H280394   4.328   2.714   1.897  0.3727 -0.0318 -0.0812
19635TIP3   OH280395   0.329   1.996   1.384  0.0033 -0.1289  0.4304
19635TIP3    H180396   0.281   2.056   1.327 -0.2240  0.2128  0.9699
19635TIP3    H280397   0.302   2.021   1.473 -0.0043 -0.9507  0.6698
19636TIP3   OH280398   5.586   5.424  14.925 -0.7667  0.2368  0.4747
19636TIP3    H180399   5.525   5.483  14.970  0.0066  0.5670  1.1200
19636TIP3    H280400   5.599   5.351  14.986 -2.1293 -0.8994 -0.5406
19637TIP3   OH280401   1.720   0.454  10.966 -0.2117 -0.0651 -0.0879
19637TIP3    H180402   1.731   0.406  11.048 -0.3619  0.8590  0.4885
19637TIP3    H280403   1.695   0.542  10.993 -1.9380 -0.1738 -1.1711
19638TIP3   OH280404   2.330   4.512   0.301 -0.5213  0.1001  0.4013
19638TIP3    H180405   2.356   4.530   0.210 -3.3321 -0.0565 -0.5313
19638TIP3    H280406   2.279   4.431   0.295  0.6156 -0.8433  2.4352
19639TIP3   OH280407   1.480   0.532   4.763  0.0059  0.8344  0.0980
19639TIP3    H180408   1.461   0.445   4.797 -0.0330  0.3243 -1.1781
19639TIP3    H280409   1.519   0.579   4.837 -0.4352 -0.0970  0.9390
19640TIP3   OH280410   0.017   5.458   6.369 -0.3982 -0.1275  0.3907
19640TIP3    H180411  -0.046   5.417   6.428  0.3588 -0.1167  1.2271
19640TIP3    H280412   0.052   5.531   6.419  0.1132  0.0108 -0.1574
19641TIP3   OH280413   5.059   1.632   0.581 -0.3439 -0.6917  0.0837
19641TIP3    H180414   4.987   1.666   0.635  0.2288 -0.4829  0.7334
19641TIP3    H280415   5.113   1.709   0.562 -1.0812 -0.5699 -1.6753
19642TIP3   OH280416   6.309   1.161  16.003  0.4058  0.5369 -0.1930
19642TIP3    H180417   6.254   1.205  16.069  0.8874  0.8807 -0.0151
19642TIP3    H280418   6.394   1.203  16.012  0.3545  0.9055 -1.3591
19643TIP3   OH280419   2.953   4.344   3.857 -0.4103  0.1756 -0.2740
19643TIP3    H180420   2.983   4.417   3.803  1.3152  0.5402  1.0940
19643TIP3    H280421   2.986   4.266   3.814  2.2107  0.5388  0.9008
19644TIP3   OH280422   5.553   1.486   6.528 -0.4148 -0.0910  0.0286
19644TIP3    H180423   5.493   1.412   6.534  0.3099 -0.6840  0.0856
19644TIP3    H280424   5.598   1.487   6.612  0.8749 -0.7228 -0.6245
19645TIP3   OH280425   0.930   1.139  15.677 -0.0692  0.0245  0.0991
19645TIP3    H180426   1.010   1.172  15.718  0.6685 -0.8813 -0.5441
19645TIP3    H280427   0.904   1.064  15.732  0.6392 -0.8802 -0.7655
19646TIP3   OH280428   5.846   3.608  11.219 -0.2984 -0.2798  0.0215
19646TIP3    H180429   5.766   3.584  11.172  0.6081 -1.1317 -1.1419
19646TIP3    H280430   5.863   3.699  11.193 -2.2015  0.8343  2.2454
19647TIP3   OH280431   3.501   4.471  15.364 -0.2336 -0.0844 -0.5342
19647TIP3    H180432   3.570   4.537  15.363 -0.7552  0.5293  0.8791
19647TIP3    H280433   3.419   4.522  15.362 -0.6961 -0.8037 -2.4783
19648TIP3   OH280434   3.008   4.324   6.426 -0.1758  0.4604 -0.5871
19648TIP3    H180435   3.003   4.417   6.450  0.2643 -0.0782  1.9340
19648TIP3    H280436   3.092   4.316   6.382 -0.6461  1.4088 -1.7015
19649TIP3   OH280437   2.674   3.042  15.209 -0.4765  0.3653  0.2026
19649TIP3    H180438   2.603   3.076  15.262  0.8294  2.0011  0.9759
19649TIP3    H280439   2.646   3.058  15.118 -1.1641  0.8129  0.4851
19650TIP3   OH280440   4.601   5.275   6.187 -0.0429  0.6413  0.3028
19650TIP3    H180441   4.542   5.337   6.145 -0.4861  0.2434  0.3302
19650TIP3    H280442   4.550   5.237   6.258  1.1267  2.2956  2.1335
19651TIP3   OH280443   3.752   6.037  16.474  0.4662  0.7706  0.0989
19651TIP3    H180444   3.827   6.058  16.530 -0.7984  0.8595  1.8631
19651TIP3    H280445   3.707   6.121  16.463 -0.0889  0.4874  0.1773
19652TIP3   OH280446   3.654   0.972  12.927  0.0242  0.2092 -0.4727
19652TIP3    H180447   3.562   0.950  12.920 -0.1869  0.5153  0.9484
19652TIP3    H280448   3.693   0.944  12.844 -1.4718  0.7896 -1.3903
19653TIP3   OH280449   4.368   1.818  16.363 -0.0675  0.8900 -0.0577
19653TIP3    H180450   4.339   1.837  16.273 -0.9501  2.2717  0.4823
19653TIP3    H280451   4.301   1.859  16.418  0.1227 -0.4808  1.2455
19654TIP3   OH280452   4.099   0.753  11.101 -0.4981 -0.2214 -1.6718
19654TIP3    H180453   4.036   0.742  11.030 -1.1023  0.5790 -1.2848
19654TIP3    H280454   4.169   0.806  11.064 -0.5766 -0.2130 -1.8060
19655TIP3   OH280455   5.168   1.769   3.470 -0.1550  0.1591  0.3137
19655TIP3    H180456   5.221   1.836   3.513  0.3536 -0.3137  0.4354
19655TIP3    H280457   5.104   1.818   3.419 -0.0579  0.7337  0.7378
19656TIP3   OH280458   6.789   0.760   4.645 -0.5175  0.1265  0.1172
19656TIP3    H180459   6.864   0.819   4.659 -1.2995  1.6152 -1.6310
19656TIP3    H280460   6.764   0.733   4.733  0.2694  1.9134  0.9465
19657TIP3   OH280461   2.779   5.203  13.081  0.2385  0.3199 -0.1049
19657TIP3    H180462   2.687   5.228  13.090  0.3706  2.7701 -3.5423
19657TIP3    H280463   2.825   5.256  13.145 -0.6431 -0.7514  1.4835
19658TIP3   OH280464   2.069   0.667   1.826  0.0951  0.1067 -0.3647
19658TIP3    H180465   2.086   0.761   1.817  0.5935  0.1111  0.5165
19658TIP3    H280466   1.985   0.663   1.872 -0.6147  0.1032 -1.6299
19659TIP3   OH280467   2.613   3.405   2.500  0.1288  0.6447  0.3081
19659TIP3    H180468   2.573   3.492   2.512  2.0723  1.7392 -0.7271
19659TIP3    H280469   2.559   3.363   2.433  0.5191  1.9960 -0.8970
19660TIP3   OH280470   5.276   5.084   5.831  0.0356  0.6207 -0.1397
19660TIP3    H180471   5.268   5.015   5.897 -1.3134  1.7883  0.9993
19660TIP3    H280472   5.237   5.161   5.873 -0.9470  1.3967 -2.3634
19661TIP3   OH280473   2.253   2.733  12.163  0.0408 -0.7701  0.4659
19661TIP3    H180474   2.166   2.769  12.141  0.1404 -1.5178 -1.3777
19661TIP3    H280475   2.244   2.703  12.253 -0.8484  1.3995  1.1966
19662TIP3   OH280476   6.686   3.921   4.685  0.0356 -0.2675  0.5797
19662TIP3    H180477   6.637   3.843   4.712  0.0421 -0.7167 -0.6441
19662TIP3    H280478   6.625   3.994   4.698 -0.8159 -0.7654 -0.5284
19663TIP3   OH280479   3.569   4.618   4.751 -0.7993 -0.0274  0.3877
19663TIP3    H180480   3.487   4.658   4.720 -0.6107 -0.8066 -1.2170
19663TIP3    H280481   3.632   4.690   4.751 -0.4807 -0.1909 -2.4127
19664TIP3   OH280482   4.178   6.444   5.889 -0.0111  0.0011  0.3690
19664TIP3    H180483   4.105   6.388   5.916 -0.1041  0.1712  0.4692
19664TIP3    H280484   4.243   6.434   5.958 -0.0925  0.1412  0.4644
19665TIP3   OH280485   2.742   4.477   2.073 -0.0204 -0.2649 -0.0456
19665TIP3    H180486   2.779   4.423   2.003 -0.3925  1.1130 -1.3502
19665TIP3    H280487   2.801   4.552   2.080 -1.1677  0.6956 -0.4008
19666TIP3   OH280488   6.408   1.818   0.063 -0.1162 -0.0378 -0.1455
19666TIP3    H180489   6.394   1.731   0.025  2.0707 -1.0745  1.2077
19666TIP3    H280490   6.429   1.873  -0.013 -0.3140 -0.9799 -0.9189
19667TIP3   OH280491   0.753   3.663   5.963  0.0594  0.0033 -0.2194
19667TIP3    H180492   0.750   3.732   6.029 -1.1721 -0.6112  0.4091
19667TIP3    H280493   0.695   3.594   5.998 -0.0368 -0.6487 -1.5925
19668TIP3   OH280494   0.662   6.197  12.012 -0.1112 -0.0590  0.4319
19668TIP3    H180495   0.601   6.189  11.939 -1.8996  1.5941  1.6540
19668TIP3    H280496   0.700   6.110  12.020 -1.3020 -0.7980 -1.2289
19669TIP3   OH280497   4.103   0.897  14.733 -0.1555 -0.0657  0.3777
19669TIP3    H180498   4.091   0.983  14.693  2.6642  1.0166  1.6328
19669TIP3    H280499   4.162   0.851  14.674  1.8103  0.5239  1.8047
19670TIP3   OH280500   3.323   4.799  13.218  0.3752  0.0236 -0.2135
19670TIP3    H180501   3.237   4.784  13.178  0.0487  2.4972 -0.5981
19670TIP3    H280502   3.382   4.813  13.144  0.7661 -0.0724  0.0770
19671TIP3   OH280503   5.071   0.370   3.321  0.0403  0.1090 -0.9329
19671TIP3    H180504   5.040   0.372   3.230  0.4001 -1.6765 -1.1176
19671TIP3    H280505   5.087   0.278   3.339  2.4883  0.6547  0.0927
19672TIP3   OH280506   6.341   6.589   2.665  0.2357 -0.0278  0.0837
19672TIP3    H180507   6.319   6.660   2.604  3.1078  1.2351  0.3544
19672TIP3    H280508   6.313   6.622   2.751  0.4720  0.2599  0.0517
19673TIP3   OH280509   0.403   6.450  11.965  0.0221  0.1731 -0.2705
19673TIP3    H180510   0.389   6.360  11.994  0.0067 -0.2848 -1.6456
19673TIP3    H280511   0.425   6.497  12.045 -0.4235 -0.9479  0.5470
19674TIP3   OH280512   2.379   4.121   2.633 -0.2426 -0.2786  0.4298
19674TIP3    H180513   2.308   4.069   2.594 -0.9230  1.8102 -1.3370
19674TIP3    H280514   2.349   4.140   2.721 -0.9242 -1.1349  0.3943
19675TIP3   OH280515   0.926   0.255  16.249 -0.1628 -0.0067  0.5419
19675TIP3    H180516   0.872   0.264  16.328 -0.1541 -1.1219  0.6869
19675TIP3    H280517   1.015   0.274  16.279 -0.2041 -0.1049  0.7305
19676TIP3   OH280518   3.860   1.091  14.431  0.4606  0.2345  0.3663
19676TIP3    H180519   3.829   1.145  14.358 -0.7673 -1.6709 -0.6418
19676TIP3    H280520   3.900   1.015  14.388 -1.3483 -1.5085  1.6138
19677TIP3   OH280521   2.554   2.106  17.208  0.3487  0.3504  0.1235
19677TIP3    H180522   2.503   2.161  17.149 -1.0374 -1.1575 -0.1643
19677TIP3    H280523   2.633   2.085  17.158  0.2170  0.8993 -0.3296
19678TIP3   OH280524   6.033   0.431  15.241  0.0374  0.2974 -0.5260
19678TIP3    H180525   6.024   0.509  15.187 -0.0946  1.6634  1.3770
19678TIP3    H280526   5.953   0.381  15.224 -0.2085  0.9078 -1.2428
19679TIP3   OH280527   6.076   6.157  14.287 -0.0237 -0.1059  0.3890
19679TIP3    H180528   6.019   6.177  14.213  0.0753 -1.1639  0.0061
19679TIP3    H280529   6.017   6.123  14.354  0.0037 -0.0330  0.4501
19680TIP3   OH280530   0.355   2.428   5.285 -0.5328 -0.3740  0.1663
19680TIP3    H180531   0.396   2.489   5.223 -0.6595  0.8525  1.2412
19680TIP3    H280532   0.327   2.354   5.231 -0.0968  0.3803 -1.1423
19681TIP3   OH280533   5.438   2.327   4.058  0.6291 -0.1569  0.0255
19681TIP3    H180534   5.420   2.406   4.006 -1.6913 -0.6407 -0.0230
19681TIP3    H280535   5.532   2.311   4.046  1.3180  2.8827  0.4905
19682TIP3   OH280536   1.551   1.509  13.447 -0.1942  0.2569 -0.0773
19682TIP3    H180537   1.503   1.511  13.530 -0.0130  0.4761  0.0224
19682TIP3    H280538   1.483   1.507  13.380 -0.3692 -1.8846  0.1054
19683TIP3   OH280539   3.888   3.628  16.649 -0.7979  0.0312 -0.4281
19683TIP3    H180540   3.918   3.537  16.651  1.8114  0.7116 -2.4347
19683TIP3    H280541   3.960   3.677  16.689 -2.0225  1.2654  0.3133
19684TIP3   OH280542   1.591   4.654   5.394  0.2714  0.2840 -0.0423
19684TIP3    H180543   1.501   4.626   5.379  0.3756 -0.4688  0.7348
19684TIP3    H280544   1.615   4.616   5.478  0.7001  2.0167  0.6581
19685TIP3   OH280545   3.648   2.906  13.416  0.2611 -0.2364  0.1609
19685TIP3    H180546   3.729   2.940  13.452  0.1620 -0.9552  1.1066
19685TIP3    H280547   3.637   2.952  13.333  1.3854  0.2101  0.2444
19686TIP3   OH280548   2.232   1.262  10.996  0.1329  0.0790  0.1943
19686TIP3    H180549   2.193   1.226  10.916 -0.6808  0.5901  0.3573
19686TIP3    H280550   2.296   1.326  10.965  0.4733 -0.3798 -0.0625
19687TIP3   OH280551   5.681   3.128   3.829 -1.0763  0.3349 -0.2420
19687TIP3    H180552   5.693   3.180   3.750  0.5246 -0.1091 -0.3250
19687TIP3    H280553   5.644   3.045   3.799 -0.8901  0.3342 -0.4662
19688TIP3   OH280554   0.766   3.014   1.073 -0.1953 -0.3381 -0.2510
19688TIP3    H180555   0.699   3.067   1.029 -0.5057  0.0554  0.6623
19688TIP3    H280556   0.732   3.003   1.162  1.2819  0.4938  0.4604
19689TIP3   OH280557   6.193   4.127   3.852  0.0542  0.5469  0.0264
19689TIP3    H180558   6.128   4.061   3.878  1.4965 -1.0969 -0.3841
19689TIP3    H280559   6.190   4.192   3.922 -0.2340 -0.8206  1.3447
19690TIP3   OH280560   5.523   4.497  14.580  0.1025 -0.2009  0.3113
19690TIP3    H180561   5.506   4.417  14.530 -0.3406 -0.0980  0.2939
19690TIP3    H280562   5.519   4.567  14.515 -2.3120  0.1430  0.7470
19691TIP3   OH280563   6.205   0.072  16.141 -0.3810  0.4806 -0.1874
19691TIP3    H180564   6.159   0.132  16.082  0.2258  0.2182 -0.9527
19691TIP3    H280565   6.140   0.008  16.167 -0.6163  0.4857 -0.7431
19692TIP3   OH280566   2.843   6.553   4.449  0.4741 -0.4835  0.4459
19692TIP3    H180567   2.756   6.513   4.456 -0.1619  0.5971 -0.7423
19692TIP3    H280568   2.826   6.645   4.430  1.8940 -0.1443  0.6720
19693TIP3   OH280569   5.423   4.078   2.678 -0.1779  0.3225 -0.1540
19693TIP3    H180570   5.354   4.106   2.738 -0.2708  0.0289 -0.1246
19693TIP3    H280571   5.419   4.143   2.607 -0.1284  0.6150  0.1079
19694TIP3   OH280572   3.022   2.488  11.976  0.0314  0.1019 -0.2491
19694TIP3    H180573   3.065   2.533  12.049  0.5787 -1.1387  0.2176
19694TIP3    H280574   3.093   2.469  11.915 -0.0793 -0.7167 -0.1279
19695TIP3   OH280575   1.008   5.383   3.523  0.5741 -0.3685  0.5032
19695TIP3    H180576   1.002   5.289   3.507  0.3407 -0.2263 -0.2998
19695TIP3    H280577   1.096   5.407   3.493  0.8725 -0.4353  1.3063
19696TIP3   OH280578   3.694   4.317   1.776 -0.5282  0.8088  0.0274
19696TIP3    H180579   3.656   4.295   1.691  1.7607 -0.1121 -0.8325
19696TIP3    H280580   3.677   4.411   1.786 -0.1002  1.1285 -1.8624
19697TIP3   OH280581   1.172   0.474  11.164 -0.4396  0.5571 -0.7735
19697TIP3    H180582   1.175   0.569  11.155  1.0554  0.5282 -0.7096
19697TIP3    H280583   1.257   0.443  11.134 -0.2118 -0.6116  0.9334
19698TIP3   OH280584   1.613   6.061   1.007 -0.6238 -0.0286 -0.1607
19698TIP3    H180585   1.640   5.969   1.011 -0.6633 -0.1957 -2.4322
19698TIP3    H280586   1.549   6.064   0.935 -1.3296  1.6210  0.4932
19699TIP3   OH280587   5.904   4.709  13.598 -0.7117 -0.5236 -0.3594
19699TIP3    H180588   5.851   4.784  13.625  1.9512  1.3879 -0.0529
19699TIP3    H280589   5.874   4.689  13.509 -0.2791  2.1802 -1.2063
19700TIP3   OH280590   3.605   4.594  12.780 -0.3471 -0.2859  0.1144
19700TIP3    H180591   3.676   4.577  12.842  0.0325 -0.8432 -0.4652
19700TIP3    H280592   3.645   4.646  12.711 -1.1253  1.6860  1.0663
19701TIP3   OH280593   4.240   1.002   6.042 -0.0751  0.1596  0.1345
19701TIP3    H180594   4.214   1.006   6.134 -0.2711 -2.1668  0.2546
19701TIP3    H280595   4.170   1.046   5.995 -0.5806  0.3310  1.0209
19702TIP3   OH280596   0.178   4.918  14.788 -0.2181  0.1724  0.1828
19702TIP3    H180597   0.244   4.855  14.816 -0.6943 -1.5751 -2.2881
19702TIP3    H280598   0.226   4.999  14.774  0.9289 -0.3750  0.8110
19703TIP3   OH280599   0.555   5.326  14.128  0.9183 -0.1666 -0.2127
19703TIP3    H180600   0.618   5.390  14.162 -0.7831  0.5676  1.7243
19703TIP3    H280601   0.521   5.366  14.048  0.5198  0.9916  0.5068
19704TIP3   OH280602   3.661   6.202  11.787  0.1011 -0.3974  0.2228
19704TIP3    H180603   3.626   6.123  11.746 -1.3758 -0.8942  2.2387
19704TIP3    H280604   3.696   6.172  11.871  0.4164  0.9498  0.5988
19705TIP3   OH280605   5.929   3.233   4.514  0.4135 -0.1654 -0.2669
19705TIP3    H180606   6.014   3.224   4.471  0.3624  0.3730 -0.4844
19705TIP3    H280607   5.874   3.167   4.471 -0.6359  2.5451 -3.5255
19706TIP3   OH280608   4.848   0.105   0.360 -0.7501 -0.4450  0.5134
19706TIP3    H180609   4.840   0.019   0.320  1.4193 -0.4195 -0.0507
19706TIP3    H280610   4.807   0.165   0.297 -2.0011 -0.9865  0.7767
19707TIP3   OH280611   4.747   0.040   2.200  0.3294  0.2212 -0.1476
19707TIP3    H180612   4.697   0.015   2.122  1.0200 -1.4050 -0.1028
19707TIP3    H280613   4.682   0.075   2.260 -0.4137  0.2159 -0.9312
19708TIP3   OH280614   6.216   1.508   5.060 -0.4765 -0.7734  0.3186
19708TIP3    H180615   6.257   1.587   5.024  0.9877 -1.1557  1.0678
19708TIP3    H280616   6.160   1.475   4.990 -0.5355  0.5212 -0.2598
19709TIP3   OH280617   5.822   2.244  11.373  0.6842 -0.2948 -0.0783
19709TIP3    H180618   5.875   2.315  11.337  0.7521  0.4958  1.5146
19709TIP3    H280619   5.844   2.243  11.466 -0.7840 -1.1204  0.2770
19710TIP3   OH280620   1.622   1.698   0.325 -0.3288 -0.5632 -0.1315
19710TIP3    H180621   1.702   1.662   0.288  0.1636 -1.9681  2.1158
19710TIP3    H280622   1.645   1.786   0.353  0.7940 -1.3174  1.4425
19711TIP3   OH280623   1.641   1.699  15.808 -0.0810  0.5202 -0.4787
19711TIP3    H180624   1.648   1.770  15.744  2.8674  0.8893  0.1170
19711TIP3    H280625   1.558   1.715  15.853 -1.7987  0.8056 -3.4765
19712TIP3   OH280626   5.895   1.280  12.277  0.5717  0.2083  0.0562
19712TIP3    H180627   5.901   1.293  12.182 -0.4465 -0.2307 -0.0806
19712TIP3    H280628   5.976   1.234  12.300  1.0022  0.6482 -0.5321
19713TIP3   OH280629   1.201   4.277   0.573 -0.8264  0.3830 -0.6369
19713TIP3    H180630   1.218   4.184   0.585  0.4977  0.7883  1.0271
19713TIP3    H280631   1.269   4.307   0.513 -0.8728  0.3990 -0.6819
19714TIP3   OH280632   5.585   2.180   4.424 -0.3271  0.3805  0.1349
19714TIP3    H180633   5.518   2.177   4.355  0.9317 -2.4558 -1.0897
19714TIP3    H280634   5.665   2.208   4.379  0.5925 -1.8501  0.2834
19715TIP3   OH280635   1.453   1.259  16.845 -0.2107 -0.2864 -0.3160
19715TIP3    H180636   1.447   1.333  16.905  0.3676 -0.0025 -0.6036
19715TIP3    H280637   1.362   1.231  16.832 -0.2928 -0.9637  1.4295
19716TIP3   OH280638   5.239   0.494   1.886 -0.0963  0.5518 -0.4432
19716TIP3    H180639   5.166   0.494   1.824 -2.6766 -0.4820  2.3609
19716TIP3    H280640   5.255   0.401   1.904  2.2950  0.7164 -1.2551
19717TIP3   OH280641   4.207   2.253  16.027 -0.6027  0.3654  0.6270
19717TIP3    H180642   4.239   2.343  16.018  2.4660 -0.2593  3.3603
19717TIP3    H280643   4.249   2.205  15.957 -0.2204  0.6263  0.6763
19718TIP3   OH280644   1.815   2.683  15.334 -0.1324 -0.0348  0.3412
19718TIP3    H180645   1.807   2.719  15.246 -2.4030 -0.4772  0.3144
19718TIP3    H280646   1.889   2.623  15.329 -0.4439 -0.3225 -1.3617
19719TIP3   OH280647   1.592   6.244   0.693  0.1337  0.4998  0.2218
19719TIP3    H180648   1.622   6.304   0.761  1.9938 -1.7271  1.5072
19719TIP3    H280649   1.654   6.257   0.620  0.6730  0.0260  0.5862
19720TIP3   OH280650   5.977   2.246   2.164  0.2717  0.1332 -0.8255
19720TIP3    H180651   5.900   2.219   2.115 -0.6791  2.4009 -0.6681
19720TIP3    H280652   6.042   2.268   2.096  1.2455 -2.7459 -0.9637
19721TIP3   OH280653   5.934   1.338   4.979  0.2147  0.0384 -0.2982
19721TIP3    H180654   5.851   1.310   5.017 -0.2390  0.3940 -1.0040
19721TIP3    H280655   5.926   1.433   4.969  0.1926 -0.0740 -1.5398
19722TIP3   OH280656   0.086   4.124   1.512 -0.4775 -0.5984 -0.2526
19722TIP3    H180657   0.113   4.213   1.534  3.1174 -2.1542  2.7196
19722TIP3    H280658  -0.009   4.124   1.522 -0.4482  2.5532  0.9824
19723TIP3   OH280659   1.846   5.045  11.535  0.3978  0.2359  0.3024
19723TIP3    H180660   1.895   5.046  11.617 -0.4496  0.2792  0.8225
19723TIP3    H280661   1.895   5.103  11.477  1.1120  0.0534  0.7105
19724TIP3   OH280662   5.115   5.822   2.968 -0.2494 -0.2784 -0.4395
19724TIP3    H180663   5.192   5.875   2.947  1.2094 -1.9329  0.4097
19724TIP3    H280664   5.121   5.807   3.062 -1.6879 -0.3744 -0.3379
19725TIP3   OH280665   6.606   1.965  11.998  0.1632 -0.0779  0.2627
19725TIP3    H180666   6.552   1.984  11.922  0.5881 -1.2460 -0.3678
19725TIP3    H280667   6.544   1.944  12.068 -0.2187 -0.0973 -0.0801
19726TIP3   OH280668   5.211   2.967   0.028 -0.4639 -0.0633 -0.0561
19726TIP3    H180669   5.260   3.045   0.004  1.1906 -1.1475 -0.3338
19726TIP3    H280670   5.250   2.938   0.111  0.7204 -1.9900 -1.2049
19727TIP3   OH280671   1.277   5.951   2.690 -0.2120  0.0869 -0.5755
19727TIP3    H180672   1.267   5.923   2.781 -1.5570 -1.5641 -1.1728
19727TIP3    H280673   1.287   6.046   2.695 -0.7180  0.0844  1.2605
19728TIP3   OH280674   3.702   0.069  12.632 -0.2897 -0.3052 -0.7670
19728TIP3    H180675   3.612   0.102  12.627 -0.1523  0.1689 -0.1592
19728TIP3    H280676   3.699   0.002  12.700  0.3974  1.6939  1.3465
19729TIP3   OH280677   6.523   5.153  16.524 -0.0254  0.0494 -0.0282
19729TIP3    H180678   6.611   5.118  16.515  0.2491  0.9524 -1.2532
19729TIP3    H280679   6.523   5.231  16.467 -1.3623  0.5213  0.5800
19730TIP3   OH280680   5.809   1.680  15.438  0.1708  0.4742  0.7838
19730TIP3    H180681   5.879   1.616  15.453  0.8726  1.3734  1.4657
19730TIP3    H280682   5.819   1.744  15.509 -2.7579 -0.5562  2.2991
19731TIP3   OH280683   1.024   2.197  15.846 -0.0902  0.5161  0.2848
19731TIP3    H180684   0.972   2.124  15.880 -0.4963 -0.0574 -1.4830
19731TIP3    H280685   1.091   2.155  15.791  0.6228  1.4023  0.4585
19732TIP3   OH280686   6.041   3.401   5.411 -0.2284 -0.0826  0.1571
19732TIP3    H180687   6.004   3.488   5.426 -2.8170 -0.6921 -1.9886
19732TIP3    H280688   6.018   3.351   5.489  1.2939  1.0524  1.4216
19733TIP3   OH280689   0.694   5.351  14.991 -0.1550  0.1067 -0.0572
19733TIP3    H180690   0.666   5.273  14.943  1.0725 -1.0186  0.9767
19733TIP3    H280691   0.782   5.370  14.958 -0.4636  1.1030 -0.3413
19734TIP3   OH280692   1.924   2.604  12.466 -0.0890 -0.6594 -0.2841
19734TIP3    H180693   1.964   2.522  12.437  0.3419 -1.1130  1.4516
19734TIP3    H280694   1.830   2.586  12.466 -0.4728  0.3993 -4.3404
19735TIP3   OH280695   1.140   6.544  13.750 -0.3927 -0.4484 -0.0779
19735TIP3    H180696   1.229   6.514  13.729 -0.4759 -1.2367  0.6192
19735TIP3    H280697   1.098   6.468  13.790 -0.7057  0.4897  1.4998
19736TIP3   OH280698   5.814   4.351   5.096 -0.4260  0.2745  0.1431
19736TIP3    H180699   5.764   4.331   5.174 -1.7700  0.9361 -0.5133
19736TIP3    H280700   5.796   4.443   5.078  0.0015  0.1843 -0.8461
19737TIP3   OH280701   5.030   2.391  17.103  0.4741 -0.3135  0.3227
19737TIP3    H180702   5.123   2.386  17.082  0.8637  2.0486  1.1410
19737TIP3    H280703   5.020   2.345  17.186  0.6808 -1.5484 -0.3244
19738TIP3   OH280704   3.259   1.801  12.202 -0.2670 -0.5112  0.0715
19738TIP3    H180705   3.184   1.743  12.218  0.0275 -0.2212  3.3310
19738TIP3    H280706   3.335   1.745  12.214  0.0059  0.0798  1.2790
19739TIP3   OH280707   4.298   1.951  15.169  0.2941  0.1096 -0.1399
19739TIP3    H180708   4.223   2.007  15.147 -1.6777 -2.7520 -1.2656
19739TIP3    H280709   4.308   1.961  15.263 -0.9741  1.2089 -0.0889
19740TIP3   OH280710   4.707   3.888   2.984  0.0133 -0.1332  0.1357
19740TIP3    H180711   4.758   3.881   3.065  0.3717  0.2258 -0.0521
19740TIP3    H280712   4.623   3.849   3.005  1.0799 -2.8337 -0.1944
19741TIP3   OH280713   1.218   4.424  15.406 -0.2145 -0.4680 -0.0778
19741TIP3    H180714   1.200   4.482  15.332 -1.3332  0.2922  0.7625
19741TIP3    H280715   1.243   4.341  15.366 -1.5124 -0.2936 -1.3186
19742TIP3   OH280716   6.030   5.794   1.800  0.2186 -0.1894 -0.1685
19742TIP3    H180717   5.982   5.797   1.883 -0.3056 -1.1605 -0.4231
19742TIP3    H280718   5.987   5.859   1.745 -1.0997 -1.2973 -0.5205
19743TIP3   OH280719   0.631   1.226   2.238  0.0632  0.0196 -0.7489
19743TIP3    H180720   0.713   1.275   2.232 -0.6106  0.9930 -3.2149
19743TIP3    H280721   0.599   1.245   2.326  0.7472  2.6176 -0.9690
19744TIP3   OH280722   2.990   3.180   5.343 -0.5534  0.2163 -0.1351
19744TIP3    H180723   2.992   3.101   5.397  1.8163 -0.2078 -0.7242
19744TIP3    H280724   2.900   3.212   5.351 -1.8843 -3.0133 -0.5998
19745TIP3   OH280725   3.670   5.203   2.935 -0.0312  0.2892 -0.2439
19745TIP3    H180726   3.607   5.148   2.980 -0.9233 -0.5324 -2.3822
19745TIP3    H280727   3.738   5.143   2.906  0.3931  0.7614 -0.2380
19746TIP3   OH280728   4.194   5.442   2.606 -0.3001 -0.4743  0.2096
19746TIP3    H180729   4.102   5.466   2.597  0.0894  1.6657  1.1921
19746TIP3    H280730   4.234   5.470   2.523 -0.4055 -0.6623  0.0963
19747TIP3   OH280731   6.439   0.997  16.870  0.4798  0.1312  0.2352
19747TIP3    H180732   6.396   1.066  16.819  0.1390  0.5426  1.0513
19747TIP3    H280733   6.507   0.964  16.813  0.5669  1.0684 -0.2260
19748TIP3   OH280734   3.332   5.588   2.928  0.4024  0.6629  0.1787
19748TIP3    H180735   3.375   5.663   2.886  0.5514  0.3195 -0.2889
19748TIP3    H280736   3.357   5.513   2.874 -2.7208  0.7333 -1.5660
19749TIP3   OH280737   3.344   4.138  10.852 -0.2563 -0.1611 -0.3145
19749TIP3    H180738   3.394   4.065  10.889  0.5169 -0.9038 -2.6781
19749TIP3    H280739   3.269   4.096  10.809 -0.1568  0.5011 -1.1379
19750TIP3   OH280740   4.237   1.309  12.038  0.5140  0.1134  0.5700
19750TIP3    H180741   4.292   1.257  12.098  0.4738 -1.8293 -0.9714
19750TIP3    H280742   4.157   1.258  12.029  0.7315  0.0752 -1.5117
19751TIP3   OH280743   1.142   3.354   2.076  0.1958  0.4324 -0.9425
19751TIP3    H180744   1.056   3.340   2.038  0.4561 -0.1366 -1.3286
19751TIP3    H280745   1.178   3.429   2.028  0.0299  0.4950 -0.9673
19752TIP3   OH280746   1.776   6.509   3.825  0.3774  0.4819  0.0081
19752TIP3    H180747   1.826   6.435   3.791 -0.9977  0.3070 -1.8769
19752TIP3    H280748   1.694   6.507   3.774 -1.1437  1.3028  2.2479
19753TIP3   OH280749   4.437   1.729   6.217 -0.2090 -0.0666 -0.5419
19753TIP3    H180750   4.526   1.702   6.195  0.0325 -0.0100  0.3005
19753TIP3    H280751   4.387   1.717   6.137  0.2597 -1.3971 -0.6653
19754TIP3   OH280752   5.675   0.569  10.969  0.3261 -0.4723 -0.5509
19754TIP3    H180753   5.684   0.481  10.930  0.0505 -0.4368 -0.6953
19754TIP3    H280754   5.587   0.597  10.945  0.4274 -0.1365 -0.5391
19755TIP3   OH280755   5.600   1.392  12.542  0.1976 -0.5161  0.0707
19755TIP3    H180756   5.682   1.430  12.511 -1.0162 -0.0311 -2.8711
19755TIP3    H280757   5.540   1.467  12.544 -0.8372 -1.3116 -0.4865
19756TIP3   OH280758   2.934   4.269  16.488 -0.3484 -0.6325  0.2833
19756TIP3    H180759   2.854   4.306  16.525 -0.3828 -2.5575  2.3479
19756TIP3    H280760   2.911   4.180  16.464  1.3096 -1.4876  1.6299
19757TIP3   OH280761   1.095   0.121   4.623  0.6311 -0.0790  0.1329
19757TIP3    H180762   1.147   0.198   4.600  0.5407  0.2702  1.0721
19757TIP3    H280763   1.028   0.116   4.555  1.6042 -0.2749 -0.8464
19758TIP3   OH280764   2.544   2.386  16.415 -0.0480 -0.0291 -0.3005
19758TIP3    H180765   2.601   2.462  16.405  0.9527 -0.7784 -0.3160
19758TIP3    H280766   2.496   2.380  16.332  0.3186  0.2152 -0.5306
19759TIP3   OH280767   1.021   6.155   2.767  0.0552  0.1070 -0.2807
19759TIP3    H180768   1.047   6.128   2.855  1.4186  0.0764 -0.6779
19759TIP3    H280769   1.100   6.194   2.729  0.3189 -2.3278 -2.4900
19760TIP3   OH280770   2.498   4.800   1.498 -0.0021  0.5876 -0.0794
19760TIP3    H180771   2.589   4.769   1.498 -0.6371 -1.4142  0.5124
19760TIP3    H280772   2.457   4.754   1.425 -1.1753 -0.7176  1.3367
19761TIP3   OH280773   4.122   1.478  12.485 -0.2223 -0.2999  0.0198
19761TIP3    H180774   4.181   1.423  12.537 -0.1080 -0.5756 -0.4037
19761TIP3    H280775   4.035   1.456  12.517 -0.2154 -1.0696 -0.4622
19762TIP3   OH280776   4.288   0.661   4.242 -0.2493 -0.2517  0.2952
19762TIP3    H180777   4.270   0.578   4.198 -2.0902 -0.4669  1.3737
19762TIP3    H280778   4.206   0.710   4.236  0.4192  0.9742  0.7995
19763TIP3   OH280779   0.215   3.393  16.285 -0.0450  0.3131 -0.0235
19763TIP3    H180780   0.284   3.343  16.241 -1.1243 -0.6220 -0.7397
19763TIP3    H280781   0.252   3.480  16.297  0.8662  0.1508 -1.3797
19764TIP3   OH280782   6.267   2.624   1.905  0.2205 -0.0435 -0.0153
19764TIP3    H180783   6.281   2.717   1.889 -0.3152  0.5220  2.3561
19764TIP3    H280784   6.353   2.590   1.928  0.0366  0.4700  1.5577
19765TIP3   OH280785   1.586   0.570  10.686 -0.0014 -0.0476 -0.4581
19765TIP3    H180786   1.554   0.588  10.597 -0.8214 -2.1454 -0.6588
19765TIP3    H280787   1.659   0.509  10.673 -0.5978 -0.9570  0.2984
19766TIP3   OH280788   3.232   5.141  15.575 -0.5117 -1.0202  0.0477
19766TIP3    H180789   3.146   5.099  15.568 -1.6075  0.9609  0.8950
19766TIP3    H280790   3.229   5.189  15.658  0.8225  0.3785 -0.6651
19767TIP3   OH280791   5.136   0.972   2.258 -0.5272 -0.1098 -0.1146
19767TIP3    H180792   5.198   1.032   2.215  0.1114 -0.9758 -0.4185
19767TIP3    H280793   5.125   1.008   2.346  0.9985 -0.3648  0.2016
19768TIP3   OH280794   2.085   5.820  15.844  0.2835  0.1737 -0.5425
19768TIP3    H180795   2.014   5.881  15.863  0.9925  0.6680  0.6209
19768TIP3    H280796   2.041   5.742  15.812 -0.9456 -0.1820  1.7884
19769TIP3   OH280797   4.491   3.914   2.310  0.0902  0.4071 -0.2634
19769TIP3    H180798   4.409   3.885   2.350  0.7568  2.6206  3.1651
19769TIP3    H280799   4.557   3.854   2.345  1.0594  3.7881  4.5968
19770TIP3   OH280800   2.563   0.459   0.820 -0.2119 -0.1093  0.2921
19770TIP3    H180801   2.644   0.484   0.777  0.7924 -0.5860  1.8247
19770TIP3    H280802   2.590   0.398   0.888 -2.0194 -1.3770 -0.0513
19771TIP3   OH280803   0.298   6.202  12.122  0.2600  0.3164 -0.0698
19771TIP3    H180804   0.383   6.200  12.168  1.2603 -1.7657 -1.8381
19771TIP3    H280805   0.287   6.113  12.089 -2.7862  0.4758  0.3018
19772TIP3   OH280806   5.640   2.247  14.314 -0.1060 -0.9966  0.2698
19772TIP3    H180807   5.734   2.227  14.324  0.3045  0.0270 -1.2555
19772TIP3    H280808   5.601   2.214  14.395  1.6686 -0.8034  1.2778
19773TIP3   OH280809   5.245   4.780   1.953  0.3372  0.0336  0.1498
19773TIP3    H180810   5.214   4.733   2.031 -1.6168 -0.5216 -0.8787
19773TIP3    H280811   5.253   4.871   1.982  0.0836 -0.2309  1.1139
19774TIP3   OH280812   4.123   5.338  16.031 -0.3927  0.1513  0.6539
19774TIP3    H180813   4.044   5.345  15.977 -1.0804 -2.5167  1.1671
19774TIP3    H280814   4.091   5.352  16.121  0.2673  1.8277  0.6653
19775TIP3   OH280815   3.840   5.988   1.605 -0.0348  0.1172 -0.0119
19775TIP3    H180816   3.774   6.047   1.569  0.2737  1.2418  1.1824
19775TIP3    H280817   3.900   5.972   1.532  0.1795  1.7559 -0.2223
19776TIP3   OH280818   2.639   0.168   0.463  0.7807 -0.5102  0.2936
19776TIP3    H180819   2.600   0.169   0.551  1.4632  0.7424  0.5876
19776TIP3    H280820   2.572   0.125   0.409 -0.8701  1.2111  0.8664
19777TIP3   OH280821   3.836   4.762   4.013  0.5686  0.6151 -0.0985
19777TIP3    H180822   3.792   4.829   3.961 -0.7751 -1.1160 -1.3252
19777TIP3    H280823   3.881   4.810   4.082 -0.1318  2.7680 -1.0654
19778TIP3   OH280824   4.677   4.977   4.059 -0.5739 -0.3186 -0.0127
19778TIP3    H180825   4.604   4.979   3.997 -1.7261 -0.0363  1.2825
19778TIP3    H280826   4.692   5.069   4.082  0.1557 -0.3825 -0.2176
19779TIP3   OH280827   6.505   1.939   1.473  0.1251 -0.1669  0.1996
19779TIP3    H180828   6.463   1.927   1.558  1.1933  0.8295  0.9012
19779TIP3    H280829   6.465   2.019   1.437  1.2438  0.7001  0.8034
19780TIP3   OH280830   3.284   3.235   2.610  0.6637  0.6593 -0.6440
19780TIP3    H180831   3.298   3.173   2.682 -1.2791  0.9105  0.0108
19780TIP3    H280832   3.354   3.216   2.548  2.4659  0.4880  1.3265
19781TIP3   OH280833   3.783   3.077   3.006  0.7284 -0.1714 -0.1704
19781TIP3    H180834   3.698   3.075   3.049  0.4916  0.7950 -0.5600
19781TIP3    H280835   3.794   3.168   2.978  2.2305 -0.0993  0.5423
19782TIP3   OH280836   1.404   5.867  14.256 -0.6845  0.1295  0.8202
19782TIP3    H180837   1.396   5.963  14.262  1.6008  0.7001 -2.6466
19782TIP3    H280838   1.474   5.845  14.318  1.9429  1.4648 -1.4720
19783TIP3   OH280839   3.683   5.898   2.340 -0.2325 -0.4954 -0.2214
19783TIP3    H180840   3.749   5.951   2.293  0.4713 -0.5792  0.6375
19783TIP3    H280841   3.637   5.851   2.271 -1.6322  2.0279 -1.1476
19784TIP3   OH280842   0.221   0.990   0.660  0.3534  0.1203  0.1541
19784TIP3    H180843   0.134   1.021   0.634 -0.2564 -2.2189 -0.8531
19784TIP3    H280844   0.280   1.061   0.636 -1.1887  1.5234  0.3288
19785TIP3   OH280845   3.839   4.612  12.940  0.4447 -0.6733  0.1580
19785TIP3    H180846   3.898   4.682  12.911  0.4541 -1.1493 -0.9951
19785TIP3    H280847   3.894   4.557  12.996  0.8077 -0.5351 -0.0605
19786TIP3   OH280848   5.006   1.866   1.195 -0.2756  0.4252 -0.3360
19786TIP3    H180849   5.092   1.862   1.236  0.0817 -1.1390 -1.1716
19786TIP3    H280850   4.951   1.808   1.248 -1.2059  2.3535  0.9423
19787TIP3   OH280851   6.340   0.391  16.780 -0.3964  0.4702 -0.0668
19787TIP3    H180852   6.279   0.445  16.830 -0.2255  1.3756 -0.8111
19787TIP3    H280853   6.325   0.417  16.689 -1.1599 -1.6099 -0.5816
19788TIP3   OH280854   1.424   0.170  15.137 -0.1609 -0.7140 -0.1145
19788TIP3    H180855   1.334   0.200  15.152 -0.0941  0.6348 -2.1530
19788TIP3    H280856   1.418   0.074  15.145 -1.4085 -0.5471  1.4275
19789TIP3   OH280857   3.509   2.025  15.960 -0.1776 -0.4262 -0.1964
19789TIP3    H180858   3.568   1.978  16.018  0.6312  0.7041 -0.0799
19789TIP3    H280859   3.495   2.110  16.003  0.1904  0.3140 -1.4712
19790TIP3   OH280860   3.615   5.281  10.925  0.3959  0.1950  0.2373
19790TIP3    H180861   3.527   5.277  10.964  0.0046  1.7904 -0.3976
19790TIP3    H280862   3.661   5.205  10.962 -1.3217 -0.8397  0.3714
19791TIP3   OH280863   0.703   6.701  15.137  0.1299  0.0028  0.4359
19791TIP3    H180864   0.759   6.672  15.209  1.5560 -1.9653 -1.3330
19791TIP3    H280865   0.746   6.778  15.101  1.9083 -1.5506 -0.9682
19792TIP3   OH280866   4.351   0.687   2.274 -0.6157  0.7323  0.5430
19792TIP3    H180867   4.258   0.680   2.254 -0.3821  0.0430 -0.3618
19792TIP3    H280868   4.367   0.782   2.276 -0.8533  0.8953 -1.8094
19793TIP3   OH280869   3.473   2.187  14.733 -0.1405  0.1576 -0.6883
19793TIP3    H180870   3.500   2.269  14.691 -0.4618  1.2146  1.0561
19793TIP3    H280871   3.550   2.160  14.784  0.0332 -0.7632 -1.4137
19794TIP3   OH280872   0.720   0.939   0.225 -0.1502 -0.2556  0.1591
19794TIP3    H180873   0.769   0.872   0.273  0.3436  0.9518  1.4176
19794TIP3    H280874   0.782   1.011   0.212 -1.1815  0.7686  0.6272
19795TIP3   OH280875   3.640   1.719  12.803  0.1693  0.0944 -0.0633
19795TIP3    H180876   3.589   1.770  12.866  0.2156  1.5314 -1.1470
19795TIP3    H280877   3.714   1.686  12.853  1.3858  3.0030  0.2382
19796TIP3   OH280878   2.184   1.549   6.603  0.0606  0.0627 -0.1660
19796TIP3    H180879   2.114   1.583   6.547  1.6472  2.6474 -0.7623
19796TIP3    H280880   2.209   1.466   6.562 -1.0575  0.2564 -1.3047
19797TIP3   OH280881   4.689   0.687  15.710 -0.1497 -0.6806 -0.2721
19797TIP3    H180882   4.653   0.744  15.779 -0.7076  0.0114 -1.1014
19797TIP3    H280883   4.628   0.614  15.706  0.1373 -0.9525  0.2762
19798TIP3   OH280884   2.157   2.826  16.121 -0.1340  0.4438  0.3137
19798TIP3    H180885   2.088   2.771  16.083  0.8739 -0.2404 -0.5644
19798TIP3    H280886   2.161   2.902  16.063 -0.5883  0.8066  0.7462
19799TIP3   OH280887   3.895   3.907  16.835 -0.0189 -0.1238  0.3861
19799TIP3    H180888   3.874   3.989  16.880 -0.9949  0.4628 -1.0459
19799TIP3    H280889   3.947   3.858  16.898 -0.6729  0.9588  1.8525
19800TIP3   OH280890   2.355   3.433  15.398  0.4934  0.1610  0.1531
19800TIP3    H180891   2.376   3.466  15.311  1.3794  1.3517  0.7788
19800TIP3    H280892   2.421   3.367  15.416  0.8281  0.5119  0.2371
19801TIP3   OH280893   6.097   3.795  11.766 -0.3538 -0.1030  0.6655
19801TIP3    H180894   6.027   3.859  11.754 -0.9631 -0.8611  0.0562
19801TIP3    H280895   6.169   3.827  11.712 -0.1791  0.7244  1.3582
19802TIP3   OH280896   3.313   0.400  12.855 -0.3031  0.1006 -0.2234
19802TIP3    H180897   3.347   0.312  12.870 -0.2055  0.1275 -0.2873
19802TIP3    H280898   3.233   0.388  12.805 -0.7244 -0.0036  0.4684
19803TIP3   OH280899   3.766   5.300   2.299  0.0448  0.1841 -0.2329
19803TIP3    H180900   3.761   5.303   2.203  2.7679  0.4202 -0.4489
19803TIP3    H280901   3.760   5.207   2.320  0.1857  0.0666 -0.6997
19804TIP3   OH280902   0.310   0.583  16.572 -0.0401  0.3461 -0.7042
19804TIP3    H180903   0.236   0.597  16.513 -0.9893  0.3740  0.4676
19804TIP3    H280904   0.296   0.496  16.608 -0.0161  0.7320  0.2490
19805TIP3   OH280905   1.544   4.345  12.408  1.1604  0.0621  0.5422
19805TIP3    H180906   1.603   4.381  12.343 -0.9750  0.2794 -1.4104
19805TIP3    H280907   1.496   4.276  12.362 -0.8609  0.6447  1.6349
19806TIP3   OH280908   3.740   4.451   4.647  0.0834 -0.1242 -1.0465
19806TIP3    H180909   3.707   4.414   4.565  0.2091  0.2931 -1.2869
19806TIP3    H280910   3.675   4.516   4.673  1.4339  1.8985 -2.3791
19807TIP3   OH280911   3.148   5.204   1.885 -1.1279  0.1086  0.0218
19807TIP3    H180912   3.185   5.291   1.869  0.3666 -0.5058  0.0434
19807TIP3    H280913   3.082   5.219   1.953  0.6801  0.8915  1.6825
19808TIP3   OH280914   3.505   3.144  12.728 -0.2133 -0.2178  0.0371
19808TIP3    H180915   3.533   3.129  12.638  0.0732  0.8626 -0.0748
19808TIP3    H280916   3.539   3.231  12.749 -2.5039  0.6881  0.2999
19809TIP3   OH280917   4.129   3.705   2.596  0.1553  0.5844  0.3941
19809TIP3    H180918   4.190   3.636   2.618  0.0168  0.7169  1.2108
19809TIP3    H280919   4.046   3.679   2.636 -1.1659 -0.9909 -2.9336
19810TIP3   OH280920   0.029   4.829   0.359 -0.1536 -0.2007 -0.1784
19810TIP3    H180921   0.051   4.847   0.450  0.9726 -1.2692 -0.2069
19810TIP3    H280922  -0.029   4.900   0.333 -2.8792 -1.3957  2.1996
19811TIP3   OH280923   6.387   0.480   4.737  0.8041  0.4267  0.0903
19811TIP3    H180924   6.396   0.507   4.645 -0.6140 -0.8946 -0.4902
19811TIP3    H280925   6.476   0.484   4.772  1.3255  1.2846 -1.2410
19812TIP3   OH280926   6.710   3.585   3.371 -0.3114  0.5160  0.4087
19812TIP3    H180927   6.674   3.503   3.405  0.5627  0.4205  1.1610
19812TIP3    H280928   6.702   3.577   3.276 -2.9126  0.8261  0.5365
19813TIP3   OH280929   0.323   6.527  13.902 -0.2509  0.1766  0.4829
19813TIP3    H180930   0.344   6.434  13.917 -0.3135  0.2205  0.8726
19813TIP3    H280931   0.408   6.571  13.901 -0.2554  0.2013  0.9468
19814TIP3   OH280932   4.307   5.588   4.639  0.3731 -0.3630  0.2018
19814TIP3    H180933   4.256   5.579   4.720  2.0361 -0.2106  1.3327
19814TIP3    H280934   4.382   5.642   4.664 -0.0759  1.4366 -1.9829
19815TIP3   OH280935   4.627   5.867  16.750 -0.4678 -0.2683 -0.0931
19815TIP3    H180936   4.555   5.805  16.741 -0.4751 -0.0144 -2.3241
19815TIP3    H280937   4.588   5.952  16.730 -0.1101  0.2539  1.3473
19816TIP3   OH280938   3.743   0.243  14.358 -0.3225 -0.3063  0.3475
19816TIP3    H180939   3.746   0.337  14.374 -1.6891 -0.4992  1.9872
19816TIP3    H280940   3.756   0.203  14.444  1.5698 -1.6893 -0.4956
19817TIP3   OH280941   4.397   6.221   3.143 -0.4917  0.5117  0.6177
19817TIP3    H180942   4.446   6.226   3.226  1.3044 -0.0474 -0.3594
19817TIP3    H280943   4.453   6.264   3.079 -1.9982  1.2182 -0.2832
19818TIP3   OH280944   2.074   1.399  14.400  0.1069  0.5484 -0.0127
19818TIP3    H180945   2.128   1.404  14.479  0.1432 -1.4267  0.1426
19818TIP3    H280946   2.072   1.306  14.378 -0.5208  0.9606 -1.9273
19819TIP3   OH280947   3.289   4.663   4.436 -0.3736  0.1359  0.5134
19819TIP3    H180948   3.260   4.736   4.380 -0.8625 -0.0338  0.5426
19819TIP3    H280949   3.366   4.628   4.392  0.7190  1.5545  1.2133
19820TIP3   OH280950   4.865   1.635  12.706 -0.7842  0.4861  0.4426
19820TIP3    H180951   4.855   1.543  12.682  1.1782  0.4982 -0.6308
19820TIP3    H280952   4.914   1.633  12.788 -0.2814  0.5727  0.1469
19821TIP3   OH280953   4.600   6.226   3.595  0.2918  0.6132 -0.9794
19821TIP3    H180954   4.684   6.181   3.582  0.9213  1.0845  1.0537
19821TIP3    H280955   4.597   6.244   3.689 -3.4947 -2.1142 -0.3047
19822TIP3   OH280956   1.961   0.892  15.845 -0.0068 -0.3204  1.1339
19822TIP3    H180957   1.869   0.893  15.821  0.3763  0.8162 -0.4222
19822TIP3    H280958   1.962   0.914  15.938 -1.2792 -0.0483  1.0982
19823TIP3   OH280959   5.055   4.726  12.090  0.1160  0.7950  0.5797
19823TIP3    H180960   5.116   4.703  12.159  1.6557  0.3324 -0.8759
19823TIP3    H280961   5.082   4.813  12.060 -1.0915  1.3869  1.1071
19824TIP3   OH280962   2.460   2.874  11.387  0.3464  0.2600  0.0119
19824TIP3    H180963   2.526   2.942  11.401 -0.5582  1.6620 -2.1446
19824TIP3    H280964   2.386   2.900  11.442  0.6165  0.0646  0.4791
19825TIP3   OH280965   0.288   2.820  13.297 -0.1620  0.3373  0.0421
19825TIP3    H180966   0.210   2.800  13.348  0.0223  0.5195  0.4038
19825TIP3    H280967   0.345   2.867  13.359  1.3241 -2.0150  0.5704
19826TIP3   OH280968   3.895   4.875  12.146 -1.1159 -0.2387 -0.2779
19826TIP3    H180969   3.815   4.868  12.094 -0.2543 -1.3805 -1.5449
19826TIP3    H280970   3.958   4.818  12.101  0.1862  0.0193  1.1067
19827TIP3   OH280971   1.315   3.449   0.109 -0.0346 -0.2270 -0.1084
19827TIP3    H180972   1.342   3.538   0.130  0.2317  0.1956 -2.0333
19827TIP3    H280973   1.278   3.456   0.021 -0.8888 -1.8570  0.0973
19828TIP3   OH280974   2.905   4.487  15.723  0.7038  0.3677  0.1820
19828TIP3    H180975   2.953   4.436  15.657 -1.5197 -3.2595  1.0987
19828TIP3    H280976   2.831   4.524  15.675  1.0270  0.7764 -0.0130
19829TIP3   OH280977   5.186   2.937  12.668  0.4058 -0.2396 -0.3982
19829TIP3    H180978   5.159   2.846  12.654 -1.2154 -0.0336  1.0194
19829TIP3    H280979   5.195   2.946  12.763 -1.1925  1.4721 -0.3251
19830TIP3   OH280980   3.398   2.533   0.482 -0.5639 -0.1839  0.1437
19830TIP3    H180981   3.417   2.452   0.433  0.2773 -0.1030  0.3293
19830TIP3    H280982   3.376   2.503   0.570 -0.5076 -0.2221  0.1446
19831TIP3   OH280983   1.847   2.435   3.993 -0.7274 -0.0263 -0.1334
19831TIP3    H180984   1.803   2.353   3.971 -0.9788 -0.2678  1.1659
19831TIP3    H280985   1.777   2.491   4.028 -0.6454  0.9291 -1.4403
19832TIP3   OH280986   0.462   4.035  13.933 -0.2624  0.3831 -0.7342
19832TIP3    H180987   0.408   3.995  13.864  1.2800  0.5429 -2.1071
19832TIP3    H280988   0.487   4.121  13.898  0.1312  0.6850  0.2459
19833TIP3   OH280989   4.469   6.141  12.549  0.3622 -0.7222  0.5123
19833TIP3    H180990   4.479   6.176  12.460  0.2647 -0.7006  0.5094
19833TIP3    H280991   4.383   6.099  12.549  1.0998 -2.3167  0.0575
19834TIP3   OH280992   4.122   6.211   2.944  0.1030  0.3457 -0.3734
19834TIP3    H180993   4.210   6.175   2.954 -0.6968 -1.3283  1.3507
19834TIP3    H280994   4.091   6.176   2.861  0.0833 -1.4129  0.3327
19835TIP3   OH280995   5.224   1.260   5.831 -0.3422  0.4827  0.2446
19835TIP3    H180996   5.261   1.348   5.828 -3.5260  2.0770  2.0398
19835TIP3    H280997   5.276   1.214   5.896  0.0907  1.7630  0.8259
19836TIP3   OH280998   2.326   2.740   6.802  0.3904  0.0176 -0.1578
19836TIP3    H180999   2.417   2.766   6.788  0.7866 -1.4790 -0.4788
19836TIP3    H281000   2.325   2.646   6.789 -1.3361  0.0854 -0.8415
19837TIP3   OH281001   2.564   5.159   2.511 -0.0564 -0.0459  0.5700
19837TIP3    H181002   2.503   5.105   2.460 -0.4799 -1.2940  2.2813
19837TIP3    H281003   2.518   5.243   2.522 -0.4737 -0.1842 -0.0707
19838TIP3   OH281004   3.355   0.140   3.610 -0.0275 -0.0963 -0.3047
19838TIP3    H181005   3.397   0.160   3.526  0.8719  0.6086  0.3009
19838TIP3    H281006   3.415   0.174   3.676 -1.4353  0.7019  0.6052
19839TIP3   OH281007   0.056   4.118  11.952 -0.3041  0.3532 -0.1272
19839TIP3    H181008   0.006   4.045  11.916 -1.0181  1.2378 -0.9686
19839TIP3    H281009   0.141   4.113  11.907 -0.5321  0.3316 -0.5660
19840TIP3   OH281010   6.232   3.387  11.807  0.1963  0.4007  0.3737
19840TIP3    H181011   6.181   3.342  11.874  1.4997  1.9160  2.5147
19840TIP3    H281012   6.322   3.358  11.823  0.4578  0.1984 -1.2823
19841TIP3   OH281013   2.325   6.041  14.686 -0.2716 -0.3645 -0.5276
19841TIP3    H181014   2.280   6.117  14.650  0.0967  1.4019  2.4575
19841TIP3    H281015   2.390   6.018  14.620 -0.6309  1.6748 -1.6674
19842TIP3   OH281016   4.962   0.629  15.739  0.5939  0.2239  0.2721
19842TIP3    H181017   4.967   0.661  15.829  0.2638 -0.6060  0.5953
19842TIP3    H281018   4.872   0.649  15.712  0.4321 -0.2743  0.4246
19843TIP3   OH281019   0.996   0.012  16.071  0.1169  0.2364  0.7340
19843TIP3    H181020   1.032   0.101  16.078  1.3813 -0.1909  0.0964
19843TIP3    H281021   1.021  -0.031  16.153 -0.0206  0.3100  0.8135
19844TIP3   OH281022   1.526   1.341   3.904  0.2469  0.3066 -0.3357
19844TIP3    H181023   1.581   1.419   3.895 -0.1163  0.6123  0.0404
19844TIP3    H281024   1.439   1.375   3.927  0.3592 -0.2615  1.0097
19845TIP3   OH281025   6.691   2.677   0.194 -0.1605  0.1851 -0.2048
19845TIP3    H181026   6.662   2.594   0.232 -0.4639  0.5224  0.3030
19845TIP3    H281027   6.735   2.651   0.113  1.4873 -0.6445  0.8917
19846TIP3   OH281028   4.049   0.695  12.560  0.2534 -0.4017  0.8293
19846TIP3    H181029   3.992   0.633  12.605  0.3759 -0.7153  0.5585
19846TIP3    H281030   4.123   0.707  12.619 -0.0309 -0.0957  1.1235
19847TIP3   OH281031   1.058   1.199   4.243  0.0842 -0.2351 -0.1224
19847TIP3    H181032   1.123   1.131   4.263 -0.7404 -1.1435 -0.4627
19847TIP3    H281033   0.981   1.174   4.294  0.0775  0.9941  0.4948
19848TIP3   OH281034   5.081   4.736  11.118 -0.3394  0.4129 -0.1960
19848TIP3    H181035   5.110   4.756  11.029  1.5122 -1.8565 -0.2074
19848TIP3    H281036   5.014   4.669  11.107  2.3632 -2.6114  0.0222
19849TIP3   OH281037   4.321   2.386  14.114 -0.1365 -0.1762  0.4642
19849TIP3    H181038   4.324   2.448  14.042  0.0186 -0.1450  0.4971
19849TIP3    H281039   4.409   2.389  14.152 -0.2822 -0.0276  0.7945
19850TIP3   OH281040   2.484   1.643  12.932  0.1562  0.0936 -0.7196
19850TIP3    H181041   2.506   1.726  12.976 -0.0802 -0.7368  1.0567
19850TIP3    H281042   2.413   1.666  12.872 -0.8372  0.9443  0.7315
19851TIP3   OH281043   5.518   6.768   1.542 -0.1502 -0.5161 -0.4472
19851TIP3    H181044   5.529   6.845   1.597 -1.1213 -0.3873 -0.4155
19851TIP3    H281045   5.551   6.795   1.456 -1.3832  0.2713 -0.6918
19852TIP3   OH281046   5.370   3.790   1.395  0.4019  0.1482 -0.7134
19852TIP3    H181047   5.431   3.743   1.338  1.4390  0.2827  0.2629
19852TIP3    H281048   5.356   3.874   1.352 -2.6192 -1.4200 -3.2759
19853TIP3   OH281049   2.770   1.247   4.149 -0.4501  0.1802  0.4894
19853TIP3    H181050   2.677   1.248   4.172 -1.1266  0.7062 -1.9617
19853TIP3    H281051   2.796   1.155   4.153 -0.4660  0.2327  3.1943
19854TIP3   OH281052   0.333   3.078  12.117  0.8695  1.1701  0.1656
19854TIP3    H181053   0.244   3.072  12.083  0.4334  2.6167  0.9563
19854TIP3    H281054   0.366   3.161  12.083  1.5981  1.0681  0.6060
19855TIP3   OH281055   5.206   4.513  15.215  0.2647  0.4373  0.8205
19855TIP3    H181056   5.163   4.599  15.216  0.9537  0.7926  0.6101
19855TIP3    H281057   5.242   4.506  15.127  0.7554  0.2073  1.0396
19856TIP3   OH281058   2.655   0.443   1.609 -0.1578 -0.8447 -0.5339
19856TIP3    H181059   2.564   0.471   1.593  0.3624  1.7513  0.4769
19856TIP3    H281060   2.707   0.519   1.582  1.3640 -0.3419  3.3136
19857TIP3   OH281061   1.043   3.407   4.395  0.2130 -0.1959 -0.0924
19857TIP3    H181062   1.116   3.405   4.333 -0.3587  0.1985 -0.7938
19857TIP3    H281063   1.050   3.492   4.439  0.4030 -0.3210  0.1195
19858TIP3   OH281064   5.638   2.998  14.370  0.2643 -0.1696 -0.3831
19858TIP3    H181065   5.682   3.065  14.318  0.1943  1.0764  1.0874
19858TIP3    H281066   5.554   3.039  14.395 -0.4362 -1.3758 -0.6852
19859TIP3   OH281067   1.305   1.861  14.195  0.1671 -0.1020 -0.1342
19859TIP3    H181068   1.332   1.781  14.150 -2.2183 -1.6359  0.9861
19859TIP3    H281069   1.307   1.839  14.288 -0.0704  1.3085  0.2317
19860TIP3   OH281070   3.378   5.091  14.120 -0.3662  0.0731  1.0932
19860TIP3    H181071   3.466   5.053  14.131  0.5036  2.0998  1.5050
19860TIP3    H281072   3.361   5.085  14.026  0.7973  0.8208  0.8103
19861TIP3   OH281073   3.635   6.678  14.846 -0.2132  0.1958  0.4785
19861TIP3    H181074   3.717   6.657  14.891 -0.1448 -0.4211  0.0737
19861TIP3    H281075   3.570   6.681  14.917  0.1403  0.6018  0.7887
19862TIP3   OH281076   2.529   2.167   4.127 -0.8054  0.5559  0.1031
19862TIP3    H181077   2.593   2.237   4.138 -2.2092  1.6326  2.1127
19862TIP3    H281078   2.475   2.195   4.054  0.9992 -0.4315 -1.7108
19863TIP3   OH281079   4.586   2.669   0.321 -0.5979 -0.1130 -0.1709
19863TIP3    H181080   4.572   2.574   0.320  0.5559 -0.3075  0.1191
19863TIP3    H281081   4.548   2.699   0.403 -0.6200 -0.3943 -0.0774
19864TIP3   OH281082   2.931   1.693  14.825 -0.4757 -0.4051 -0.1616
19864TIP3    H181083   2.962   1.755  14.759  1.7805 -1.0364  0.2330
19864TIP3    H281084   2.853   1.735  14.862 -0.5416  0.9468 -1.7067
19865TIP3   OH281085   4.982   3.633  14.061  0.6799  0.5762 -0.3352
19865TIP3    H181086   5.036   3.686  14.120 -0.5941  0.3705  1.0771
19865TIP3    H281087   4.964   3.553  14.111 -0.1927  0.2754 -1.1172
19866TIP3   OH281088   5.282   3.403  12.323  0.5222 -0.4620 -0.2564
19866TIP3    H181089   5.368   3.390  12.363  0.0397  0.2675  1.1066
19866TIP3    H281090   5.224   3.343  12.369  0.1862 -0.5346 -0.7636
19867TIP3   OH281091   3.964   3.847  11.610 -0.1907 -0.2604  0.4885
19867TIP3    H181092   4.033   3.836  11.675  0.5151  2.7978  0.4070
19867TIP3    H281093   3.883   3.839  11.660  0.3223  0.5694  1.5003
19868TIP3   OH281094   3.235   0.485  15.151 -1.1479  0.4206 -0.2446
19868TIP3    H181095   3.167   0.465  15.215 -1.8666  0.1785 -1.0772
19868TIP3    H281096   3.317   0.479  15.201 -1.6768 -0.0383  0.5881
19869TIP3   OH281097   4.142   2.180   6.308 -0.0952 -0.6342  0.0771
19869TIP3    H181098   4.161   2.181   6.402  0.0854 -0.3762  0.0373
19869TIP3    H281099   4.157   2.089   6.282  0.0392 -0.6649  0.2602
19870TIP3   OH281100   3.266   1.905   3.861 -0.5056 -0.0591  0.7767
19870TIP3    H181101   3.307   1.986   3.830  0.0285 -1.0159 -1.1559
19870TIP3    H281102   3.195   1.889   3.798 -0.2462 -1.3698  0.8006
19871TIP3   OH281103   1.955   1.335   4.234 -0.2379  0.1652  0.5606
19871TIP3    H181104   1.878   1.380   4.268 -1.3243  0.0688 -1.6374
19871TIP3    H281105   1.976   1.381   4.153  0.3633 -1.5029 -0.2653
19872TIP3   OH281106   6.206   4.067  13.818  0.0414  0.2223 -0.3454
19872TIP3    H181107   6.295   4.100  13.814  0.0465  0.2514 -0.0305
19872TIP3    H281108   6.213   3.987  13.871 -0.0922  0.1361 -0.4581
19873TIP3   OH281109   4.809   4.812  12.699 -0.0882  0.0332 -0.5873
19873TIP3    H181110   4.786   4.720  12.701  4.3912 -1.3213  1.3330
19873TIP3    H281111   4.809   4.839  12.791  1.0458  1.1787 -0.8748
19874TIP3   OH281112   3.429   5.940   6.406 -0.6455  0.2326 -0.0067
19874TIP3    H181113   3.356   5.946   6.344 -0.8182  0.7160  0.2367
19874TIP3    H281114   3.498   5.994   6.368 -1.3304  1.8814  0.9976
19875TIP3   OH281115   6.244   4.993   4.479 -0.2023  0.1438 -0.2892
19875TIP3    H181116   6.207   4.964   4.395  2.9497  1.3936 -2.3101
19875TIP3    H281117   6.321   4.938   4.491  0.1999  0.9651  1.0396
19876TIP3   OH281118   0.310   5.404  17.053 -0.4798  0.5865 -0.1932
19876TIP3    H181119   0.227   5.432  17.016  0.1666  2.4423 -0.3524
19876TIP3    H281120   0.289   5.377  17.142 -1.3707  0.2131 -0.5094
19877TIP3   OH281121   1.855   0.933  16.121  0.0285  0.2748  0.8746
19877TIP3    H181122   1.876   0.963  16.209  0.8292  0.2375  0.7030
19877TIP3    H281123   1.759   0.937  16.116 -0.3057 -2.5633  2.7607
19878TIP3   OH281124   3.601   4.786  13.093  0.0121  0.6361  0.9038
19878TIP3    H181125   3.575   4.863  13.042  3.4085  1.9514  0.8146
19878TIP3    H281126   3.668   4.744  13.040  0.1367 -0.8353  2.1523
19879TIP3   OH281127   6.392   4.430   5.363 -0.1083 -0.2170  0.0261
19879TIP3    H181128   6.301   4.451   5.342 -0.1324 -1.7233 -1.6645
19879TIP3    H281129   6.439   4.443   5.281  0.5310 -2.6802 -0.0977
19880TIP3   OH281130   5.407   6.035  10.968 -0.2643  0.2700  0.1695
19880TIP3    H181131   5.468   6.106  10.948 -0.3461  0.8953  2.0019
19880TIP3    H281132   5.459   5.971  11.016 -0.1444 -1.0683 -1.6123
19881TIP3   OH281133   2.164   4.084  14.356  0.1516  0.3543 -0.7614
19881TIP3    H181134   2.147   4.177  14.373  1.5696  0.9334 -2.2417
19881TIP3    H281135   2.254   4.071  14.387 -0.3269 -0.7770  0.2342
19882TIP3   OH281136   4.513   4.230  12.402  0.7168  0.3483  0.3386
19882TIP3    H181137   4.484   4.289  12.472  0.9621 -0.8366  1.4712
19882TIP3    H281138   4.574   4.170  12.445  1.7637  0.3016 -1.1463
19883TIP3   OH281139   3.161   3.054  12.195  0.0661 -0.2174 -0.1292
19883TIP3    H181140   3.151   3.044  12.101 -0.2084  0.1381 -0.1385
19883TIP3    H281141   3.254   3.073  12.207 -0.2284  1.5678 -0.5002
19884TIP3   OH281142   1.114   3.863   1.811 -0.2365  0.5456 -0.3873
19884TIP3    H181143   1.204   3.894   1.807  0.2610 -0.8296 -0.6493
19884TIP3    H281144   1.103   3.812   1.730 -1.5439  1.4210 -0.7956
19885TIP3   OH281145   5.050   2.380  12.059 -0.1759 -0.6053  0.6772
19885TIP3    H181146   5.060   2.447  11.992 -0.3006 -0.4292  0.8336
19885TIP3    H281147   5.052   2.297  12.012 -1.2769 -0.4545  0.3422
19886TIP3   OH281148   1.694   1.376  16.454  0.2295 -0.3848 -0.4914
19886TIP3    H181149   1.666   1.304  16.511  1.4244  0.2018  0.9015
19886TIP3    H281150   1.613   1.413  16.421 -0.5952 -0.0725  1.7224
19887TIP3   OH281151   4.135   6.008  14.373  0.1517  0.4591  0.4319
19887TIP3    H181152   4.064   6.019  14.436 -0.8671 -0.0574 -0.5820
19887TIP3    H281153   4.103   5.940  14.313  0.5245  1.8248 -1.3970
19888TIP3   OH281154   6.425   5.809  15.043 -0.0976  0.2558  0.2138
19888TIP3    H181155   6.382   5.754  15.107 -0.9296  1.1683  0.4492
19888TIP3    H281156   6.516   5.814  15.073 -0.1763 -0.4008  0.5777
19889TIP3   OH281157   6.805   2.805  14.636  0.4875 -0.3749 -0.7239
19889TIP3    H181158   6.750   2.849  14.701  1.0195 -0.8144  0.0422
19889TIP3    H281159   6.894   2.831  14.658  0.7593 -1.3268 -0.6464
19890TIP3   OH281160   2.121   6.155  16.199  0.2341  0.5485 -0.4075
19890TIP3    H181161   2.120   6.060  16.213  0.7421  0.7136  0.8500
19890TIP3    H281162   2.147   6.165  16.107 -1.7752 -0.5597 -1.1595
19891TIP3   OH281163   5.869   6.635   1.585 -0.2252 -0.1182 -0.1954
19891TIP3    H181164   5.826   6.686   1.653 -0.9666 -1.2897  0.2414
19891TIP3    H281165   5.884   6.698   1.514  0.0279  0.9796  0.7981
19892TIP3   OH281166   1.054   5.368   3.156 -0.3821  0.4265  0.1535
19892TIP3    H181167   1.133   5.327   3.121 -0.9205  0.0547 -0.6762
19892TIP3    H281168   1.065   5.461   3.140  0.4325  0.5229  1.1841
19893TIP3   OH281169   3.009   0.658  16.813  0.2880 -0.0944 -0.1171
19893TIP3    H181170   2.966   0.627  16.893  0.1191  0.4316  0.0049
19893TIP3    H281171   2.955   0.624  16.742 -0.3702  0.5812  0.0375
19894TIP3   OH281172   2.247   5.525   5.268 -0.0897 -0.4319  0.0263
19894TIP3    H181173   2.319   5.559   5.214 -0.7477  1.4501  0.2552
19894TIP3    H281174   2.225   5.441   5.229  0.8180 -0.0614 -1.3597
19895TIP3   OH281175   0.305   5.732  14.391  0.3594  0.1869 -0.1711
19895TIP3    H181176   0.234   5.726  14.327  0.2253  0.7510 -0.0835
19895TIP3    H281177   0.272   5.792  14.458  0.8542  0.3284 -0.0491
19896TIP3   OH281178   1.085   4.308  14.227  0.1187 -0.4511 -0.6637
19896TIP3    H181179   1.110   4.222  14.193 -1.2191  0.1211 -3.3395
19896TIP3    H281180   1.024   4.342  14.162 -0.3738  2.0069  0.9867
19897TIP3   OH281181   0.045   2.547   4.569 -0.0459 -0.0228 -0.4283
19897TIP3    H181182   0.098   2.621   4.540  1.4128 -0.4437  1.0099
19897TIP3    H281183   0.025   2.567   4.661 -0.6826 -0.8201 -0.3860
19898TIP3   OH281184   5.109   5.415   5.679  0.1500  0.2981  0.3889
19898TIP3    H181185   5.194   5.392   5.717  0.2312 -1.8118 -0.8766
19898TIP3    H281186   5.047   5.354   5.720 -0.9646  2.2820  1.8441
19899TIP3   OH281187   1.010   5.975   5.597 -0.4801  0.1451  0.0402
19899TIP3    H181188   1.052   5.942   5.676 -2.1911  3.7465  2.7643
19899TIP3    H281189   0.917   5.955   5.609 -0.6541 -0.3636 -1.7853
19900TIP3   OH281190   2.654   5.423   2.358  0.3211 -0.0128  0.3973
19900TIP3    H181191   2.729   5.422   2.418  0.1492 -0.2123  0.6100
19900TIP3    H281192   2.578   5.431   2.415  0.1378 -0.4801  0.2232
19901TIP3   OH281193   4.540   6.093   6.207 -0.5741 -0.0886 -0.1087
19901TIP3    H181194   4.460   6.117   6.160 -0.5595 -2.4917 -1.5327
19901TIP3    H281195   4.611   6.120   6.148 -0.5479 -2.7138 -1.4364
19902TIP3   OH281196   4.211   4.084  15.287  0.0669 -0.1272  0.0506
19902TIP3    H181197   4.196   4.057  15.197 -0.5118  0.2989  0.0039
19902TIP3    H281198   4.129   4.062  15.333 -0.4086  1.4035  0.0223
19903TIP3   OH281199   4.308   6.748  13.152 -0.0492 -0.1123 -0.6192
19903TIP3    H181200   4.321   6.827  13.098  1.4661  0.0339 -0.0820
19903TIP3    H281201   4.269   6.781  13.233 -1.3482 -0.2063 -1.1666
19904TIP3   OH281202   3.065   1.161  17.069 -0.3374  0.1408  0.6702
19904TIP3    H181203   3.039   1.252  17.086 -0.9011 -0.1933  1.6858
19904TIP3    H281204   3.011   1.109  17.128 -1.7322 -1.0656 -1.5249
19905TIP3   OH281205   3.428   2.063   2.534  0.5606 -0.4186  0.6497
19905TIP3    H181206   3.333   2.058   2.526  0.5100  0.2337  0.7530
19905TIP3    H281207   3.443   2.128   2.603  1.0906  1.2392 -0.9600
19906TIP3   OH281208   2.430   3.278   2.816 -0.3546  1.1177  0.4885
19906TIP3    H181209   2.421   3.366   2.854  1.9125  1.3765  0.5832
19906TIP3    H281210   2.416   3.291   2.723  0.4471  1.6975  0.4383
19907TIP3   OH281211   1.775   5.704   3.274 -0.4033  0.3340  0.2279
19907TIP3    H181212   1.825   5.785   3.290  1.1102 -0.4583 -0.2710
19907TIP3    H281213   1.715   5.727   3.204 -1.3904  1.5578  1.4074
19908TIP3   OH281214   3.587   2.643  13.338 -0.3778 -0.0801  0.3947
19908TIP3    H181215   3.631   2.723  13.366 -1.2172 -0.3982  2.8718
19908TIP3    H281216   3.531   2.672  13.266  0.9020  1.1018 -0.1815
19909TIP3   OH281217   6.007   1.783   4.780  0.2677  0.1066  0.1989
19909TIP3    H181218   6.008   1.872   4.747 -0.8506 -0.2593 -0.8800
19909TIP3    H281219   5.929   1.779   4.836 -0.7740 -0.6907 -1.2614
19910TIP3   OH281220   3.183   3.925  11.012 -0.0729  0.2927 -0.3147
19910TIP3    H181221   3.234   3.939  11.091 -1.4192 -1.7029  1.0034
19910TIP3    H281222   3.211   3.839  10.980 -1.5093 -0.1801 -0.3873
19911TIP3   OH281223   1.498   2.270   0.725  0.2466  0.2427  0.2189
19911TIP3    H181224   1.508   2.235   0.814 -1.7536  1.5089  1.0013
19911TIP3    H281225   1.518   2.363   0.734  0.2170  0.3512 -0.7214
19912TIP3   OH281226   5.064   5.529   3.667 -0.7938 -0.2405  0.1987
19912TIP3    H181227   5.076   5.618   3.635 -1.7278 -0.4707 -0.8248
19912TIP3    H281228   4.983   5.532   3.717 -0.7731 -0.5022  0.2505
19913TIP3   OH281229   0.926   1.438   3.579 -0.0402 -0.1360  0.3911
19913TIP3    H181230   0.958   1.443   3.669 -1.0445  0.0806  0.7508
19913TIP3    H281231   0.838   1.476   3.583  0.3102  0.8909 -0.8914
19914TIP3   OH281232   4.120   1.154  14.591 -0.1355 -0.5031  0.2127
19914TIP3    H181233   4.193   1.129  14.534 -0.6442 -0.3751 -0.5116
19914TIP3    H281234   4.042   1.140  14.537 -0.5146  1.5420  0.1730
19915TIP3   OH281235   3.040   4.534   3.653  0.6677  0.3405  0.5000
19915TIP3    H181236   2.969   4.596   3.670  0.9751  1.2573 -1.2637
19915TIP3    H281237   3.120   4.588   3.654  0.9551 -0.0158 -0.9444
19916TIP3   OH281238   4.611   1.760  16.213  0.1196 -0.3824  0.4402
19916TIP3    H181239   4.693   1.758  16.263 -0.3686 -1.1333  1.2565
19916TIP3    H281240   4.546   1.789  16.276 -0.1780  0.6421 -0.3242
19917TIP3   OH281241   5.931   3.040   0.780  0.3240  0.1541  0.3999
19917TIP3    H181242   5.942   3.112   0.717  1.3643 -0.6660 -0.3977
19917TIP3    H281243   5.885   3.080   0.854  1.3768  1.7954  0.2330
19918TIP3   OH281244   0.016   5.976  13.389  0.3071  0.5732  0.3046
19918TIP3    H181245  -0.000   6.025  13.308 -0.2681 -2.0886 -1.2954
19918TIP3    H281246  -0.009   5.886  13.369  3.6921 -1.0001  2.2525
19919TIP3   OH281247   2.436   0.186   3.167  0.6295 -0.0674 -0.7557
19919TIP3    H181248   2.479   0.110   3.128  0.9419  0.6941 -1.9542
19919TIP3    H281249   2.414   0.158   3.256  0.4518 -1.6573 -1.2638
19920TIP3   OH281250   3.065   2.607   0.013 -0.6136 -0.2520 -0.0142
19920TIP3    H181251   3.127   2.622  -0.059  0.7952  0.9515  1.3725
19920TIP3    H281252   3.042   2.695   0.043 -2.0665 -0.7135  0.2972
19921TIP3   OH281253   5.842   5.030  14.457 -0.5298  0.3362  0.1753
19921TIP3    H181254   5.847   4.980  14.538 -1.8409 -0.3779 -0.1643
19921TIP3    H281255   5.754   5.015  14.424  0.1589  0.1005 -1.7097
19922TIP3   OH281256   0.147   3.094  11.258  0.6275  0.1789 -0.6962
19922TIP3    H181257   0.195   3.162  11.211  0.6871 -0.7674 -2.0413
19922TIP3    H281258   0.216   3.045  11.303  0.7432 -0.0155 -1.0821
19923TIP3   OH281259   0.936   1.981  16.682 -0.7213  0.5829 -0.2447
19923TIP3    H181260   0.964   1.911  16.623 -2.3528 -0.9245  0.7079
19923TIP3    H281261   0.846   2.000  16.656 -0.6565  1.6027  0.2096
19924TIP3   OH281262   3.978   6.655  14.845 -0.3176  0.1640  0.3095
19924TIP3    H181263   3.962   6.620  14.757  0.5594 -0.5369  0.4233
19924TIP3    H281264   3.972   6.750  14.834 -2.1279  0.0366 -0.1189
19925TIP3   OH281265   5.125   5.403   1.321  0.5106  0.1724  0.0221
19925TIP3    H181266   5.066   5.337   1.284  0.2317  0.7049 -0.5155
19925TIP3    H281267   5.211   5.382   1.284  0.5309 -0.2304  0.3031
19926TIP3   OH281268   3.543   2.247   2.743  0.7739  0.4729  0.5259
19926TIP3    H181269   3.467   2.305   2.741 -0.0749 -0.6295  0.1992
19926TIP3    H281270   3.546   2.214   2.833  0.2652 -0.2463  0.2867
19927TIP3   OH281271   6.047   0.298  14.233  0.2181 -0.0174 -0.1619
19927TIP3    H181272   6.100   0.223  14.261 -0.6280 -0.2966  0.7278
19927TIP3    H281273   6.067   0.366  14.297 -0.3622 -0.0697  0.0749
19928TIP3   OH281274   3.389   6.445  15.593  0.0240 -0.5367 -0.1759
19928TIP3    H181275   3.470   6.455  15.544 -0.1481 -0.4525 -0.4445
19928TIP3    H281276   3.414   6.396  15.671  0.5921  0.6349  0.4060
19929TIP3   OH281277   2.055   3.919  14.709 -0.1196  0.1584  0.4378
19929TIP3    H181278   2.029   3.979  14.640  1.7271  0.6437  0.1081
19929TIP3    H281279   1.996   3.940  14.782  0.1039  2.0138  0.1445
19930TIP3   OH281280   0.855   3.367  16.038 -0.6908 -0.5312  0.4162
19930TIP3    H181281   0.821   3.353  16.126 -0.6257 -0.7345  0.4098
19930TIP3    H281282   0.932   3.422  16.049 -2.9699  3.0583  0.1760
19931TIP3   OH281283   3.129   0.835  11.754 -0.1490  0.4942  0.2350
19931TIP3    H181284   3.048   0.832  11.703 -1.0726  0.6205  1.6182
19931TIP3    H281285   3.157   0.744  11.762 -0.5706  0.3745  0.3636
19932TIP3   OH281286   3.922   6.423  11.484 -0.0281  0.0568 -0.1098
19932TIP3    H181287   3.985   6.351  11.474  0.7578  0.5065  1.3364
19932TIP3    H281288   3.838   6.385  11.458  0.5633 -1.0318 -0.4978
19933TIP3   OH281289   4.932   2.088   1.486  0.0515  0.1470  0.1210
19933TIP3    H181290   5.027   2.101   1.485 -0.1690  1.9461 -0.8043
19933TIP3    H281291   4.900   2.152   1.550 -0.5638 -0.3664  0.3360
19934TIP3   OH281292   2.275   5.160  12.563  0.4195  0.0548 -0.2405
19934TIP3    H181293   2.351   5.218  12.561  1.2674 -0.8603  2.0384
19934TIP3    H281294   2.305   5.083  12.611 -1.6050 -0.8923 -0.3818
19935TIP3   OH281295   1.410   6.025   0.807  0.3785  0.6848  0.1409
19935TIP3    H181296   1.446   6.102   0.762  0.4150  0.7271  0.2412
19935TIP3    H281297   1.450   5.950   0.762 -0.2320  0.7025 -0.4404
19936TIP3   OH281298   5.348   1.242   0.076 -0.2503  0.3324 -0.0181
19936TIP3    H181299   5.419   1.201   0.027 -0.6713 -1.5249  0.8277
19936TIP3    H281300   5.274   1.183   0.066 -0.6975  0.4945  1.8292
19937TIP3   OH281301   1.458   2.908   3.872 -0.1576 -0.5180  0.3761
19937TIP3    H181302   1.439   2.845   3.941  0.2626 -2.2068 -0.9600
19937TIP3    H281303   1.554   2.906   3.863 -0.2272 -0.6357 -0.4914
19938TIP3   OH281304   2.792   5.113   1.774  0.7130 -0.3120 -0.0536
19938TIP3    H181305   2.842   5.195   1.775 -0.6863  0.5960 -0.4269
19938TIP3    H281306   2.810   5.075   1.688  0.4208  0.2422 -0.3685
19939TIP3   OH281307   0.170   6.062  11.618  0.3746  0.5029  0.2235
19939TIP3    H181308   0.089   6.060  11.567  0.3861 -0.0611  0.2230
19939TIP3    H281309   0.150   6.118  11.693  0.3320  1.2749 -0.3499
19940TIP3   OH281310   5.300   1.257   5.134  0.1385  0.0271 -0.0809
19940TIP3    H181311   5.306   1.161   5.141  1.0388  0.1747  1.6288
19940TIP3    H281312   5.302   1.273   5.040  1.9137 -1.5590 -0.3952
19941TIP3   OH281313   4.077   3.489  12.774 -0.1446 -0.3637  0.2891
19941TIP3    H181314   4.087   3.577  12.738 -2.1888 -0.1237  0.1888
19941TIP3    H281315   4.051   3.435  12.699  0.8295 -1.0023  0.3989
19942TIP3   OH281316   2.269   6.767  15.559 -0.3505  0.5723 -0.1780
19942TIP3    H181317   2.274   6.771  15.655  0.2708  2.1696 -0.2431
19942TIP3    H281318   2.205   6.835  15.536 -1.4360 -0.6489 -0.8540
19943TIP3   OH281319   2.828   3.981   3.659  0.4160  0.1370 -0.1485
19943TIP3    H181320   2.879   4.061   3.666  0.5385  0.1136 -0.7021
19943TIP3    H281321   2.766   3.984   3.732  1.6564 -0.1555  0.9514
19944TIP3   OH281322   4.160   0.821  16.281 -0.1123  0.3288  0.4018
19944TIP3    H181323   4.235   0.776  16.243  0.5903  1.9440 -0.2081
19944TIP3    H281324   4.090   0.807  16.217  0.3085  0.7369 -0.1560
19945TIP3   OH281325   5.077   4.681   5.324  0.3861 -0.2646  0.3193
19945TIP3    H181326   5.029   4.615   5.373 -1.0961  0.7437  0.3006
19945TIP3    H281327   5.045   4.764   5.358  1.9348  0.4664  0.0902
19946TIP3   OH281328   0.078   0.548  16.396  0.0180  0.4974 -0.1564
19946TIP3    H181329   0.087   0.541  16.301 -0.7966  0.8330 -0.2748
19946TIP3    H281330   0.028   0.471  16.422 -0.7910  0.9963 -0.1767
19947TIP3   OH281331   6.761   4.136  12.532  0.4724 -0.2273 -0.3282
19947TIP3    H181332   6.754   4.094  12.447 -0.9271  0.5125 -0.6183
19947TIP3    H281333   6.793   4.224  12.513  1.3576 -0.4580  0.0513
19948TIP3   OH281334   3.439   3.392   2.208 -0.4925  0.3437  0.3156
19948TIP3    H181335   3.369   3.419   2.267 -1.3475  0.7982 -0.8826
19948TIP3    H281336   3.414   3.305   2.179  0.4611 -0.3271  1.3960
19949TIP3   OH281337   5.839   4.516   6.205 -0.6582  0.0680 -0.2095
19949TIP3    H181338   5.914   4.458   6.201 -1.0380 -0.4050 -3.3605
19949TIP3    H281339   5.768   4.461   6.238 -0.4266 -0.5613 -0.7311
19950TIP3   OH281340   0.815   3.699   1.899 -0.2170 -0.2641 -0.3343
19950TIP3    H181341   0.865   3.685   1.819 -1.0538 -0.1870 -0.8880
19950TIP3    H281342   0.817   3.794   1.912  0.9002 -0.3775  0.3965
19951TIP3   OH281343   1.654   2.372  15.203  0.5767  0.0541 -0.1949
19951TIP3    H181344   1.682   2.317  15.276  1.8727  0.9060 -0.0243
19951TIP3    H281345   1.565   2.400  15.227  1.0648  0.5193  1.1834
19952TIP3   OH281346   6.378   3.393   4.509  0.0677 -0.0570 -0.3541
19952TIP3    H181347   6.357   3.487   4.504 -1.5439 -0.2970  0.8789
19952TIP3    H281348   6.384   3.376   4.603 -1.2394 -1.4741 -0.4879
19953TIP3   OH281349   3.216   2.500  11.758 -0.6306 -0.0940 -0.2757
19953TIP3    H181350   3.251   2.589  11.764  0.3194 -0.2322 -2.6886
19953TIP3    H281351   3.209   2.483  11.664 -1.7719 -2.2135  0.1254
19954TIP3   OH281352   2.438   3.567  10.809  0.2791 -0.3429 -0.7892
19954TIP3    H181353   2.528   3.545  10.783 -0.1797 -2.1321 -0.9464
19954TIP3    H281354   2.384   3.538  10.736 -0.6426 -1.5046  0.3197
19955TIP3   OH281355   0.804   2.747  16.801  0.1714  0.0979 -0.3257
19955TIP3    H181356   0.740   2.680  16.776  0.6597  0.1131 -1.7073
19955TIP3    H281357   0.798   2.752  16.896 -0.8798 -0.8985 -0.3207
19956TIP3   OH281358   0.868   5.735   4.508  0.1079 -0.2637  0.1891
19956TIP3    H181359   0.845   5.708   4.419  0.4262  0.4095 -0.0971
19956TIP3    H281360   0.963   5.746   4.507  0.1882 -0.8109  0.7711
19957TIP3   OH281361   5.770   1.582   3.387 -0.0306 -0.1985  0.1042
19957TIP3    H181362   5.695   1.539   3.427  0.0958 -0.8136 -0.3020
19957TIP3    H281363   5.741   1.672   3.373  0.1071  0.1915  2.0532
19958TIP3   OH281364   2.794   5.967   1.800  0.3944 -0.0496 -1.4323
19958TIP3    H181365   2.847   5.926   1.869 -0.0894  1.3953 -0.1559
19958TIP3    H281366   2.837   6.051   1.784 -0.1504  0.1049 -2.1061
19959TIP3   OH281367   1.086   5.071   0.907 -0.2966 -0.4713 -0.0798
19959TIP3    H181368   1.016   5.069   0.973  0.3207 -1.0646  0.5718
19959TIP3    H281369   1.109   4.979   0.894 -0.1740 -0.3352 -0.8758
19960TIP3   OH281370   3.643   5.433  16.081 -0.0360 -0.1131  0.4567
19960TIP3    H181371   3.567   5.439  16.139  1.9758  0.4412  3.2387
19960TIP3    H281372   3.634   5.348  16.038 -2.8389  0.4763 -0.3496
19961TIP3   OH281373   5.070   5.517   3.063 -0.3102 -0.7769  0.3658
19961TIP3    H181374   5.062   5.459   2.987  1.4112  0.2343 -0.6463
19961TIP3    H281375   5.011   5.590   3.045  0.0231 -0.5866  0.0368
19962TIP3   OH281376   0.285   3.982   0.130  0.3365 -0.1457 -0.0698
19962TIP3    H181377   0.292   4.055   0.069  0.5315 -0.1078 -0.0034
19962TIP3    H281378   0.246   4.020   0.209 -4.0335 -0.9942 -1.5614
19963TIP3   OH281379   0.713   2.314  11.196 -0.2215  0.2002 -0.3179
19963TIP3    H181380   0.625   2.286  11.169  0.0196 -1.0290  0.1188
19963TIP3    H281381   0.768   2.237  11.182  0.7744  0.9139 -0.4621
19964TIP3   OH281382   6.575   4.388  16.948 -0.2416  0.2609  0.0904
19964TIP3    H181383   6.590   4.430  17.033 -0.8063  0.0415  0.3030
19964TIP3    H281384   6.497   4.431  16.913 -1.9067 -1.7391  1.0980
19965TIP3   OH281385   6.009   4.242  15.535 -0.0751  0.1218  0.0778
19965TIP3    H181386   5.966   4.173  15.486 -1.9751 -0.7048  2.6723
19965TIP3    H281387   5.949   4.317  15.529  0.1243  0.3099  0.3731
19966TIP3   OH281388   5.635   1.704  11.352  0.4425 -0.0263  0.0831
19966TIP3    H181389   5.580   1.626  11.347  0.0014  0.0960  1.9652
19966TIP3    H281390   5.578   1.775  11.322  0.5794 -0.3036 -0.8525
19967TIP3   OH281391   5.639   4.585   5.140 -0.4734  0.8450 -0.3220
19967TIP3    H181392   5.572   4.576   5.072 -0.4847  0.2486 -0.2340
19967TIP3    H281393   5.632   4.505   5.192  0.9283  0.3465 -0.8609
19968TIP3   OH281394   2.077   2.095   3.664  0.0077 -0.2355 -0.2649
19968TIP3    H181395   2.064   2.188   3.682 -1.8557 -0.4456 -0.3513
19968TIP3    H281396   2.020   2.050   3.727  1.9457 -1.4107  0.7567
19969TIP3   OH281397   2.567   0.118   0.755  0.5407  0.1755  0.0511
19969TIP3    H181398   2.657   0.136   0.785  0.3782  4.8509 -1.4050
19969TIP3    H281399   2.514   0.128   0.833  1.0599 -0.3329  0.4849
19970TIP3   OH281400   6.202   6.165   2.522  0.0103  0.4207 -0.0654
19970TIP3    H181401   6.174   6.182   2.433  0.0785  0.2834 -0.1142
19970TIP3    H281402   6.136   6.104   2.557  0.9333 -0.9251 -0.6024
19971TIP3   OH281403   4.694   5.182  13.226  0.2941 -0.3814  0.0337
19971TIP3    H181404   4.621   5.233  13.189 -0.2852 -0.9458  0.3763
19971TIP3    H281405   4.740   5.244  13.283  0.8035  0.3160 -1.0955
19972TIP3   OH281406   4.274   4.501   4.738  0.1438 -0.2776 -0.2297
19972TIP3    H181407   4.202   4.439   4.749  1.3776 -1.3816  2.7971
19972TIP3    H281408   4.306   4.486   4.649 -0.5235 -3.0328 -0.1012
19973TIP3   OH281409   0.434   2.247   1.587  0.2911  0.2923 -0.5005
19973TIP3    H181410   0.492   2.177   1.556  0.0498 -0.1439  0.0228
19973TIP3    H281411   0.347   2.207   1.587  0.3786  0.0005  1.5285
19974TIP3   OH281412   6.817   1.901   0.245  0.6396 -0.6292 -0.5209
19974TIP3    H181413   6.828   1.900   0.340  1.0058 -0.2026 -0.5553
19974TIP3    H281414   6.729   1.935   0.231 -0.0192 -2.1655 -0.2957
19975TIP3   OH281415   1.783   5.771   4.522  0.1775 -0.4374 -0.1898
19975TIP3    H181416   1.716   5.839   4.530  0.1468 -0.5951  1.0350
19975TIP3    H281417   1.866   5.819   4.529  0.1771 -0.3954 -0.4577
19976TIP3   OH281418   0.692   0.008   4.703  0.3058  0.4894 -0.5271
19976TIP3    H181419   0.782  -0.015   4.728  0.3354  0.0486 -1.0291
19976TIP3    H281420   0.659   0.057   4.778  0.4910 -0.5651  0.2632
19977TIP3   OH281421   1.921   3.229   2.734  0.1950 -0.5057 -0.6623
19977TIP3    H181422   1.866   3.197   2.806  1.0754 -0.0048  0.2575
19977TIP3    H281423   2.006   3.188   2.749  0.1730 -1.0304 -1.9002
19978TIP3   OH281424   5.986   4.454  11.587  1.0329 -0.6928  0.9279
19978TIP3    H181425   5.915   4.390  11.576  2.2794 -2.1586  1.0682
19978TIP3    H281426   5.951   4.517  11.650  0.0475 -1.7206  1.4577
19979TIP3   OH281427   1.960   0.306   5.272 -0.0644  0.3105  0.0226
19979TIP3    H181428   2.040   0.330   5.225  0.1320 -0.1088  0.1301
19979TIP3    H281429   1.922   0.236   5.219  0.1095 -0.0987  0.4341
19980TIP3   OH281430   4.545   4.926  16.267  0.0290 -1.0437 -0.0439
19980TIP3    H181431   4.496   4.956  16.344  0.4921 -1.7032  0.5194
19980TIP3    H281432   4.593   5.003  16.238 -1.1007 -0.4567 -0.4350
19981TIP3   OH281433   2.698   3.178  13.128 -0.0978 -0.3679 -0.3681
19981TIP3    H181434   2.613   3.175  13.083 -0.8975  1.1292  0.9211
19981TIP3    H281435   2.676   3.181  13.221  1.4034 -0.6062  0.0191
19982TIP3   OH281436   4.847   2.182  14.625  0.0042 -0.5977 -0.4630
19982TIP3    H181437   4.897   2.263  14.619  1.2171 -1.2519  0.4020
19982TIP3    H281438   4.759   2.210  14.647  0.4492  0.4737  0.0330
19983TIP3   OH281439   1.999   5.814   2.441  0.8310  0.0091  0.4071
19983TIP3    H181440   1.991   5.740   2.380 -0.9200  1.1643 -0.8775
19983TIP3    H281441   2.004   5.891   2.384  0.2084  1.0595  1.7243
19984TIP3   OH281442   5.286   5.045   2.016 -0.1705 -0.3146 -0.5350
19984TIP3    H181443   5.370   5.087   1.997  0.2311  0.2967  2.1522
19984TIP3    H281444   5.229   5.117   2.042 -0.8452 -0.9529 -0.2296
19985TIP3   OH281445   4.727   0.080  16.657 -0.5489 -0.1928  0.2029
19985TIP3    H181446   4.662   0.076  16.727 -0.9686  0.4046 -0.1369
19985TIP3    H281447   4.780   0.157  16.678 -1.7220  0.9901 -0.9977
19986TIP3   OH281448   5.521   4.668  13.987  0.0117 -0.3712  0.1914
19986TIP3    H181449   5.607   4.666  14.030 -0.1774 -0.0411  0.5825
19986TIP3    H281450   5.460   4.639  14.054 -0.3825  0.8629  0.3850
19987TIP3   OH281451   1.093   3.504  16.151 -0.2488  0.5000  0.0038
19987TIP3    H181452   1.100   3.593  16.117  3.5267 -0.2472 -1.7738
19987TIP3    H281453   1.040   3.511  16.230 -2.3684  3.7926 -1.4940
19988TIP3   OH281454   0.836   3.712  13.644 -0.7122 -0.2661  0.4747
19988TIP3    H181455   0.904   3.653  13.610 -0.6156 -0.1442  0.4568
19988TIP3    H281456   0.862   3.727  13.735 -0.6451 -0.1171  0.4304
19989TIP3   OH281457   1.943   5.684   0.756 -0.4557 -0.5309  0.2901
19989TIP3    H181458   1.915   5.705   0.668  0.3723 -0.5718  0.0071
19989TIP3    H281459   1.910   5.595   0.771 -0.0648 -0.7675 -0.2189
19990TIP3   OH281460   0.870   2.108   0.555  0.0951  0.6290  0.0195
19990TIP3    H181461   0.924   2.132   0.480  0.4927 -0.4748 -0.0522
19990TIP3    H281462   0.931   2.103   0.629 -0.0947  0.4752  0.1670
19991TIP3   OH281463   6.021   2.038  12.685 -0.1779  0.0879 -0.3498
19991TIP3    H181464   5.977   2.122  12.694 -1.5971 -0.6024 -0.4624
19991TIP3    H281465   6.042   2.012  12.775  0.5001  0.6624 -0.3331
19992TIP3   OH281466   1.988   5.806  13.092  0.3287 -0.1700  0.0215
19992TIP3    H181467   2.049   5.794  13.019  0.2573  1.0988 -0.2740
19992TIP3    H281468   1.983   5.901  13.104 -0.7829 -0.2939  0.7262
19993TIP3   OH281469   1.577   1.515   3.517  0.0423 -0.3642  0.6096
19993TIP3    H181470   1.542   1.543   3.432 -1.8708 -2.0586  0.7548
19993TIP3    H281471   1.570   1.593   3.572 -0.0685  0.3538 -0.3778
19994TIP3   OH281472   1.161   3.455  12.270 -0.4020  0.5723  0.0666
19994TIP3    H181473   1.234   3.514  12.251 -0.0991 -0.0457 -0.7796
19994TIP3    H281474   1.199   3.389  12.329 -1.1023  1.9686  2.1757
19995TIP3   OH281475   0.189   1.711  12.532  0.1631 -0.0273 -0.0107
19995TIP3    H181476   0.215   1.633  12.580  1.1889  0.4563  0.2439
19995TIP3    H281477   0.094   1.704  12.525 -0.1690  0.2656  2.8162
19996TIP3   OH281478   0.609   6.113  16.939  0.3497  0.1481 -0.4482
19996TIP3    H181479   0.591   6.133  17.030 -0.5502  0.3316 -0.6645
19996TIP3    H281480   0.672   6.041  16.943 -0.5345 -0.6074  0.3229
19997TIP3   OH281481   2.601   5.118   6.131 -0.3595  0.0111 -0.1725
19997TIP3    H181482   2.655   5.190   6.163 -0.4727  0.0216 -0.0018
19997TIP3    H281483   2.639   5.040   6.172 -1.6897  0.2191  1.5919
19998TIP3   OH281484   4.611   2.297  14.109 -0.1571 -0.2017  0.6119
19998TIP3    H181485   4.657   2.215  14.129 -1.1988 -0.6979  1.1202
19998TIP3    H281486   4.639   2.320  14.021 -0.2343 -1.4064  0.2542
19999TIP3   OH281487   1.208   0.494   5.825  0.3595 -0.0741 -0.2370
19999TIP3    H181488   1.188   0.481   5.732  1.7494 -0.7265 -0.4621
19999TIP3    H281489   1.251   0.414   5.852  1.7825  0.8876  0.4561
20000TIP3   OH281490   5.599   4.853   6.723  0.1755 -0.6753 -0.2201
20000TIP3    H181491   5.517   4.899   6.709  0.7751 -0.0319 -1.9701
20000TIP3    H281492   5.639   4.896   6.799 -1.0821 -1.0097  0.6507
20001TIP3   OH281493   3.892   3.804  15.184  0.0728  0.0486  0.1808
20001TIP3    H181494   3.934   3.834  15.265  0.7505 -0.4038  0.0017
20001TIP3    H281495   3.806   3.773  15.212  0.1206  0.3280  0.6560
20002TIP3   OH281496   6.181   4.625  13.685  0.2708  0.6014 -0.5489
20002TIP3    H181497   6.120   4.635  13.612 -0.7599  3.2668  0.5693
20002TIP3    H281498   6.262   4.664  13.655 -0.2327  1.9373 -0.2314
20003TIP3   OH281499   0.113   6.359   4.275 -0.1033  0.0735  0.0432
20003TIP3    H181500   0.153   6.446   4.278 -1.2968  0.6716 -0.4986
20003TIP3    H281501   0.046   6.366   4.207 -0.9350 -0.9617  0.7194
20004TIP3   OH281502   3.550   3.665   4.789 -0.2580  0.0295  0.0741
20004TIP3    H181503   3.476   3.699   4.739  0.5331 -0.8338 -1.8056
20004TIP3    H281504   3.511   3.618   4.862 -1.5559 -0.0944 -0.6731
20005TIP3   OH281505   6.567   6.780   3.499  0.3702  0.3325  0.5091
20005TIP3    H181506   6.650   6.755   3.540  0.3530 -1.4777 -0.4307
20005TIP3    H281507   6.535   6.698   3.460 -1.8755  0.9747  0.8724
20006TIP3   OH281508   4.392   0.827  15.632  0.1952 -0.1351 -0.4088
20006TIP3    H181509   4.463   0.874  15.589 -1.7109  2.5540 -0.8604
20006TIP3    H281510   4.416   0.826  15.725  1.9969 -1.6463 -0.8317
20007TIP3   OH281511   1.172   4.532  11.280 -0.2999  1.0742 -0.1422
20007TIP3    H181512   1.244   4.587  11.250  1.2636 -1.4911 -1.3424
20007TIP3    H281513   1.208   4.483  11.354 -1.5868  1.4469  0.7638
20008TIP3   OH281514   4.056   2.652  14.826  0.4505  0.6094 -0.0616
20008TIP3    H181515   3.966   2.617  14.829 -0.6843  3.3213  0.2344
20008TIP3    H281516   4.075   2.676  14.917  0.3352  2.5898 -0.5179
20009TIP3   OH281517   1.264   3.789  14.342  0.2318  0.9651  0.4180
20009TIP3    H181518   1.249   3.857  14.408 -0.2853  1.3452 -0.0890
20009TIP3    H281519   1.337   3.737  14.378  1.5042  2.5356  0.2233
20010TIP3   OH281520   0.572   5.282  12.725  0.3504  0.3848  0.3919
20010TIP3    H181521   0.591   5.208  12.666 -1.1150 -2.6744  3.4435
20010TIP3    H281522   0.479   5.299  12.712  0.0099 -0.3307  1.7103
20011TIP3   OH281523   2.613   5.411  11.990 -0.2571  0.1212 -0.2935
20011TIP3    H181524   2.544   5.477  11.998  0.3606  0.7538 -0.0879
20011TIP3    H281525   2.574   5.331  12.027 -1.2188  0.2053 -1.0962
20012TIP3   OH281526   2.899   0.989   0.827  0.5791  0.3464  0.0297
20012TIP3    H181527   2.956   1.053   0.785 -0.4758  2.0881  1.0805
20012TIP3    H281528   2.825   0.979   0.767  0.9361 -0.1932 -0.3185
20013TIP3   OH281529   0.780   0.926   4.795 -0.0439  0.0076 -0.1227
20013TIP3    H181530   0.758   0.989   4.727  0.7904  0.8577  0.3722
20013TIP3    H281531   0.838   0.973   4.854 -1.1497 -0.5269  1.4840
20014TIP3   OH281532   3.911   1.676   1.645  0.5928  0.3811  0.1165
20014TIP3    H181533   3.965   1.687   1.723  1.1932 -0.4630 -0.1633
20014TIP3    H281534   3.850   1.750   1.647  1.2995  0.9611  0.8042
20015TIP3   OH281535   2.354   5.041   2.416 -0.0172 -0.3390 -0.4123
20015TIP3    H181536   2.281   4.981   2.401 -1.6692  0.6027  2.9672
20015TIP3    H281537   2.320   5.128   2.395 -0.6469  0.3336  2.8850
20016TIP3   OH281538   0.170   4.343   4.276 -0.2041 -0.0764  0.2344
20016TIP3    H181539   0.194   4.250   4.277 -0.5913 -0.1722  0.5499
20016TIP3    H281540   0.248   4.388   4.309  0.2475 -0.2251 -0.6039
20017TIP3   OH281541   5.281   0.795  14.302  0.4859  0.2133  0.7611
20017TIP3    H181542   5.211   0.844  14.258 -1.0819 -0.4087  2.4273
20017TIP3    H281543   5.356   0.854  14.299  0.3712  0.3865 -2.2474
20018TIP3   OH281544   5.276   0.204  15.406  0.0738 -0.7526 -0.5715
20018TIP3    H181545   5.318   0.287  15.427 -1.1015 -0.7555  2.0874
20018TIP3    H281546   5.291   0.194  15.312  0.6238  2.2468 -0.9228
20019TIP3   OH281547   5.672   0.083   3.064  1.0012  0.4794 -0.3778
20019TIP3    H181548   5.609   0.015   3.087 -0.0066  0.6700 -2.3523
20019TIP3    H281549   5.670   0.143   3.138  0.9375 -0.9269  0.8202
20020TIP3   OH281550   6.029   0.786  11.645 -0.4664  0.1787 -0.1247
20020TIP3    H181551   6.115   0.786  11.687 -0.3777 -0.4249 -0.2881
20020TIP3    H281552   5.967   0.786  11.717 -0.3177 -0.4756  0.0108
20021TIP3   OH281553   6.277   6.237   6.037  0.1678  0.4915 -0.0209
20021TIP3    H181554   6.289   6.331   6.024  2.6903  0.3369  0.7397
20021TIP3    H281555   6.296   6.223   6.130 -2.6415 -0.4923  0.5194
20022TIP3   OH281556   4.891   1.102  13.095  0.1703 -0.7780 -0.1205
20022TIP3    H181557   4.835   1.121  13.171  0.1077  0.7752 -0.5237
20022TIP3    H281558   4.949   1.032  13.125  0.6341  0.2983  1.6347
20023TIP3   OH281559   2.952   6.413   3.143 -0.1451 -0.1718  0.3069
20023TIP3    H181560   2.883   6.477   3.129  0.1009  0.0754  0.2020
20023TIP3    H281561   2.940   6.383   3.232 -0.2518  0.0347  0.3629
20024TIP3   OH281562   5.337   2.624  10.708  0.7354  0.3260 -0.1657
20024TIP3    H181563   5.312   2.630  10.616 -0.3766 -1.0853  0.0044
20024TIP3    H281564   5.301   2.540  10.737  2.7778 -0.1994  1.0540
20025TIP3   OH281565   0.204   5.783  12.504  0.2112  0.0676 -0.4485
20025TIP3    H181566   0.152   5.852  12.464 -0.6287  0.3957  1.1234
20025TIP3    H281567   0.143   5.710  12.515  1.2598 -1.2503 -2.7596
20026TIP3   OH281568   4.115   5.935   5.260  0.0807  0.0596  0.3565
20026TIP3    H181569   4.124   5.951   5.166 -0.1067  2.1749  0.6363
20026TIP3    H281570   4.088   5.844   5.267 -0.5057  0.0329 -1.6817
20027TIP3   OH281571   0.025   5.996  14.727 -0.5376 -0.5995 -0.3908
20027TIP3    H181572   0.078   6.003  14.807 -0.6703  0.4238 -0.3791
20027TIP3    H281573  -0.065   6.005  14.758 -0.5727  0.1127 -0.6824
20028TIP3   OH281574   4.509   6.471   5.392 -0.3904 -0.0025  0.2807
20028TIP3    H181575   4.436   6.435   5.444 -0.3473  0.1265  0.4309
20028TIP3    H281576   4.467   6.532   5.331 -0.5065 -0.5719 -0.2214
20029TIP3   OH281577   5.326   6.402  14.219  0.4444 -0.6640  0.2175
20029TIP3    H181578   5.307   6.341  14.290  1.5674 -1.2412  0.0474
20029TIP3    H281579   5.354   6.482  14.262 -0.2431 -0.5289  0.4292
20030TIP3   OH281580   6.224   0.695  11.145 -0.1283 -0.2627 -0.4891
20030TIP3    H181581   6.306   0.697  11.095 -0.0687 -0.4072 -0.3969
20030TIP3    H281582   6.233   0.767  11.208 -1.1096  1.3762 -2.1079
20031TIP3   OH281583   2.669   5.390   1.578 -0.0854 -0.4153 -0.3295
20031TIP3    H181584   2.668   5.345   1.494  2.4289 -2.8575  0.7853
20031TIP3    H281585   2.592   5.446   1.577 -2.3462 -3.2747 -2.6669
20032TIP3   OH281586   3.665   0.173  14.868 -0.3871  0.4488  0.1344
20032TIP3    H181587   3.738   0.116  14.893 -2.0822 -1.8655  0.0822
20032TIP3    H281588   3.588   0.134  14.909 -1.7606  2.3162 -0.5226
20033TIP3   OH281589   6.812   5.141  12.540  0.0896  0.4230 -0.2513
20033TIP3    H181590   6.832   5.162  12.448 -0.3925 -0.0698 -0.4748
20033TIP3    H281591   6.748   5.207  12.566  1.3107  1.4895  0.2101
20034TIP3   OH281592   4.974   2.249   1.730 -0.9003  0.9353 -0.0250
20034TIP3    H181593   4.947   2.340   1.717 -0.6724  1.0026 -0.0367
20034TIP3    H281594   5.034   2.252   1.805 -0.3731  0.8972 -0.4363
20035TIP3   OH281595   3.721   1.917   4.574  0.0163 -0.1376 -0.0781
20035TIP3    H181596   3.639   1.875   4.548 -0.1221  0.0518  0.0565
20035TIP3    H281597   3.694   1.991   4.629  0.1509  1.3065 -1.8659
20036TIP3   OH281598   2.067   4.694   3.138 -0.3559 -0.0245 -0.2897
20036TIP3    H181599   2.121   4.724   3.212  0.2324  0.0288 -0.7369
20036TIP3    H281600   2.100   4.743   3.063 -0.9449 -0.0905 -0.5960
20037TIP3   OH281601   1.237   0.207  12.807 -0.2275 -0.5063  0.1502
20037TIP3    H181602   1.166   0.190  12.745  0.1948 -3.6066  0.3883
20037TIP3    H281603   1.311   0.234  12.752 -0.3307 -1.6378 -0.5826
20038TIP3   OH281604   6.330   3.714  12.235 -0.8297  0.4031  0.0092
20038TIP3    H181605   6.372   3.693  12.318  1.0481 -0.5578 -1.1417
20038TIP3    H281606   6.250   3.662  12.235 -0.2087 -0.5757  0.6599
20039TIP3   OH281607   6.718   3.360  15.052 -0.2383 -0.0871  0.0452
20039TIP3    H181608   6.645   3.356  15.113  1.1639  1.4588  1.9445
20039TIP3    H281609   6.743   3.268  15.039 -0.4686 -0.4718  1.9910
20040TIP3   OH281610   3.757   1.517   5.167 -0.2401  0.6985  0.2107
20040TIP3    H181611   3.715   1.478   5.244  0.7901  0.5711  0.7429
20040TIP3    H281612   3.716   1.602   5.156 -1.7175 -0.0482 -0.2580
20041TIP3   OH281613   5.860   0.718  13.939 -0.1890  0.5496 -0.2434
20041TIP3    H181614   5.916   0.754  14.008 -0.1783  1.1217 -0.5377
20041TIP3    H281615   5.913   0.727  13.859 -0.0637 -0.4209 -0.2794
20042TIP3   OH281616   0.618   3.563  14.832  0.9195  0.2625  0.0375
20042TIP3    H181617   0.694   3.511  14.803  0.3279 -0.4703 -0.2359
20042TIP3    H281618   0.625   3.565  14.927  0.7451 -0.6676  0.0827
20043TIP3   OH281619   3.577   1.433   2.176  0.4422  0.1488  0.7949
20043TIP3    H181620   3.521   1.486   2.119  3.8396  1.4561 -1.6596
20043TIP3    H281621   3.578   1.480   2.259  0.1991  1.7379 -0.0586
20044TIP3   OH281622   2.381   0.368  16.529 -0.5514  0.1010  0.1507
20044TIP3    H181623   2.307   0.306  16.533  0.6547 -1.3751  0.7357
20044TIP3    H281624   2.454   0.315  16.497  0.6221  1.1329  1.0566
20045TIP3   OH281625   5.781   6.677  13.362 -0.2599  0.4480 -0.8526
20045TIP3    H181626   5.795   6.688  13.456  2.2159  1.4302 -1.2570
20045TIP3    H281627   5.688   6.693  13.350 -0.3338  2.0369  1.2161
20046TIP3   OH281628   0.173   4.779   4.775 -0.4762  0.0088  0.3494
20046TIP3    H181629   0.238   4.745   4.837 -0.8550  0.3216  0.9247
20046TIP3    H281630   0.165   4.710   4.709 -0.8063 -0.7736  1.1868
20047TIP3   OH281631   5.926   0.330   1.312  0.2815  0.4022 -0.2700
20047TIP3    H181632   5.923   0.245   1.268  1.6646  1.1317 -1.8483
20047TIP3    H281633   5.840   0.368   1.296  0.1909 -0.0485 -0.8914
20048TIP3   OH281634   2.487   0.654  16.461  0.0329 -0.1487  0.1883
20048TIP3    H181635   2.466   0.669  16.553  1.5064 -0.5685  0.6359
20048TIP3    H281636   2.482   0.559  16.451 -0.0016 -0.1121 -0.1294
20049TIP3   OH281637   4.109   3.858   0.149 -0.6163  0.0496 -0.3454
20049TIP3    H181638   4.121   3.777   0.099 -0.2375  0.4253 -0.8685
20049TIP3    H281639   4.025   3.845   0.194 -0.8724 -0.3720 -0.9247
20050TIP3   OH281640   1.765   2.539   1.460 -0.3836 -0.3512  0.0343
20050TIP3    H181641   1.742   2.629   1.435 -1.3748 -1.1603 -2.2089
20050TIP3    H281642   1.853   2.527   1.425 -1.5779 -1.3153 -2.9313
20051TIP3   OH281643   3.192   6.106   3.260 -0.5084 -0.1333  0.3119
20051TIP3    H181644   3.171   6.153   3.179 -0.1909 -0.4320  0.0523
20051TIP3    H281645   3.107   6.080   3.295 -0.7662  1.5074  0.9985
20052TIP3   OH281646   5.350   3.806  12.906  0.0311 -1.0625  0.4507
20052TIP3    H181647   5.435   3.846  12.886  0.1235 -1.8294 -0.8044
20052TIP3    H281648   5.308   3.795  12.821 -1.4731 -0.4337  1.0812
20053TIP3   OH281649   4.651   6.670  13.718 -0.0199 -0.6329 -0.5976
20053TIP3    H181650   4.709   6.701  13.647  0.2234 -1.1596 -0.6358
20053TIP3    H281651   4.564   6.701  13.693 -0.3093 -2.5417 -2.2266
20054TIP3   OH281652   0.053   2.712  12.166 -1.0126 -0.4807 -0.1895
20054TIP3    H181653  -0.037   2.681  12.178 -1.6362  1.5354  0.8072
20054TIP3    H281654   0.095   2.695  12.251 -1.0698  0.4296  0.0266
20055TIP3   OH281655   3.877   3.427  15.055  0.3747  0.2098 -0.0996
20055TIP3    H181656   3.874   3.365  15.128  0.8076  1.9101  1.4706
20055TIP3    H281657   3.812   3.395  14.993  0.2157 -1.4937  0.8806
20056TIP3   OH281658   6.459   0.851  17.106  0.0367 -0.6148  0.0705
20056TIP3    H181659   6.423   0.920  17.051 -0.3004  1.1462  2.3712
20056TIP3    H281660   6.551   0.876  17.118 -0.2140 -0.2158  1.3321
20057TIP3   OH281661   3.457   4.278   5.942 -0.2406 -0.0558 -0.2017
20057TIP3    H181662   3.404   4.200   5.961 -2.8328  1.4424 -0.8263
20057TIP3    H281663   3.468   4.321   6.026  1.1962 -1.0144  0.1458
20058TIP3   OH281664   4.052   6.404   1.338  0.2200  0.1916 -0.1612
20058TIP3    H181665   3.993   6.341   1.296  0.7232 -0.6462  0.3480
20058TIP3    H281666   3.994   6.461   1.389 -0.2486  0.1477 -0.6419
20059TIP3   OH281667   0.143   4.996  17.248 -0.1465 -0.1470 -0.1249
20059TIP3    H181668   0.153   5.049  17.327  0.6095 -0.3698 -0.0640
20059TIP3    H281669   0.182   4.911  17.271 -1.6232 -0.8477 -0.1160
20060TIP3   OH281670   4.889   2.605  11.312 -0.0270 -0.6632  0.3202
20060TIP3    H181671   4.915   2.593  11.220  0.3083 -1.9603  0.5672
20060TIP3    H281672   4.812   2.550  11.323  0.9661 -1.9191  1.2475
20061TIP3   OH281673   2.589   0.066  14.178  0.5873  0.1603 -0.0837
20061TIP3    H181674   2.544  -0.016  14.199  0.2121  0.4786  0.3569
20061TIP3    H281675   2.682   0.047  14.196  0.3506  0.2392  1.3088
20062TIP3   OH281676   5.910   4.990  15.301  0.6290 -0.3485 -0.5742
20062TIP3    H181677   5.925   4.990  15.206  3.5408 -0.8358 -0.2122
20062TIP3    H281678   5.995   5.010  15.339 -0.1730 -1.3395  1.9817
20063TIP3   OH281679   5.039   1.211  14.997 -0.0549 -0.3933  0.1024
20063TIP3    H181680   4.973   1.240  15.059  1.1720  2.1032  0.3948
20063TIP3    H281681   5.039   1.279  14.929  2.2976 -0.1826  0.2328
20064TIP3   OH281682   1.326   3.080  13.727 -0.5847 -0.0971 -0.9635
20064TIP3    H181683   1.274   3.135  13.668  1.8695  1.5183 -1.7942
20064TIP3    H281684   1.264   3.052  13.794 -2.3232  2.5322 -1.2887
20065TIP3   OH281685   0.507   4.938  12.026 -0.0887 -0.4459  0.2455
20065TIP3    H181686   0.426   4.983  12.001 -0.3360  0.8127  2.8834
20065TIP3    H281687   0.480   4.847  12.039 -0.7021 -0.3812 -0.4831
20066TIP3   OH281688   3.359   4.856   3.685 -0.1061  0.4482 -0.0149
20066TIP3    H181689   3.324   4.771   3.656  0.6312  0.2324 -0.2992
20066TIP3    H281690   3.283   4.903   3.718 -0.3500 -0.8093  1.3322
20067TIP3   OH281691   4.411   2.441  15.182  0.8340  0.4877  0.2148
20067TIP3    H181692   4.406   2.476  15.093 -0.3948 -0.6980 -0.2218
20067TIP3    H281693   4.326   2.462  15.221  1.1966  0.6041  0.9649
20068TIP3   OH281694   0.802   2.568  13.178 -0.3157 -0.1918  0.0802
20068TIP3    H181695   0.784   2.527  13.093  1.1964 -0.0116 -0.3575
20068TIP3    H281696   0.718   2.607  13.203 -1.2602 -1.7810 -0.4528
20069TIP3   OH281697   5.773   2.047   6.520  0.2574 -0.0365  0.3406
20069TIP3    H181698   5.827   2.125   6.505  0.8321 -0.5427 -0.2659
20069TIP3    H281699   5.824   1.994   6.580  0.2983 -0.3704  0.0141
20070TIP3   OH281700   1.805   1.119   3.638  0.3854 -0.5978 -0.2652
20070TIP3    H181701   1.823   1.085   3.726 -0.5365 -0.7854 -0.1368
20070TIP3    H281702   1.839   1.208   3.639 -1.0979 -0.0149  0.8370
20071TIP3   OH281703   4.262   0.932   4.444  0.1960  0.5009 -0.4642
20071TIP3    H181704   4.201   0.875   4.396 -0.1906  0.2515  0.3132
20071TIP3    H281705   4.247   1.019   4.407 -1.7565  0.7527  0.7348
20072TIP3   OH281706   5.322   6.095  17.082  0.0034  0.4173  0.4852
20072TIP3    H181707   5.370   6.053  17.011 -0.2868  0.2844  0.3639
20072TIP3    H281708   5.388   6.142  17.132  0.5028 -0.9742  1.2057
20073TIP3   OH281709   4.384   5.154  15.556  0.0847 -0.3655  0.4623
20073TIP3    H181710   4.367   5.125  15.645  0.9396 -0.0764  0.7355
20073TIP3    H281711   4.423   5.241  15.567 -0.5860  0.0300 -0.2352
20074TIP3   OH281712   2.121   4.582  14.539 -0.4095  0.4376 -0.5308
20074TIP3    H181713   2.047   4.633  14.506 -1.7090 -1.3658 -0.5575
20074TIP3    H281714   2.110   4.584  14.634 -1.1547 -0.7078 -0.5720
20075TIP3   OH281715   3.942   1.227  13.035 -0.5805  0.1587 -0.3524
20075TIP3    H181716   3.886   1.163  13.079 -1.2115 -0.2784 -1.7286
20075TIP3    H281717   3.950   1.299  13.098 -0.3396 -0.9928  0.9955
20076TIP3   OH281718   1.893   3.380  13.618 -0.2796 -0.1289 -0.0558
20076TIP3    H181719   1.939   3.425  13.689  1.2569 -0.9665 -0.4909
20076TIP3    H281720   1.810   3.352  13.657 -1.0410  2.5129  0.3910
20077TIP3   OH281721   4.727   0.127  15.344  0.3263 -0.5728  0.3814
20077TIP3    H181722   4.666   0.067  15.386 -2.0700  2.2570  1.2842
20077TIP3    H281723   4.798   0.138  15.407 -1.3050  0.6202  2.1420
20078TIP3   OH281724   6.599   5.139  15.942 -0.5684 -0.0785 -0.5051
20078TIP3    H181725   6.662   5.188  15.891 -0.1726  0.3806  0.3975
20078TIP3    H281726   6.639   5.054  15.956 -1.2106 -0.6517 -1.9833
20079TIP3   OH281727   4.021   5.549   1.693 -0.6447 -0.9766 -0.0293
20079TIP3    H181728   3.987   5.633   1.726  0.1610  0.4988 -2.6910
20079TIP3    H281729   4.116   5.563   1.686 -0.4241 -2.3260 -0.0041
20080TIP3   OH281730   2.276   1.801   3.385 -0.0216  0.3759 -0.2621
20080TIP3    H181731   2.296   1.858   3.310 -1.8324  1.5055  0.0531
20080TIP3    H281732   2.236   1.724   3.345  1.6568 -0.3481 -0.6291
20081TIP3   OH281733   2.689   0.537   5.662 -0.8872  0.0504  0.4714
20081TIP3    H181734   2.655   0.448   5.661 -0.4515 -0.1507 -1.6297
20081TIP3    H281735   2.774   0.530   5.704 -0.2197 -0.8383 -0.9463
20082TIP3   OH281736   0.989   5.367  11.230  0.3560 -0.0282  0.0588
20082TIP3    H181737   1.033   5.300  11.281 -1.0506 -0.1841  1.1388
20082TIP3    H281738   0.930   5.318  11.172 -0.3634  0.2365  0.5501
20083TIP3   OH281739   2.443   2.118   2.645 -0.3839 -0.1429 -0.0772
20083TIP3    H181740   2.478   2.030   2.633 -0.4595 -0.2521  0.4674
20083TIP3    H281741   2.465   2.140   2.735  0.4002  0.7455 -0.4630
20084TIP3   OH281742   3.191   3.730   1.622 -0.8354 -0.6652  0.2818
20084TIP3    H181743   3.176   3.741   1.716  0.9627  1.6280  0.3960
20084TIP3    H281744   3.253   3.658   1.615 -0.7873 -0.6818  0.8605
20085TIP3   OH281745   1.030   3.183   5.263 -0.2750 -0.4607 -0.1088
20085TIP3    H181746   1.059   3.259   5.213 -0.1984 -0.2930  0.1914
20085TIP3    H281747   0.958   3.146   5.211 -0.7711  0.2128  0.0787
20086TIP3   OH281748   3.167   0.851  14.077  0.2851  0.4385  0.0045
20086TIP3    H181749   3.258   0.823  14.085 -0.1001 -0.7095  0.6320
20086TIP3    H281750   3.117   0.769  14.081 -0.8805  1.1948  1.6448
20087TIP3   OH281751   4.568   5.529  15.855  0.3734  0.2185 -0.1767
20087TIP3    H181752   4.480   5.542  15.890  0.1866  0.3257 -0.6733
20087TIP3    H281753   4.601   5.451  15.900 -0.1028 -0.0139 -0.2258
20088TIP3   OH281754   6.149   0.667   2.761 -0.4135 -0.2423 -0.0049
20088TIP3    H181755   6.145   0.704   2.849  1.7618 -2.4086  1.1343
20088TIP3    H281756   6.082   0.599   2.760  0.3029 -0.9666  0.4004
20089TIP3   OH281757   3.650   4.217   2.626  0.8910 -0.3086 -0.2906
20089TIP3    H181758   3.660   4.305   2.589  1.8241  0.0238  0.6931
20089TIP3    H281759   3.687   4.158   2.560  0.0321 -0.0049 -1.0667
20090TIP3   OH281760   4.066   5.478   0.947  0.3448 -0.1992  0.2860
20090TIP3    H181761   4.039   5.554   0.999  2.4744 -0.2405  1.5510
20090TIP3    H281762   4.034   5.403   0.997 -0.8099 -0.1936 -0.4070
20091TIP3   OH281763   4.062   6.033  11.272 -0.3362  0.2316  0.2240
20091TIP3    H181764   4.074   6.091  11.197  0.6436 -0.7976 -0.4567
20091TIP3    H281765   4.111   5.954  11.249  0.7040  0.2093  2.3168
20092TIP3   OH281766   0.053   3.667  16.573 -0.2324  0.3252 -0.3785
20092TIP3    H181767   0.139   3.697  16.543  0.0304 -0.3856 -0.3670
20092TIP3    H281768  -0.009   3.708  16.512  0.2286 -0.4056 -1.3825
20093TIP3   OH281769   5.989   4.953   5.723 -0.4018  0.0135 -0.0233
20093TIP3    H181770   5.900   4.932   5.696 -0.1440 -1.3895  0.1019
20093TIP3    H281771   6.044   4.900   5.665  0.2222 -1.5122  1.8414
20094TIP3   OH281772   4.367   3.855   1.327 -0.0633  0.0180 -0.3300
20094TIP3    H181773   4.311   3.811   1.262  2.3072 -3.0427 -0.5720
20094TIP3    H281774   4.438   3.893   1.275  1.2786 -1.5121  0.2971
20095TIP3   OH281775   0.831   5.320  14.475  0.0905 -0.5312 -0.3879
20095TIP3    H181776   0.835   5.414  14.491  1.7335 -0.5474 -0.4641
20095TIP3    H281777   0.884   5.307  14.396 -1.3891 -1.3526 -1.2841
20096TIP3   OH281778   4.938   0.963   4.492  0.1191 -0.1095  0.3615
20096TIP3    H181779   4.911   1.052   4.515 -1.0786 -0.1401 -0.8063
20096TIP3    H281780   4.952   0.920   4.576 -0.6788  0.7756  0.9645
20097TIP3   OH281781   0.191   0.658  10.987  0.4458  0.4871 -0.0907
20097TIP3    H181782   0.190   0.583  10.928  1.5789  0.0699  0.3927
20097TIP3    H281783   0.194   0.734  10.929 -1.6509  0.2350 -0.6060
20098TIP3   OH281784   0.916   2.589  14.065 -0.0392 -0.3360 -0.1200
20098TIP3    H181785   1.006   2.576  14.094  0.6316  3.0037 -0.2212
20098TIP3    H281786   0.922   2.601  13.970 -0.9074 -1.9191 -0.4109
20099TIP3   OH281787   2.769   3.981  12.563  0.0553 -0.3553 -0.6330
20099TIP3    H181788   2.754   4.073  12.587  0.3141  0.1506 -2.3231
20099TIP3    H281789   2.685   3.952  12.528 -0.0615 -0.8289  0.0105
20100TIP3   OH281790   4.156   6.283  11.970  0.1144  0.4748  0.2277
20100TIP3    H181791   4.226   6.347  11.978  0.1356  0.6702 -1.2455
20100TIP3    H281792   4.093   6.307  12.038  0.8603  1.0856  0.7133
20101TIP3   OH281793   2.870   1.410   4.398 -0.2628 -0.0280  0.3891
20101TIP3    H181794   2.960   1.388   4.378 -0.7040 -0.9937 -0.6509
20101TIP3    H281795   2.820   1.380   4.322 -1.2969  1.8205  0.2690
20102TIP3   OH281796   4.599   0.225  13.913  0.4611 -0.5190  0.5159
20102TIP3    H181797   4.690   0.242  13.888 -0.0870  1.1901 -0.5097
20102TIP3    H281798   4.549   0.294  13.869 -1.0587  0.3160  3.3055
20103TIP3   OH281799   5.493   0.183   1.064 -0.2401  0.3419  0.0134
20103TIP3    H181800   5.564   0.205   1.003 -0.0967 -0.0601  0.0369
20103TIP3    H281801   5.422   0.151   1.008  0.2113 -0.8833  0.1176
20104TIP3   OH281802   0.183   0.198   1.657  0.5547  0.5105 -0.6138
20104TIP3    H181803   0.165   0.282   1.699  0.9122 -0.3987  1.5196
20104TIP3    H281804   0.101   0.149   1.666  0.8398  0.0718 -0.3407
20105TIP3   OH281805   2.662   1.128  17.110  0.1030 -0.4623  0.5135
20105TIP3    H181806   2.698   1.169  17.031 -1.3008 -1.5335 -0.7510
20105TIP3    H281807   2.719   1.053  17.127 -0.0167 -0.6681  0.0404
20106TIP3   OH281808   2.141   5.282   3.590 -0.0557 -0.4544 -0.1226
20106TIP3    H181809   2.057   5.254   3.553  0.7493 -0.1648 -2.2905
20106TIP3    H281810   2.162   5.214   3.654 -1.7595 -0.7004  0.2432
20107TIP3   OH281811   4.084   5.638  13.051  0.5040 -0.3113 -0.3050
20107TIP3    H181812   4.144   5.618  12.979  1.1285 -1.3759  0.4793
20107TIP3    H281813   4.019   5.696  13.013  1.3264 -0.1382 -1.4996
20108TIP3   OH281814   6.597   4.543   3.087 -0.2853  0.2740 -0.0441
20108TIP3    H181815   6.549   4.570   3.165 -1.3164 -0.6940 -0.3248
20108TIP3    H281816   6.550   4.584   3.014 -0.0037  0.2336 -0.2513
20109TIP3   OH281817   2.588   4.058  17.110  0.0012  0.6018  0.0459
20109TIP3    H181818   2.559   3.967  17.116  0.7904  0.2459 -1.0490
20109TIP3    H281819   2.609   4.083  17.200 -0.4182 -0.2315  0.3880
20110TIP3   OH281820   3.173   3.479   5.785 -0.1256 -0.0164 -0.2038
20110TIP3    H181821   3.093   3.446   5.826 -0.2168  1.1144  0.5728
20110TIP3    H281822   3.145   3.513   5.700 -0.0772 -1.6061 -0.8884
20111TIP3   OH281823   0.054   0.071   0.819 -0.7272  0.1796  0.9142
20111TIP3    H181824  -0.034   0.091   0.788 -1.0252 -0.4444  1.3309
20111TIP3    H281825   0.040   0.022   0.900 -0.0694 -2.2051 -0.3083
20112TIP3   OH281826   5.823   3.936   5.076  0.0819  0.0467  0.4096
20112TIP3    H181827   5.884   3.952   5.148  1.1554 -1.2639 -0.1439
20112TIP3    H281828   5.847   4.000   5.010 -0.4577  0.8136  0.9484
20113TIP3   OH281829   4.972   3.054   2.537  0.1237 -0.8713  0.2966
20113TIP3    H181830   5.010   3.100   2.613 -0.0724  1.0212 -0.6770
20113TIP3    H281831   4.879   3.044   2.559 -0.1711  0.6800 -0.0900
20114TIP3   OH281832   2.154   6.611  14.947 -0.5028  0.1627  0.5905
20114TIP3    H181833   2.139   6.657  14.864  0.3257  1.3509  1.0661
20114TIP3    H281834   2.234   6.651  14.982  1.4689 -3.0118  0.1070
20115TIP3   OH281835   2.515   0.170  11.412  0.4283  0.5708 -0.6427
20115TIP3    H181836   2.518   0.135  11.323 -1.2825 -2.4046  0.3211
20115TIP3    H281837   2.592   0.133  11.455  0.7971  1.3207 -0.6442
20116TIP3   OH281838   6.106   4.897   2.319 -0.3431  0.7227 -0.2292
20116TIP3    H181839   6.087   4.979   2.274 -0.9580  1.6204  1.5733
20116TIP3    H281840   6.089   4.916   2.412  0.5185 -1.1429  0.3516
20117TIP3   OH281841   0.533   0.835   5.034 -0.0573  0.6232 -0.8536
20117TIP3    H181842   0.513   0.822   5.127  0.6406 -0.1647 -0.8008
20117TIP3    H281843   0.525   0.929   5.021  0.9415  0.8911  0.2842
20118TIP3   OH281844   5.405   1.974   2.474  0.6286  0.4124  0.1886
20118TIP3    H181845   5.330   1.932   2.432  1.9480 -0.4050 -1.4872
20118TIP3    H281846   5.387   1.968   2.568 -1.2284 -0.0346 -0.1590
20119TIP3   OH281847   0.693   4.752  12.761 -0.3327  0.3419 -0.3692
20119TIP3    H181848   0.703   4.824  12.822  0.1974  2.6061 -2.9359
20119TIP3    H281849   0.603   4.757  12.731 -0.5144 -0.5737 -0.0227
20120TIP3   OH281850   5.242   0.016   5.358 -0.2538 -0.4222  0.6709
20120TIP3    H181851   5.242   0.070   5.437  0.1529 -0.0557  0.4236
20120TIP3    H281852   5.205  -0.067   5.386  0.4008 -0.4843  1.3762
20121TIP3   OH281853   3.670   5.275   0.223 -0.3596  0.2875 -0.8357
20121TIP3    H181854   3.707   5.199   0.177 -0.1283 -0.7184  0.9086
20121TIP3    H281855   3.603   5.309   0.163 -1.6176 -2.2873 -1.0350
20122TIP3   OH281856   0.622   2.792   6.230 -0.5364 -0.9930 -0.9721
20122TIP3    H181857   0.589   2.735   6.300 -1.1048  0.0466 -0.3626
20122TIP3    H281858   0.605   2.881   6.262  0.3420 -0.4772 -1.8915
20123TIP3   OH281859   0.591   2.036  16.992  0.3676  0.2727  0.1418
20123TIP3    H181860   0.673   2.011  17.034  0.2393  1.1265  0.9425
20123TIP3    H281861   0.551   2.098  17.053  0.0261  1.3303 -1.1259
20124TIP3   OH281862   0.492   4.861   1.356  0.4746  0.0811  0.2319
20124TIP3    H181863   0.467   4.793   1.419  1.5004 -0.2101  0.3521
20124TIP3    H281864   0.509   4.938   1.410  0.4756  0.0867  0.2241
20125TIP3   OH281865   6.683   0.912   5.811  0.2331  0.3309 -0.0986
20125TIP3    H181866   6.717   0.877   5.893  1.9651  1.4346 -0.2887
20125TIP3    H281867   6.593   0.938   5.832  0.6255  0.5563  1.4529
20126TIP3   OH281868   4.580   5.774  11.003  0.0716 -0.9053 -0.1952
20126TIP3    H181869   4.659   5.732  10.971 -0.0207 -0.4776 -1.0046
20126TIP3    H281870   4.518   5.702  11.016  1.0691 -1.4584  2.0284
20127TIP3   OH281871   0.456   5.093   5.280  1.1596 -0.0191 -0.0066
20127TIP3    H181872   0.512   5.116   5.206  0.1646  0.7168 -0.5420
20127TIP3    H281873   0.507   5.028   5.329  2.0012 -0.2053 -1.0970
20128TIP3   OH281874   4.479   6.151   1.850 -0.5363 -0.1228  0.8625
20128TIP3    H181875   4.388   6.123   1.861 -0.7224 -0.7016 -1.6083
20128TIP3    H281876   4.506   6.112   1.767  0.6402  3.4484 -0.6069
20129TIP3   OH281877   1.623   6.751  17.250 -0.0143  0.2876 -0.0623
20129TIP3    H181878   1.683   6.820  17.275  0.6203 -0.7325  1.3201
20129TIP3    H281879   1.545   6.766  17.303  0.4572 -0.5397  0.8910
20130TIP3   OH281880   1.159   6.723   3.326 -0.0075  0.4143 -0.3773
20130TIP3    H181881   1.246   6.763   3.317  0.1728 -0.4221 -3.2195
20130TIP3    H281882   1.177   6.634   3.357  0.2616 -0.0113 -1.6917
20131TIP3   OH281883   2.958   0.325  12.870 -0.2071  0.5438  0.7641
20131TIP3    H181884   2.951   0.357  12.960 -1.3395  0.6950  0.6430
20131TIP3    H281885   2.881   0.361  12.826 -0.3485 -0.5712  0.0582
20132TIP3   OH281886   1.399   6.072   5.673  0.1302  0.0152 -0.0750
20132TIP3    H181887   1.353   5.988   5.679  0.5109 -0.2096 -0.3309
20132TIP3    H281888   1.402   6.091   5.579  1.3790 -0.4249 -0.1394
20133TIP3   OH281889   2.057   2.560  16.148  0.0496 -0.5807 -0.0400
20133TIP3    H181890   2.103   2.507  16.214  1.4580  1.6077  0.8334
20133TIP3    H281891   1.973   2.580  16.188  1.1918  1.3888  1.5346
20134TIP3   OH281892   1.323   3.898  15.380  0.3826  0.0067  0.5135
20134TIP3    H181893   1.407   3.886  15.425  1.1387  1.5827 -0.3637
20134TIP3    H281894   1.340   3.868  15.291 -0.0277  0.2012  0.3700
20135TIP3   OH281895   3.505   0.406  17.149  0.1967  0.2907 -0.6969
20135TIP3    H181896   3.436   0.379  17.209  1.2898  0.3266  0.6221
20135TIP3    H281897   3.548   0.324  17.124  0.7740  0.4035 -0.1119
20136TIP3   OH281898   1.892   2.262  11.907 -0.2367 -0.1115  0.7319
20136TIP3    H181899   1.869   2.243  11.998  2.7038  1.6752  1.9818
20136TIP3    H281900   1.982   2.230  11.898 -0.4410 -0.2199 -1.5932
20137TIP3   OH281901   3.577   2.374  15.445  0.4627 -0.1568 -0.2780
20137TIP3    H181902   3.606   2.463  15.422  0.3557  0.2684  1.1363
20137TIP3    H281903   3.482   2.377  15.438  0.0237  1.1017  3.5493
20138TIP3   OH281904   0.520   0.783  11.294  0.0219  0.2485  0.2876
20138TIP3    H181905   0.430   0.763  11.266 -0.9835  0.7416  2.8380
20138TIP3    H281906   0.565   0.810  11.214 -1.3518 -2.3502 -1.5317
20139TIP3   OH281907   5.564   2.697  15.729  0.2554  0.3509 -0.2127
20139TIP3    H181908   5.658   2.679  15.723  0.1680 -0.1761 -0.0395
20139TIP3    H281909   5.537   2.711  15.638  0.3861 -0.0880 -0.3205
20140TIP3   OH281910   2.011   5.367  13.594 -0.1278 -0.1499 -0.7023
20140TIP3    H181911   2.046   5.279  13.582 -1.3232 -0.7275 -0.0524
20140TIP3    H281912   1.920   5.361  13.564 -0.1022  0.9660 -1.0411
20141TIP3   OH281913   6.803   5.670   4.436  0.1089  0.2771  0.7289
20141TIP3    H181914   6.874   5.732   4.455  3.1337 -2.7565  0.2222
20141TIP3    H281915   6.801   5.663   4.341 -1.3513  0.7645  0.7005
20142TIP3   OH281916   4.119   6.146  12.757 -0.5334  0.0595 -0.3275
20142TIP3    H181917   4.139   6.114  12.846 -0.8226 -0.2684 -0.3788
20142TIP3    H281918   4.160   6.081  12.699  0.1329  0.5708 -0.4374
20143TIP3   OH281919   1.070   5.028   1.350  0.3705  0.4593  0.5198
20143TIP3    H181920   1.102   4.981   1.273  0.3983  0.2092  0.6798
20143TIP3    H281921   1.113   5.113   1.347 -1.5488  1.4681 -1.1385
20144TIP3   OH281922   1.159   2.070  16.776 -0.1331  0.2648 -0.5830
20144TIP3    H181923   1.070   2.046  16.750  0.4466 -1.7418 -0.8960
20144TIP3    H281924   1.210   2.063  16.695  0.6626 -0.5377 -0.0269
20145TIP3   OH281925   2.270   3.294   2.576 -0.0058  0.4077 -0.0937
20145TIP3    H181926   2.181   3.321   2.600  0.1147  0.2805  0.5233
20145TIP3    H281927   2.302   3.364   2.520 -0.3811  0.6112 -0.0589
20146TIP3   OH281928   3.775   2.164   2.616 -0.3769  0.5345 -0.2839
20146TIP3    H181929   3.704   2.201   2.670 -0.7986  0.2076 -0.6063
20146TIP3    H281930   3.843   2.142   2.679 -0.4487  1.0997  0.0058
20147TIP3   OH281931   3.352   5.189  11.659 -0.1642 -0.1356  0.1242
20147TIP3    H181932   3.416   5.260  11.659 -0.5898  0.2758 -1.7090
20147TIP3    H281933   3.401   5.114  11.694  0.5810  0.7663  1.0879
20148TIP3   OH281934   1.997   3.179   3.347  0.0129  0.2832  0.2192
20148TIP3    H181935   2.007   3.246   3.280 -0.3900  0.6478  0.5193
20148TIP3    H281936   2.048   3.211   3.422 -0.5333  0.4749  0.5182
20149TIP3   OH281937   5.896   1.274   4.387  0.4199 -0.4853 -0.1348
20149TIP3    H181938   5.890   1.321   4.304 -1.0137  0.0825  0.2509
20149TIP3    H281939   5.808   1.237   4.399  1.2913 -2.6907 -0.0738
20150TIP3   OH281940   5.012   5.915   3.989 -0.1712 -0.1266  0.3308
20150TIP3    H181941   5.017   5.820   3.999  0.8121 -0.0399  0.6949
20150TIP3    H281942   5.094   5.948   4.026  0.2033  0.7573 -1.2099
20151TIP3   OH281943   3.274   5.837   4.482  0.2602  0.4372 -0.4182
20151TIP3    H181944   3.325   5.900   4.430  2.4311  0.7147  1.8835
20151TIP3    H281945   3.224   5.891   4.542  0.7797  0.0375  0.3835
20152TIP3   OH281946   3.880   0.070   3.597 -0.3032  0.3400 -0.5968
20152TIP3    H181947   3.852   0.160   3.580  0.2529  0.5831 -0.2601
20152TIP3    H281948   3.894   0.033   3.510 -3.3806 -0.3814 -0.8710
20153TIP3   OH281949   4.765   3.367   0.615  0.0148 -0.5406  0.0929
20153TIP3    H181950   4.684   3.319   0.634 -0.4402 -0.4372 -1.4198
20153TIP3    H281951   4.763   3.442   0.675 -0.7405 -0.8361  0.4459
20154TIP3   OH281952   0.301   6.370   5.190 -0.1454 -0.0781  0.0049
20154TIP3    H181953   0.383   6.326   5.212  0.4401 -0.1186 -2.0764
20154TIP3    H281954   0.294   6.362   5.095 -2.9470 -0.7008  0.1864
20155TIP3   OH281955   1.620   5.953   2.435 -0.8924  0.1703 -0.0078
20155TIP3    H181956   1.612   5.857   2.437 -1.2275  0.2072  1.2133
20155TIP3    H281957   1.615   5.979   2.527  1.0072  1.2191 -0.1548
20156TIP3   OH281958   6.784   5.369   2.074 -0.6160 -0.4612 -0.0316
20156TIP3    H181959   6.835   5.447   2.054  1.0635 -1.5783 -0.3207
20156TIP3    H281960   6.753   5.382   2.163  2.6745 -0.9408  1.3177
20157TIP3   OH281961   0.308   0.178   0.238  0.3147 -0.0633 -0.0706
20157TIP3    H181962   0.277   0.197   0.327 -0.2779 -1.1921 -0.0207
20157TIP3    H281963   0.374   0.246   0.221  1.6499 -0.7755  1.8728
20158TIP3   OH281964   5.424   0.377   3.030  0.0917  0.6119 -0.9128
20158TIP3    H181965   5.473   0.458   3.014  1.1433  0.4861  1.2773
20158TIP3    H281966   5.404   0.380   3.124 -1.6901 -0.7106 -1.2001
20159TIP3   OH281967   5.568   2.456  15.535 -0.4681 -0.2825 -1.1553
20159TIP3    H181968   5.569   2.496  15.622 -1.1684 -0.6089 -0.9961
20159TIP3    H281969   5.571   2.530  15.474 -2.0663  0.0527 -0.8661
20160TIP3   OH281970   5.424   4.844  15.547  0.0413  0.0106  0.0325
20160TIP3    H181971   5.441   4.906  15.477  0.5271 -0.0031  0.1318
20160TIP3    H281972   5.498   4.783  15.543 -1.0698 -1.3405 -0.9017
20161TIP3   OH281973   4.059   4.801   2.882  0.3185  0.0762 -0.5819
20161TIP3    H181974   3.975   4.847   2.873  0.4616  0.3722 -0.4199
20161TIP3    H281975   4.036   4.717   2.920  0.0611  0.0400 -0.8116
20162TIP3   OH281976   3.819   2.172   5.567 -0.3151 -0.1477  0.3496
20162TIP3    H181977   3.826   2.246   5.506 -1.1045 -0.6480 -0.3667
20162TIP3    H281978   3.810   2.213   5.653 -2.5454  0.6750 -0.2089
20163TIP3   OH281979   5.587   6.771  12.204 -0.6878  0.1783  0.0049
20163TIP3    H181980   5.553   6.695  12.250  0.1317 -0.2412 -0.0664
20163TIP3    H281981   5.511   6.808  12.159 -0.8723 -1.3062 -0.9576
20164TIP3   OH281982   1.142   2.295   4.128  0.0353  0.2601  0.2034
20164TIP3    H181983   1.109   2.234   4.194  1.0801 -0.7955 -0.2134
20164TIP3    H281984   1.118   2.381   4.161 -1.9753 -0.3810  0.5328
20165TIP3   OH281985   3.099   0.596  12.697  0.7650  0.2074 -0.3039
20165TIP3    H181986   3.126   0.593  12.605  0.6896  0.1711 -0.3248
20165TIP3    H281987   3.078   0.688  12.713  2.1696  0.4851  0.0747
20166TIP3   OH281988   2.048   6.714  12.554  0.1407  0.4603  0.1735
20166TIP3    H181989   2.033   6.766  12.634 -1.5443 -1.3133  1.0978
20166TIP3    H281990   1.962   6.707  12.513  0.2015 -1.8479  0.2859
20167TIP3   OH281991   6.544   1.304   1.878  0.3179 -0.0138  0.1703
20167TIP3    H181992   6.636   1.283   1.895  0.3977  0.2067  0.0094
20167TIP3    H281993   6.497   1.226   1.907  0.5888 -0.3024 -0.1363
20168TIP3   OH281994   5.486   5.267   3.003  0.0248 -0.1815  0.0114
20168TIP3    H181995   5.527   5.209   3.066  1.7404  0.4359 -0.4889
20168TIP3    H281996   5.397   5.232   2.992  0.8842 -2.4999 -0.0387
20169TIP3   OH281997   3.280   6.473  12.986  0.9917 -0.5591 -0.1671
20169TIP3    H181998   3.242   6.449  12.901  0.2070 -0.0282  0.0175
20169TIP3    H281999   3.227   6.425  13.050 -0.5488  1.4652  0.2037
20170TIP3   OH282000   2.513   5.083  11.071  0.4097  0.2156  0.8349
20170TIP3    H182001   2.545   5.000  11.106  1.0922  0.1678  0.1091
20170TIP3    H282002   2.584   5.116  11.017 -0.6924  0.1814 -0.6958
20171TIP3   OH282003   0.332   3.685  11.536 -0.3953  0.3224 -0.2099
20171TIP3    H182004   0.374   3.695  11.622  0.9695 -0.0335 -0.8088
20171TIP3    H282005   0.317   3.775  11.506  0.3399  0.4661 -0.1670
20172TIP3   OH282006   5.804   5.171   4.398 -0.6199 -0.7112  0.2110
20172TIP3    H182007   5.799   5.249   4.343  0.0859 -0.9537 -0.2068
20172TIP3    H282008   5.717   5.133   4.392 -0.5733 -0.7093 -0.7127
20173TIP3   OH282009   5.314   1.168   0.832  0.1771  0.3099  0.3086
20173TIP3    H182010   5.351   1.213   0.756 -0.3958 -0.3740 -0.3986
20173TIP3    H282011   5.389   1.146   0.887  0.6520  0.3193 -0.3329
20174TIP3   OH282012   2.479   5.158   3.681 -0.0660  0.3338 -0.1721
20174TIP3    H182013   2.451   5.206   3.759 -0.1464  1.1997 -0.7175
20174TIP3    H282014   2.469   5.066   3.705  1.1081  0.5530  1.2630
20175TIP3   OH282015   1.499   4.423   5.151 -0.4345  0.6164  0.4929
20175TIP3    H182016   1.457   4.504   5.183  3.3981  1.9736  2.7150
20175TIP3    H282017   1.571   4.454   5.096 -0.3477 -1.4514 -0.6403
20176TIP3   OH282018   6.805   1.269  15.884  0.1022 -0.0717 -0.3553
20176TIP3    H182019   6.827   1.199  15.824 -1.9717  0.1333 -1.4482
20176TIP3    H282020   6.873   1.266  15.951  0.3399 -2.7823 -0.6293
20177TIP3   OH282021   5.250   0.876  16.094  0.0007 -0.0755  0.4966
20177TIP3    H182022   5.199   0.945  16.052 -2.3125 -0.8988  1.7824
20177TIP3    H282023   5.254   0.806  16.028 -0.6285 -0.0219  0.3907
20178TIP3   OH282024   4.265   0.395   4.130 -0.6828  0.0874 -0.3036
20178TIP3    H182025   4.317   0.342   4.070  0.4500 -0.5162  1.1342
20178TIP3    H282026   4.176   0.360   4.123 -0.0763 -1.6409  0.1630
20179TIP3   OH282027   6.439   1.434   4.509 -0.1027 -0.0310 -0.3924
20179TIP3    H182028   6.503   1.363   4.511  1.0637  0.9952  0.2314
20179TIP3    H282029   6.390   1.425   4.591  1.2355  0.8999  0.5488
20180TIP3   OH282030   3.362   5.669   1.932  0.5306  0.0284  0.5377
20180TIP3    H182031   3.388   5.588   1.888 -1.4730 -0.6028  0.4142
20180TIP3    H282032   3.338   5.641   2.021 -0.3466  0.4138  0.4369
20181TIP3   OH282033   0.241   5.124   5.071  0.6667 -0.5520  0.2749
20181TIP3    H182034   0.243   5.090   4.981 -1.4463  2.3554 -1.0317
20181TIP3    H282035   0.333   5.123   5.099  1.3436 -1.8563 -1.7623
20182TIP3   OH282036   1.539   5.222   3.851 -0.5618 -0.1828  0.8860
20182TIP3    H182037   1.509   5.303   3.810 -1.6283 -1.1538 -0.3719
20182TIP3    H282038   1.634   5.226   3.845 -0.6473 -0.0684 -1.4155
20183TIP3   OH282039   5.873   4.628   2.516 -0.1685 -0.3377 -1.0874
20183TIP3    H182040   5.848   4.556   2.459 -1.5701 -0.2701 -0.5918
20183TIP3    H282041   5.846   4.707   2.470 -0.1390 -0.2211 -0.9080
20184TIP3   OH282042   1.798   1.625   4.132  0.3659 -0.0864  0.3838
20184TIP3    H182043   1.762   1.584   4.211 -2.6035  0.1181 -0.7295
20184TIP3    H282044   1.752   1.709   4.125  0.8718  0.0895 -1.3259
20185TIP3   OH282045   1.415   3.150   0.791 -0.4803 -0.6161 -0.4666
20185TIP3    H182046   1.509   3.132   0.792 -0.6545 -1.9387  2.2703
20185TIP3    H282047   1.404   3.222   0.852 -1.2757 -0.6013 -0.6177
20186TIP3   OH282048   2.117   1.486  17.006 -0.4622 -0.1936 -0.0902
20186TIP3    H182049   2.172   1.459  17.079  0.4354 -0.8835 -1.0003
20186TIP3    H282050   2.143   1.429  16.933 -1.8694 -0.0406 -0.7477
20187TIP3   OH282051   4.246   2.217  10.945  0.3917 -0.4392 -0.8664
20187TIP3    H182052   4.337   2.214  10.975  0.2814 -1.0983 -0.5882
20187TIP3    H282053   4.240   2.300  10.897  0.5147  0.8484  1.1847
20188TIP3   OH282054   5.310   5.491  14.220  0.4358  0.1177  0.4110
20188TIP3    H182055   5.261   5.409  14.209  1.6908 -0.8973  1.9960
20188TIP3    H282056   5.242   5.558  14.228 -0.6181 -0.7431 -0.8571
20189TIP3   OH282057   2.774   2.881  15.404  0.5067 -0.1299  0.2212
20189TIP3    H182058   2.870   2.880  15.394  0.4211  0.0681 -0.7266
20189TIP3    H282059   2.743   2.932  15.330 -0.3180  0.2101  0.7897
20190TIP3   OH282060   3.887   5.241   5.147 -0.5211 -0.6337  0.0560
20190TIP3    H182061   3.838   5.163   5.175 -0.1548 -0.3305  1.6388
20190TIP3    H282062   3.889   5.297   5.225  1.3916 -0.1539 -0.2972
20191TIP3   OH282063   3.177   5.889   4.157 -0.3700  0.1569  1.3088
20191TIP3    H182064   3.257   5.887   4.105 -1.7131 -0.0879 -0.8826
20191TIP3    H282065   3.204   5.923   4.242  1.9706  0.4653  0.5068
20192TIP3   OH282066   0.569   1.130  16.990 -0.0088 -0.8721  0.1246
20192TIP3    H182067   0.500   1.100  17.049  0.0753 -0.7572  0.2849
20192TIP3    H282068   0.615   1.050  16.963  0.3403 -0.8747  0.7063
20193TIP3   OH282069   5.486   0.540   4.861  0.1545  0.2161 -0.5103
20193TIP3    H182070   5.581   0.544   4.854  0.0920  0.1635 -1.7240
20193TIP3    H282071   5.467   0.554   4.954  1.5026 -2.9985  0.3849
20194TIP3   OH282072   1.938   6.010  14.911  0.1795 -0.2050 -0.3652
20194TIP3    H182073   2.017   6.005  14.965  1.2594 -0.2394 -1.8844
20194TIP3    H282074   1.881   6.070  14.959  0.2282 -1.7581  1.8132
20195TIP3   OH282075   1.385   1.796   1.220 -0.3724  0.7229  0.3102
20195TIP3    H182076   1.475   1.779   1.190 -0.6996  0.2758 -0.4496
20195TIP3    H282077   1.376   1.891   1.213 -0.4823  0.6337 -1.2296
20196TIP3   OH282078   6.782   3.977   6.220 -0.0502 -0.3465  0.0534
20196TIP3    H182079   6.689   3.963   6.202 -0.1514  1.2641 -0.9646
20196TIP3    H282080   6.786   3.999   6.313 -0.7620  0.0368 -0.0013
20197TIP3   OH282081   2.546   5.559   3.527 -0.7135  0.6104 -0.6190
20197TIP3    H182082   2.556   5.540   3.620 -0.3475  1.7161 -0.4148
20197TIP3    H282083   2.500   5.484   3.492 -1.2705  0.3849  0.5470
20198TIP3   OH282084   4.063   3.355   0.846 -0.5212  0.3639  0.0308
20198TIP3    H182085   4.093   3.414   0.915  0.4735  1.3617 -1.1967
20198TIP3    H282086   4.001   3.406   0.795  0.6585  0.5427 -1.2922
20199TIP3   OH282087   2.845   4.926  13.117  0.1853  0.8402 -0.3554
20199TIP3    H182088   2.792   4.877  13.180  0.2736  1.1834 -0.0069
20199TIP3    H282089   2.843   5.016  13.150 -0.1776  1.1174 -1.1154
20200TIP3   OH282090   0.021   6.175  14.529 -0.0224 -0.4414 -0.9211
20200TIP3    H182091   0.023   6.266  14.560 -0.1323 -0.2395 -1.4900
20200TIP3    H282092   0.020   6.122  14.609 -2.3101  0.0936 -0.5244
20201TIP3   OH282093   1.176   0.319  12.372 -0.1104 -0.4209  0.1740
20201TIP3    H182094   1.121   0.339  12.297  0.7285 -0.1318 -0.3807
20201TIP3    H282095   1.263   0.304  12.335  0.1090 -1.2642  0.9881
20202TIP3   OH282096   3.763   3.370  13.209  0.3489 -0.2711  0.0214
20202TIP3    H182097   3.780   3.416  13.127  0.4820 -0.7879 -0.2413
20202TIP3    H282098   3.824   3.410  13.272 -0.2206  0.5974  0.0537
20203TIP3   OH282099   5.820   3.008   5.020  0.4265  0.4441 -0.2046
20203TIP3    H182100   5.727   3.023   5.035  0.3307 -1.2224  1.0584
20203TIP3    H282101   5.864   3.074   5.075  0.0020  0.4100  0.1788
20204TIP3   OH282102   0.085   4.023  14.871  0.1718 -0.1229  0.5542
20204TIP3    H182103   0.011   4.057  14.921  1.1087  0.1062  1.8133
20204TIP3    H282104   0.101   4.090  14.804 -1.0457 -0.4041 -0.0527
20205TIP3   OH282105   6.383   4.793   2.311  0.0707  0.9491  0.1080
20205TIP3    H182106   6.297   4.835   2.309 -0.0892  0.6623  0.9484
20205TIP3    H282107   6.443   4.863   2.285 -0.6281  0.5304 -3.0856
20206TIP3   OH282108   4.919   1.854   3.665  0.5746  0.4300  0.0820
20206TIP3    H182109   4.983   1.834   3.597  1.7171  0.0236  1.2204
20206TIP3    H282110   4.941   1.793   3.736 -0.8460  0.5465  0.6537
20207TIP3   OH282111   2.426   6.747   0.592  0.6274 -0.3133  0.1395
20207TIP3    H182112   2.449   6.655   0.608  0.6496 -0.3364 -0.0261
20207TIP3    H282113   2.475   6.796   0.659 -1.0151 -0.5841  1.6288
20208TIP3   OH282114   6.143   2.011   4.397  0.2963  0.1965  0.1172
20208TIP3    H182115   6.145   2.084   4.336 -0.7398 -0.4786 -0.7594
20208TIP3    H282116   6.235   1.988   4.410  0.5163 -0.6345 -2.4362
20209TIP3   OH282117   1.081   2.806  11.805  0.0640 -0.2015 -0.7838
20209TIP3    H182118   0.987   2.825  11.805 -0.1670 -1.1635  1.1615
20209TIP3    H282119   1.088   2.720  11.764  0.1157 -0.1431 -0.9009
20210TIP3   OH282120   5.985   3.458  13.625  0.2399 -0.1053 -0.1719
20210TIP3    H182121   6.038   3.411  13.561 -0.7175  0.3500 -1.3305
20210TIP3    H282122   6.014   3.549  13.617 -0.3459  0.0600 -0.4395
20211TIP3   OH282123   4.761   6.560  15.656 -0.0659  0.4497 -0.6067
20211TIP3    H182124   4.695   6.607  15.706  0.0817  0.1866 -0.1546
20211TIP3    H282125   4.821   6.627  15.625  0.1652  0.5628  0.0663
20212TIP3   OH282126   5.661   5.385  12.005  0.0909 -0.5546 -0.1579
20212TIP3    H182127   5.651   5.459  11.946  0.1484 -2.0963 -2.2269
20212TIP3    H282128   5.578   5.379  12.052 -0.1707  0.3484 -0.4940
20213TIP3   OH282129   3.079   5.025   1.380 -0.3104  0.2029  0.3626
20213TIP3    H182130   3.084   5.045   1.287  0.6831  0.0325  0.3687
20213TIP3    H282131   3.152   5.073   1.419  0.4763 -1.2606  0.7627
20214TIP3   OH282132   3.056   1.463  12.529  0.0909  0.2141 -0.5606
20214TIP3    H182133   3.151   1.447  12.524  0.3452  1.2561  0.4354
20214TIP3    H282134   3.046   1.522  12.604 -1.4766 -0.7776  0.0651
20215TIP3   OH282135   3.554   2.865   5.437  0.0210  0.3341 -0.5649
20215TIP3    H182136   3.506   2.871   5.520  3.1392 -2.3740  1.7141
20215TIP3    H282137   3.636   2.912   5.453 -0.3609  2.0646 -3.1507
20216TIP3   OH282138   3.937   5.149  11.783  0.6582 -0.4829  0.3522
20216TIP3    H182139   3.944   5.158  11.688  1.0763  0.3697  0.4576
20216TIP3    H282140   3.854   5.103  11.797  1.3128 -1.9847 -0.4824
20217TIP3   OH282141   4.851   0.293  13.201  0.6084  0.2691 -0.1944
20217TIP3    H182142   4.839   0.251  13.286  1.1351  0.8757  0.1959
20217TIP3    H282143   4.823   0.383  13.215 -0.3598  0.1014 -0.9756
20218TIP3   OH282144   4.786   4.166   5.842  0.1093  0.0065 -0.0959
20218TIP3    H182145   4.844   4.092   5.861  1.2394  1.2597  1.5839
20218TIP3    H282146   4.701   4.126   5.825  1.3432 -1.9079 -2.6202
20219TIP3   OH282147   3.138   2.391  14.603  0.2823 -0.4231  0.2764
20219TIP3    H182148   3.147   2.421  14.512  0.2793 -2.9833 -0.6860
20219TIP3    H282149   3.218   2.340  14.619 -0.3036 -1.0766  1.2334
20220TIP3   OH282150   4.146   0.676  11.386 -0.2253 -0.0961 -0.1155
20220TIP3    H182151   4.092   0.747  11.420  0.3914  0.7304 -0.7948
20220TIP3    H282152   4.175   0.708  11.300  0.4525 -0.9737 -0.2235
20221TIP3   OH282153   6.366   5.375   4.926  0.5190  0.3846 -0.0582
20221TIP3    H182154   6.296   5.370   4.861  1.0943  1.3437 -0.7688
20221TIP3    H282155   6.445   5.394   4.876  0.8873  1.6707  0.9402
20222TIP3   OH282156   5.255   3.257   0.024 -0.2128 -0.1630  0.1803
20222TIP3    H182157   5.213   3.304  -0.048  2.3193  0.0135 -1.2937
20222TIP3    H282158   5.193   3.266   0.097 -0.9910  3.3838 -0.7101
20223TIP3   OH282159   4.696   1.923   0.533  0.2075 -0.0282  0.3428
20223TIP3    H182160   4.717   1.942   0.442 -0.2606  0.0026  0.2393
20223TIP3    H282161   4.737   1.993   0.583  1.2961 -0.5667  0.2473
20224TIP3   OH282162   5.038   1.734  13.264  0.3610 -0.2758  0.3634
20224TIP3    H182163   5.132   1.719  13.250  0.1960  0.1266 -1.3975
20224TIP3    H282164   4.996   1.655  13.231  0.1075 -1.0631  2.4331
20225TIP3   OH282165   2.920   1.673  10.958  0.1198  0.4244 -0.4939
20225TIP3    H182166   2.995   1.676  10.899  0.0093  1.5645 -0.5937
20225TIP3    H282167   2.865   1.745  10.930 -0.3252  0.4755  0.4918
20226TIP3   OH282168   3.787   5.501   5.485 -0.3185  0.0395  0.2755
20226TIP3    H182169   3.743   5.584   5.469 -0.0459  0.0304 -0.5242
20226TIP3    H282170   3.716   5.437   5.489 -0.3697 -0.0994 -1.7806
20227TIP3   OH282171   4.837   2.293   0.406  0.5409  0.0295  0.2201
20227TIP3    H182172   4.777   2.321   0.476 -0.3351 -0.0508 -0.4891
20227TIP3    H282173   4.843   2.369   0.349 -0.4453 -0.6036 -0.7609
20228TIP3   OH282174   4.079   0.237  14.297 -0.0245  0.0148 -0.1395
20228TIP3    H182175   4.056   0.145  14.290  0.7146 -0.1620 -0.3590
20228TIP3    H282176   4.016   0.282  14.241 -0.8960 -0.2642  0.6008
20229TIP3   OH282177   2.588   6.295   5.305 -0.0345 -0.5121 -0.1087
20229TIP3    H182178   2.642   6.374   5.304  1.6651 -1.5878  1.3811
20229TIP3    H282179   2.613   6.248   5.226 -1.2346  0.4818 -1.1377
20230TIP3   OH282180   4.324   0.408  14.844  0.1697 -0.2500 -0.2940
20230TIP3    H182181   4.293   0.477  14.904 -1.4057  0.5536 -1.9449
20230TIP3    H282182   4.418   0.404  14.860  0.3314  2.3066 -0.0960
20231TIP3   OH282183   3.951   0.729   2.757  0.4375  0.1422  0.0254
20231TIP3    H182184   4.001   0.783   2.696 -0.6735  0.7243 -0.3986
20231TIP3    H282185   3.878   0.695   2.705  1.2224 -2.0174  0.2100
20232TIP3   OH282186   6.384   6.488  14.882 -0.1891 -0.2148  0.1436
20232TIP3    H182187   6.475   6.495  14.852 -0.3227 -1.4787 -0.6397
20232TIP3    H282188   6.341   6.564  14.843  0.2989 -0.2257 -0.4437
20233TIP3   OH282189   1.641   0.777  11.617  0.3643 -0.7933  0.0828
20233TIP3    H182190   1.728   0.740  11.635  0.8282  0.9741  1.8250
20233TIP3    H282191   1.644   0.801  11.525  1.0954 -2.3040 -0.3180
20234TIP3   OH282192   6.483   3.186  15.732  0.0986 -0.1191  0.1727
20234TIP3    H182193   6.404   3.235  15.752  0.8241  1.1402  0.0527
20234TIP3    H282194   6.481   3.175  15.637  1.6834  2.9241 -0.3410
20235TIP3   OH282195   0.466   5.010  14.507 -0.0233  0.0498 -0.0121
20235TIP3    H182196   0.391   5.068  14.523 -0.3093  0.4362 -2.3844
20235TIP3    H282197   0.512   5.050  14.434 -0.3940 -2.8360 -1.9748
20236TIP3   OH282198   1.642   4.486   1.462 -0.7122  0.2020 -0.5259
20236TIP3    H182199   1.572   4.476   1.527 -0.5073 -0.0505 -0.3411
20236TIP3    H282200   1.695   4.407   1.472 -0.0477  0.6765 -0.2431
20237TIP3   OH282201   2.527   1.407   1.445  0.1728 -0.8657  0.2242
20237TIP3    H182202   2.569   1.464   1.381 -1.2560 -1.8068 -1.6450
20237TIP3    H282203   2.518   1.461   1.524  0.4599  0.8905 -0.9041
20238LIG     O182204   1.824   1.792  16.211 -0.2833 -0.0191 -0.5718
20238LIG     O282205   1.834   1.838  16.460 -0.0974 -0.4586  0.6073
20238LIG     O382206   2.133   1.751  16.169  0.2212  0.2241  0.1906
20238LIG     O482207   1.760   1.718  16.642 -0.0707 -0.4896 -0.0798
20238LIG     O582208   2.028   1.619  16.425 -0.0706  0.1082  0.2799
20238LIG     O682209   2.089   1.476  16.681 -0.4724 -0.4672  0.2516
20238LIG     O782210   1.831   1.419  16.839 -0.3367  0.7462 -0.2332
20238LIG     O882211   1.513   1.581  16.828 -0.8427 -0.1992  0.0134
20238LIG     O982212   1.692   1.653  16.945  0.9663  0.0223 -0.6432
20238LIG      N82213   1.669   2.236  16.039 -0.4258  0.1372  0.3084
20238LIG     C182214   1.726   2.004  16.181  0.4178  0.8578  0.5617
20238LIG     C282215   1.679   2.122  16.255 -0.0458 -0.2789 -0.8386
20238LIG     C382216   1.707   1.870  16.252  0.5085  0.1943 -0.2579
20238LIG     C482217   1.726   2.243  16.179  0.0266  0.1721 -0.2085
20238LIG     C582218   1.686   1.995  16.032  0.2757 -0.2112  1.5011
20238LIG     C682219   1.870   2.016  16.165 -0.6708  0.3303 -0.9963
20238LIG     C782220   1.883   2.262  16.176 -0.4710  0.5304 -0.2417
20238LIG     C882221   1.720   2.125  15.959 -0.1842  0.0575 -0.2306
20238LIG     C982222   1.710   1.881  16.403 -0.0224 -0.4654 -0.0364
20238LIG    C1082223   1.951   2.124  16.174 -0.7572 -0.3230  0.3937
20238LIG    C1182224   1.717   2.127  16.398 -0.8989  0.4953 -0.1894
20238LIG    C1282225   1.922   1.884  16.176  0.4179 -0.0131  0.2698
20238LIG    C1382226   1.725   2.014  16.467 -0.0241  0.0919  0.0134
20238LIG    C1482227   1.528   2.253  16.030  1.2094 -0.0361  0.1168
20238LIG    C1582228   2.087   2.111  16.166  0.1462 -0.2720  0.3453
20238LIG    C1682229   2.063   1.869  16.166  0.1382 -0.5312  0.3261
20238LIG    C1782230   2.142   1.983  16.172 -0.3931 -0.3195 -0.0280
20238LIG    C1882231   1.827   1.706  16.520  0.0540  0.2843  0.5054
20238LIG    C1982232   1.969   1.648  16.550  0.2137  0.5696 -0.2353
20238LIG    C2082233   1.957   1.519  16.639 -0.0183  0.0338 -1.2228
20238LIG    C2182234   1.857   1.534  16.757  0.1643  0.7157  1.1013
20238LIG    C2282235   1.731   1.599  16.706 -0.3134  0.6721  0.1290
20238LIG    C2382236   1.651   1.614  16.835  0.6113 -0.5983 -0.0753
20238LIG     H182237   1.568   2.127  16.253 -0.0623  0.4469  0.4919
20238LIG     H282238   1.613   1.823  16.215 -0.6854  0.6489  1.9847
20238LIG     H382239   1.693   2.336  16.229  1.2668  0.4824  0.0680
20238LIG     H482240   1.576   1.976  16.025  0.5999 -1.7232 -0.6038
20238LIG     H582241   1.709   1.898  15.984 -2.5074  1.0298 -2.9432
20238LIG     H682242   1.919   2.313  16.268 -2.2805  0.5361  0.5062
20238LIG     H782243   1.932   2.326  16.099  0.2345  1.2173  0.7404
20238LIG     H882244   1.829   2.130  15.938 -0.2263 -3.4481 -1.9764
20238LIG     H982245   1.674   2.136  15.858  1.4628 -1.5491 -1.2292
20238LIG    H1082246   1.626   1.824  16.450  0.2313  1.0322  2.4009
20238LIG    H1182247   1.716   2.220  16.458  0.6028 -0.9367  2.2487
20238LIG    H1282248   1.753   2.023  16.573  1.0284  1.8557 -0.3650
20238LIG    H1382249   1.475   2.160  15.999  1.6458 -1.0404  2.2387
20238LIG    H1482250   1.501   2.333  15.957  2.0954  0.7209  0.6068
20238LIG    H1582251   1.477   2.272  16.127 -0.8855 -0.6013 -0.8125
20238LIG    H1682252   2.149   2.199  16.165 -2.2939  1.5173 -0.7231
20238LIG    H1782253   2.249   1.975  16.160 -0.5123 -0.5599 -1.0323
20238LIG    H1882254   1.768   1.636  16.456  0.1448 -0.4543  1.2183
20238LIG    H1982255   2.025   1.721  16.611 -1.4127  1.7284 -0.0594
20238LIG    H2082256   1.922   1.448  16.561  2.5705  0.1670 -2.6081
20238LIG    H2182257   2.215   1.762  16.121  0.1372 -3.9692 -1.2682
20238LIG    H2282258   1.902   1.610  16.824  0.0012  0.2222  1.7857
20238LIG    H2382259   1.677   1.528  16.640 -1.1791  1.2502  0.2015
20238LIG    H2482260   2.026   1.703  16.379 -0.0666  0.5228  1.0079
20238LIG    H2582261   2.126   1.448  16.597 -0.2735 -0.8087  0.4539
20238LIG    H2682262   1.910   1.389  16.885 -1.2041  0.1616  0.9362
20238LIG    H2782263   1.482   1.563  16.917  1.0409  0.8189  0.9458
   6.82334   6.82334  17.25291
